Title
82281
    1SAPS     N    1   0.992   4.764  11.107  0.2021  0.6286  0.3690
    1SAPS   HN1    2   0.938   4.683  11.071 -0.2104  0.7453  0.7284
    1SAPS   HN2    3   1.070   4.726  11.164 -0.1977  0.1440  0.5963
    1SAPS   HN3    4   0.922   4.815  11.164 -1.7308 -4.5449  2.9445
    1SAPS   C12    5   1.037   4.854  10.994 -0.0689  0.7014  0.3516
    1SAPS  H12A    6   0.958   4.880  10.926  2.0822  1.6707 -1.8552
    1SAPS   C13    7   1.099   4.996  11.021  0.7041 -0.3340 -0.4711
    1SAPS  O13A    8   1.068   5.047  11.131  0.1843  0.0384  0.0200
    1SAPS  O13B    9   1.158   5.068  10.939  0.0009 -0.3638 -0.2772
    1SAPS   C11   10   1.148   4.776  10.910  0.4802 -0.6952  0.1613
    1SAPS  H11A   11   1.162   4.839  10.820  1.6328 -2.1722 -0.7166
    1SAPS  H11B   12   1.096   4.680  10.886  0.8697 -0.7287 -0.5634
    1SAPS     P   13   1.399   4.702  10.911 -0.3731 -0.1350 -0.0794
    1SAPS   O13   14   1.439   4.791  10.798  0.3033 -0.0157  0.0067
    1SAPS   O14   15   1.504   4.675  11.010  0.2190 -0.0743  0.3859
    1SAPS   O12   16   1.271   4.764  10.980 -0.3343  0.4569 -0.9165
    1SAPS   O11   17   1.343   4.559  10.874 -0.3271 -0.0840 -0.7805
    1SAPS    C1   18   1.416   4.475  10.778 -0.4675 -0.2648 -0.0376
    1SAPS    HA   19   1.524   4.500  10.770 -1.0727  2.0950 -1.0429
    1SAPS    HB   20   1.421   4.373  10.822 -1.4692  0.0995  0.9641
    1SAPS    C2   21   1.355   4.474  10.636  0.1155  0.5484  0.6121
    1SAPS    HS   22   1.375   4.577  10.599 -0.6912  0.6226  0.3663
    1SAPS   O21   23   1.220   4.419  10.649 -0.4709  0.0433 -0.2369
    1SAPS   C21   24   1.126   4.507  10.624 -0.1039 -1.5621  0.3774
    1SAPS   O22   25   1.143   4.618  10.574  0.3714 -0.2626  0.4901
    1SAPS   C22   26   0.993   4.450  10.665 -0.5376  0.1574 -0.5029
    1SAPS   H2R   27   0.980   4.470  10.774  0.2319  1.3085 -0.6221
    1SAPS   H2S   28   0.905   4.504  10.623 -0.3672  1.3210  0.6207
    1SAPS    C3   29   1.428   4.379  10.546  0.5387 -0.0667 -0.0224
    1SAPS    HX   30   1.375   4.378  10.448  1.5168 -1.5708 -0.5655
    1SAPS    HY   31   1.428   4.277  10.592  1.0876 -0.8510 -1.7255
    1SAPS   O31   32   1.567   4.427  10.543 -0.2164  0.6914  0.7310
    1SAPS   C31   33   1.603   4.497  10.428 -0.2560  0.8003  0.1972
    1SAPS   O32   34   1.530   4.543  10.348 -0.2622 -0.5415 -0.0034
    1SAPS   C32   35   1.757   4.488  10.417  0.4206 -0.4927  0.1729
    1SAPS   H2X   36   1.792   4.491  10.522 -0.9435 -0.3539  0.6309
    1SAPS   H2Y   37   1.791   4.576  10.358  0.6861 -0.3315  0.5671
    1SAPS   C23   38   0.966   4.295  10.649 -0.8477  0.3887 -0.1034
    1SAPS   H3R   39   0.883   4.267  10.717 -0.9873  1.2152  0.0774
    1SAPS   H3S   40   1.064   4.250  10.676 -1.2981 -0.0388  0.8673
    1SAPS   C24   41   0.937   4.248  10.510  1.1885 -0.2101  0.4055
    1SAPS   H4R   42   0.896   4.145  10.519  0.5065 -0.1746 -1.9548
    1SAPS   H4S   43   1.036   4.241  10.461  0.5939 -2.9648 -0.5101
    1SAPS   C25   44   0.834   4.323  10.430 -0.2799  0.4712  0.0610
    1SAPS   H5R   45   0.741   4.350  10.483  1.0737 -0.7900  3.2102
    1SAPS   C26   46   0.859   4.365  10.307  0.5868  0.2368 -0.6936
    1SAPS   H6R   47   0.781   4.424  10.256 -1.5635 -1.2628  0.7524
    1SAPS   C27   48   0.986   4.335  10.227  0.1591  0.2135  0.2559
    1SAPS   H7R   49   0.956   4.313  10.122  1.5498 -2.1029  0.3027
    1SAPS   H7S   50   1.033   4.242  10.266 -0.3063 -0.9296 -1.7814
    1SAPS   C28   51   1.097   4.443  10.213  0.2997 -0.7104 -0.4588
    1SAPS   H8R   52   1.129   4.487  10.309 -1.7907 -0.6706  0.2548
    1SAPS   C29   53   1.143   4.485  10.095  0.1415 -0.2701  0.0517
    1SAPS   H9R   54   1.212   4.571  10.106 -1.0768  0.5002  1.9314
    1SAPS  C210   55   1.114   4.431   9.961  0.1069  0.9024 -0.8341
    1SAPS  H10R   56   1.079   4.325   9.963  1.1831  0.5383 -0.7419
    1SAPS  H10S   57   1.205   4.428   9.896 -1.9419  1.7278 -3.8759
    1SAPS  C211   58   1.010   4.516   9.893  0.1071 -0.3419  0.3117
    1SAPS  H11R   59   0.921   4.547   9.949 -1.1949  0.2560 -2.0220
    1SAPS  C212   60   1.021   4.572   9.771  0.2325  0.3519 -0.2841
    1SAPS  H12R   61   0.940   4.635   9.730 -0.2298  1.4691  2.2055
    1SAPS  C213   62   1.146   4.556   9.685  0.4884  0.2952 -0.4964
    1SAPS  H13R   63   1.158   4.449   9.661 -0.4181 -0.2906  1.5566
    1SAPS  H13S   64   1.235   4.586   9.743 -0.0038  1.5265 -0.3467
    1SAPS  C214   65   1.137   4.624   9.548  0.2482  0.1612  0.2011
    1SAPS  H14R   66   1.164   4.729   9.565  0.1327  0.4568 -1.4001
    1SAPS  C215   67   1.106   4.577   9.423  0.3158 -0.0169  0.6354
    1SAPS  H15R   68   1.102   4.651   9.341  0.0649 -0.9833 -0.2405
    1SAPS  C216   69   1.072   4.435   9.387 -0.4892 -0.6625 -0.6233
    1SAPS  H16R   70   0.968   4.409   9.414 -0.7422  1.0771  0.1371
    1SAPS  H16S   71   1.130   4.360   9.445 -0.2931  0.5469  0.7713
    1SAPS  C217   72   1.105   4.408   9.236 -0.5032  0.4278 -0.7564
    1SAPS  H17R   73   1.207   4.440   9.205  0.8773 -0.2116  2.8976
    1SAPS  H17S   74   1.030   4.472   9.183  0.1864  0.0714 -2.1901
    1SAPS  C218   75   1.083   4.264   9.201  0.9401 -0.4072  0.2888
    1SAPS  H18R   76   0.976   4.237   9.211  0.0861  2.8784  0.4759
    1SAPS  H18S   77   1.147   4.193   9.258  1.7481  0.5749  0.6060
    1SAPS  C219   78   1.133   4.236   9.057 -0.3101  0.2570 -0.1110
    1SAPS  H19R   79   1.243   4.244   9.070 -0.5280  2.6601  0.5686
    1SAPS  H19S   80   1.094   4.315   8.988  0.1555 -0.2056 -0.9086
    1SAPS  C220   81   1.103   4.100   9.007  0.2571  0.1037  0.0111
    1SAPS  H20R   82   1.171   4.027   9.056 -3.0476 -1.1512  2.9516
    1SAPS  H20S   83   1.124   4.094   8.898  2.7668 -1.4020  0.5353
    1SAPS  H20T   84   1.004   4.057   9.035  0.4633 -0.3970 -0.0159
    1SAPS   C33   85   1.812   4.369  10.335  0.3593 -0.7087  0.5573
    1SAPS   H3X   86   1.761   4.273  10.360  0.6032 -0.6224  1.3945
    1SAPS   H3Y   87   1.920   4.353  10.354  0.5127  1.1781  1.4017
    1SAPS   C34   88   1.795   4.389  10.183 -1.0727  0.5583  0.0355
    1SAPS   H4X   89   1.833   4.491  10.158 -1.8715  0.9649  0.4763
    1SAPS   H4Y   90   1.689   4.392  10.149 -1.5018  2.6272  1.4434
    1SAPS   C35   91   1.859   4.273  10.101  0.2051 -0.0317 -0.5700
    1SAPS   H5X   92   1.820   4.173  10.132 -2.4639  0.9975 -0.4831
    1SAPS   H5Y   93   1.968   4.282  10.121  0.3818  1.7777 -2.2030
    1SAPS   C36   94   1.854   4.281   9.947 -0.0402 -1.0628 -0.2217
    1SAPS   H6X   95   1.750   4.296   9.909 -0.0460 -0.8301 -0.1117
    1SAPS   H6Y   96   1.891   4.192   9.891 -2.5908 -0.2995 -3.2808
    1SAPS   C37   97   1.943   4.401   9.906 -0.3810 -0.2043  0.2732
    1SAPS   H7X   98   2.045   4.380   9.946  0.8527  3.9231 -0.4680
    1SAPS   H7Y   99   1.898   4.493   9.950  1.1930 -0.7298  3.0997
    1SAPS   C38  100   1.954   4.421   9.757  0.2255 -0.4647 -0.6019
    1SAPS   H8X  101   1.849   4.436   9.725  0.1180 -0.5033 -0.2703
    1SAPS   H8Y  102   1.985   4.321   9.720  2.2160  0.0997 -0.5220
    1SAPS   C39  103   2.024   4.548   9.705 -0.2746 -0.1049 -0.1016
    1SAPS   H9X  104   2.127   4.552   9.747 -0.3901 -0.1767  0.1875
    1SAPS   H9Y  105   1.972   4.645   9.719 -0.6190 -0.4379  0.9919
    1SAPS  C310  106   2.057   4.543   9.557 -0.5011  0.4685  0.2132
    1SAPS  H10X  107   1.959   4.555   9.506 -0.8788  1.7980  1.2299
    1SAPS  H10Y  108   2.098   4.447   9.519  1.4954  1.0706  0.7661
    1SAPS  C311  109   2.143   4.666   9.520 -0.1777 -0.3279 -0.2091
    1SAPS  H11X  110   2.238   4.661   9.579 -1.5327 -1.2396  1.9560
    1SAPS  H11Y  111   2.095   4.756   9.563  0.1235  0.7953 -2.1537
    1SAPS  C312  112   2.183   4.673   9.371  0.7429 -0.3495 -0.7774
    1SAPS  H12X  113   2.243   4.583   9.345  0.1113 -1.0802  0.2395
    1SAPS  H12Y  114   2.253   4.756   9.351  0.0259  0.8102  1.4040
    1SAPS  C313  115   2.058   4.701   9.279 -0.0502 -0.1733 -0.4737
    1SAPS  H13X  116   2.032   4.807   9.301  0.7265  0.2908 -1.7798
    1SAPS  H13Y  117   1.977   4.638   9.322 -1.0005  2.7345  2.2425
    1SAPS  C314  118   2.095   4.681   9.134  0.8889 -0.4101 -0.2923
    1SAPS  H14X  119   2.125   4.576   9.112  2.4736 -0.4263  1.7961
    1SAPS  H14Y  120   2.188   4.737   9.109  0.7084 -0.4135 -0.9690
    1SAPS  C315  121   1.977   4.731   9.050  0.3929  0.3106  0.6315
    1SAPS  H15X  122   1.966   4.838   9.077  0.5048  0.1383  1.3862
    1SAPS  H15Y  123   1.878   4.681   9.060 -0.5315  1.7797 -1.0036
    1SAPS  C316  124   1.992   4.730   8.896 -0.4556 -0.5568  0.6055
    1SAPS  H16X  125   1.900   4.767   8.845 -0.3279 -2.2355 -0.8853
    1SAPS  H16Y  126   2.015   4.628   8.858 -3.8656 -1.3385  0.4406
    1SAPS  C317  127   2.099   4.819   8.846  0.2996  0.2126 -0.8347
    1SAPS  H17X  128   2.198   4.775   8.872 -0.4749 -0.6458  0.7309
    1SAPS  H17Y  129   2.081   4.921   8.886  1.3816 -0.3990  1.3057
    1SAPS  C318  130   2.107   4.842   8.694  0.8013  0.9835 -0.6064
    1SAPS  H18X  131   2.144   4.744   8.657  2.6024  2.1099 -1.8155
    1SAPS  H18Y  132   2.182   4.921   8.674  2.1757 -0.5374 -1.5510
    1SAPS  H18Z  133   2.010   4.866   8.646 -0.3769 -0.3617  0.9899
    2SAPS     N  134   6.145   4.047  11.093  0.0122  0.1465  0.6440
    2SAPS   HN1  135   6.102   4.133  11.055  1.0755 -0.1661 -1.3307
    2SAPS   HN2  136   6.130   3.968  11.027 -2.1709  0.6477  0.5008
    2SAPS   HN3  137   6.118   4.019  11.189  0.7154  1.6005  1.2759
    2SAPS   C12  138   6.286   4.067  11.107 -0.5159 -0.0024 -0.6600
    2SAPS  H12A  139   6.304   4.160  11.159  0.0470 -1.0263  1.0051
    2SAPS   C13  140   6.347   3.946  11.182 -0.0294  0.2684 -0.4964
    2SAPS  O13A  141   6.279   3.874  11.258 -0.5194  0.5215  0.4622
    2SAPS  O13B  142   6.473   3.953  11.200  0.1055 -0.2186  0.4827
    2SAPS   C11  143   6.358   4.073  10.962  0.1512  0.1505 -0.1006
    2SAPS  H11A  144   6.335   3.977  10.912  1.1207  0.3586 -0.9670
    2SAPS  H11B  145   6.468   4.081  10.976 -0.0970  1.9813  0.9864
    2SAPS     P  146   6.339   4.328  10.894 -0.0577  0.1762 -0.0224
    2SAPS   O13  147   6.208   4.402  10.896 -0.4840 -0.6592  0.2090
    2SAPS   O14  148   6.434   4.341  11.007 -0.0493  0.0105 -0.0867
    2SAPS   O12  149   6.310   4.176  10.880 -0.4021  0.1231  0.1327
    2SAPS   O11  150   6.418   4.361  10.770 -0.0416 -0.5298 -0.1110
    2SAPS    C1  151   6.534   4.289  10.741  0.0428 -0.0158  0.2011
    2SAPS    HA  152   6.617   4.342  10.793  0.3491  1.8185 -2.0639
    2SAPS    HB  153   6.529   4.183  10.774 -3.1408 -0.1739 -0.5448
    2SAPS    C2  154   6.590   4.300  10.596 -0.3277 -0.1084  0.1434
    2SAPS    HS  155   6.679   4.234  10.586 -0.3482 -0.3124  1.2943
    2SAPS   O21  156   6.613   4.439  10.564 -0.6208 -0.0154  0.3708
    2SAPS   C21  157   6.731   4.465  10.504 -0.2837 -0.2487 -0.3911
    2SAPS   O22  158   6.828   4.390  10.502  0.1290 -0.4920  0.3144
    2SAPS   C22  159   6.743   4.601  10.446 -0.1297 -0.8063 -0.2618
    2SAPS   H2R  160   6.643   4.642  10.421 -0.5018 -0.0659  2.2379
    2SAPS   H2S  161   6.790   4.671  10.519 -0.9109  1.8455 -2.2343
    2SAPS    C3  162   6.477   4.242  10.514  0.1013 -0.1194  0.5520
    2SAPS    HX  163   6.395   4.317  10.512  0.5116  0.3357  0.8140
    2SAPS    HY  164   6.436   4.148  10.556 -0.1476  0.8744  2.5898
    2SAPS   O31  165   6.518   4.223  10.380  0.3873 -0.0684  0.1666
    2SAPS   C31  166   6.456   4.123  10.318  0.1434 -0.6303 -0.2729
    2SAPS   O32  167   6.363   4.060  10.361 -0.2729 -0.4722 -0.0814
    2SAPS   C32  168   6.524   4.101  10.183 -0.2610 -0.1553  0.6128
    2SAPS   H2X  169   6.632   4.121  10.197 -0.2195 -0.9939  1.5568
    2SAPS   H2Y  170   6.481   4.178  10.116  1.6040 -1.1264 -1.7946
    2SAPS   C23  171   6.834   4.609  10.318 -0.2430 -0.6361  0.8476
    2SAPS   H3R  172   6.786   4.544  10.241  0.8667 -0.2711 -0.1693
    2SAPS   H3S  173   6.937   4.571  10.338  0.5945  1.4650  0.6372
    2SAPS   C24  174   6.852   4.752  10.275 -0.1454 -0.1535  0.2094
    2SAPS   H4R  175   6.934   4.750  10.200  0.4596  1.1006  0.8429
    2SAPS   H4S  176   6.892   4.807  10.362 -1.1608  0.9304 -0.0003
    2SAPS   C25  177   6.732   4.817  10.218 -0.1379  0.9336 -0.3988
    2SAPS   H5R  178   6.660   4.841  10.298 -0.3717  1.3398 -0.7292
    2SAPS   C26  179   6.713   4.843  10.088 -0.7712 -0.5804 -0.1782
    2SAPS   H6R  180   6.615   4.882  10.057 -0.9210 -0.0668  0.9150
    2SAPS   C27  181   6.807   4.810   9.977  0.0605  0.3255  0.6949
    2SAPS   H7R  182   6.834   4.702   9.976  0.8019  0.4878  1.8958
    2SAPS   H7S  183   6.909   4.848  10.003 -0.0591 -0.8942  2.9884
    2SAPS   C28  184   6.771   4.868   9.845  0.0713 -0.2449  0.2194
    2SAPS   H8R  185   6.683   4.934   9.843  0.9087  0.9006  0.4624
    2SAPS   C29  186   6.819   4.839   9.724 -0.7442 -0.1972  0.2319
    2SAPS   H9R  187   6.786   4.894   9.634 -1.3891 -1.8013 -0.5350
    2SAPS  C210  188   6.939   4.746   9.694 -0.2786  0.8140  0.1645
    2SAPS  H10R  189   6.897   4.648   9.661 -0.2658  1.5374 -2.0300
    2SAPS  H10S  190   7.001   4.733   9.786 -0.3470 -0.0331  0.0983
    2SAPS  C211  191   7.041   4.785   9.595 -0.0553  0.2393  0.2048
    2SAPS  H11R  192   7.132   4.832   9.634  0.1223 -0.4154  0.5935
    2SAPS  C212  193   7.027   4.777   9.461 -0.0814 -0.5902  0.4928
    2SAPS  H12R  194   7.110   4.806   9.395  0.7154  1.7752  2.4738
    2SAPS  C213  195   6.917   4.729   9.368 -0.2055 -1.0540  0.0962
    2SAPS  H13R  196   6.821   4.739   9.423 -0.1552 -2.0895  0.3873
    2SAPS  H13S  197   6.932   4.624   9.334 -1.3396 -0.6427 -1.8043
    2SAPS  C214  198   6.903   4.821   9.254  0.2858  0.5175  0.2923
    2SAPS  H14R  199   6.824   4.896   9.268  0.5585  1.2375 -1.8843
    2SAPS  C215  200   6.978   4.820   9.141  0.8655  0.6809  0.4042
    2SAPS  H15R  201   6.945   4.888   9.060 -1.0885  0.2496  0.8039
    2SAPS  C216  202   7.094   4.741   9.105 -0.1800  0.6284  0.0754
    2SAPS  H16R  203   7.118   4.661   9.178  1.8476 -0.1782 -1.4381
    2SAPS  H16S  204   7.185   4.804   9.109  2.8548 -3.5285  0.2107
    2SAPS  C217  205   7.081   4.668   8.974 -1.0698  0.9354 -0.4756
    2SAPS  H17R  206   6.998   4.595   8.979  1.2690 -1.8275 -0.2815
    2SAPS  H17S  207   7.166   4.599   8.950 -1.0899 -0.1953  2.4853
    2SAPS  C218  208   7.072   4.758   8.841 -0.3703  0.4621 -0.4550
    2SAPS  H18R  209   6.983   4.824   8.852 -0.9692 -0.7433  2.4448
    2SAPS  H18S  210   7.053   4.693   8.754 -1.5352  0.6611 -0.3640
    2SAPS  C219  211   7.204   4.843   8.820  0.5936  0.0211 -0.2492
    2SAPS  H19R  212   7.280   4.762   8.808  1.3841  0.6540  0.4249
    2SAPS  H19S  213   7.230   4.894   8.916  1.3211 -1.2937  0.2689
    2SAPS  C220  214   7.190   4.931   8.705 -0.4800 -0.8032 -0.0127
    2SAPS  H20R  215   7.279   4.998   8.702 -1.0476 -0.0909 -2.4054
    2SAPS  H20S  216   7.099   4.994   8.717 -1.2792 -2.1484  1.0780
    2SAPS  H20T  217   7.179   4.885   8.605 -1.2017  2.7234 -1.6521
    2SAPS   C33  218   6.491   3.956  10.122  0.3822 -0.5671  0.4636
    2SAPS   H3X  219   6.383   3.960  10.098 -0.3534  0.6680  3.6573
    2SAPS   H3Y  220   6.511   3.884  10.205  1.1630 -1.1711 -0.2380
    2SAPS   C34  221   6.585   3.921  10.001 -0.6461 -0.0264  0.0245
    2SAPS   H4X  222   6.596   3.812   9.986  2.1182 -0.0774  1.9522
    2SAPS   H4Y  223   6.684   3.954  10.040  0.2550 -1.0259 -1.3840
    2SAPS   C35  224   6.553   3.990   9.869 -0.7910  0.0425  0.1636
    2SAPS   H5X  225   6.530   4.096   9.892 -1.9491 -0.2965  0.5658
    2SAPS   H5Y  226   6.453   3.954   9.839  0.5108 -2.1168 -1.7903
    2SAPS   C36  227   6.667   3.971   9.769 -0.3570 -0.4486 -0.0597
    2SAPS   H6X  228   6.699   3.865   9.764  1.6017 -0.1100  3.8597
    2SAPS   H6Y  229   6.750   4.037   9.801 -1.3726  0.0327  1.6736
    2SAPS   C37  230   6.637   4.034   9.624 -0.4464  0.0998 -0.0607
    2SAPS   H7X  231   6.734   4.053   9.573  0.5022 -0.3250  1.5475
    2SAPS   H7Y  232   6.598   4.137   9.638  2.4433  1.1021  1.0553
    2SAPS   C38  233   6.532   3.952   9.549 -0.2926 -0.1967  0.1667
    2SAPS   H8X  234   6.430   3.945   9.594 -0.8521 -1.2826 -1.2220
    2SAPS   H8Y  235   6.550   3.842   9.545 -0.0945 -0.1969  1.0958
    2SAPS   C39  236   6.513   4.000   9.404 -0.4557  0.3731  0.6421
    2SAPS   H9X  237   6.489   4.105   9.376 -0.5748  0.2700  0.3559
    2SAPS   H9Y  238   6.442   3.929   9.359 -0.1675  0.8024 -0.5079
    2SAPS  C310  239   6.642   3.974   9.318 -0.8478  0.0434  0.0693
    2SAPS  H10X  240   6.675   3.868   9.331  1.2356  0.6943  0.2354
    2SAPS  H10Y  241   6.718   4.047   9.352 -1.7659  1.0831 -0.0704
    2SAPS  C311  242   6.618   3.975   9.163  0.5513 -0.4924  0.0553
    2SAPS  H11X  243   6.566   4.070   9.138  3.4023  0.9714 -0.4249
    2SAPS  H11Y  244   6.552   3.887   9.147 -0.9779  0.1545  2.5339
    2SAPS  C312  245   6.747   3.961   9.084 -0.0406  0.4067  0.4346
    2SAPS  H12X  246   6.802   3.875   9.127 -1.0119 -0.8073 -0.7267
    2SAPS  H12Y  247   6.808   4.054   9.089 -1.4346  1.5579 -2.4055
    2SAPS  C313  248   6.734   3.938   8.932 -0.1640  0.0760  0.1579
    2SAPS  H13X  249   6.713   4.037   8.885 -1.0194  0.0764  0.5325
    2SAPS  H13Y  250   6.646   3.873   8.912 -0.3409  0.5788 -0.7557
    2SAPS  C314  251   6.863   3.886   8.861 -0.5076 -0.6913  0.3240
    2SAPS  H14X  252   6.871   3.776   8.874 -3.5983 -1.0161 -0.1802
    2SAPS  H14Y  253   6.951   3.939   8.903 -0.7036  0.3412 -0.5465
    2SAPS  C315  254   6.844   3.905   8.710 -0.2462  0.0383  0.2874
    2SAPS  H15X  255   6.735   3.888   8.701 -0.1464 -0.4775  0.0479
    2SAPS  H15Y  256   6.900   3.836   8.643  0.0800  0.4295  0.1593
    2SAPS  C316  257   6.885   4.039   8.658 -0.3708 -0.3692  0.0407
    2SAPS  H16X  258   6.850   4.105   8.740  2.4006 -2.2492  2.8490
    2SAPS  H16Y  259   6.849   4.070   8.558  0.2899 -1.5766 -0.5901
    2SAPS  C317  260   7.041   4.041   8.662 -0.2524 -0.5725 -0.2120
    2SAPS  H17X  261   7.082   3.946   8.621  0.5811 -0.5473  0.5486
    2SAPS  H17Y  262   7.064   4.040   8.771  0.4302 -0.3656 -0.3500
    2SAPS  C318  263   7.110   4.149   8.579  0.3244  0.6150  0.3406
    2SAPS  H18X  264   7.060   4.144   8.480 -1.0071 -0.4322  1.0365
    2SAPS  H18Y  265   7.218   4.124   8.574  0.3226  0.7498 -0.3456
    2SAPS  H18Z  266   7.103   4.254   8.615 -0.6784  1.0653 -1.1293
    3SAPS     N  267   0.052   6.502  10.849  0.1625  0.2705  0.2302
    3SAPS   HN1  268   0.057   6.517  10.747  2.0411  1.7636  0.5159
    3SAPS   HN2  269   0.012   6.409  10.870 -0.7484  0.5735 -0.1520
    3SAPS   HN3  270  -0.017   6.565  10.897 -0.7440 -0.4494 -0.1173
    3SAPS   C12  271   0.189   6.521  10.888 -0.3937 -0.0905 -0.4378
    3SAPS  H12A  272   0.198   6.497  10.993  2.5345  0.6704 -0.4893
    3SAPS   C13  273   0.291   6.436  10.810  0.0833  0.6210 -0.2468
    3SAPS  O13A  274   0.259   6.357  10.718  0.9863  0.4565 -0.1899
    3SAPS  O13B  275   0.411   6.445  10.843  0.1807  0.5749  0.3244
    3SAPS   C11  276   0.223   6.674  10.884  0.9641 -0.8066  0.2308
    3SAPS  H11A  277   0.238   6.714  10.781  0.2839 -0.2531  0.3417
    3SAPS  H11B  278   0.314   6.677  10.947 -0.0759 -0.7173  1.7565
    3SAPS     P  279   0.167   6.901  10.960 -0.0809  0.8578 -0.5409
    3SAPS   O13  280   0.067   6.982  11.038 -0.0694  0.0472  0.0398
    3SAPS   O14  281   0.306   6.917  11.002  0.0358  0.0434 -0.2354
    3SAPS   O12  282   0.121   6.754  10.946  0.3539 -0.1176  0.4101
    3SAPS   O11  283   0.156   6.951  10.814 -0.2309 -0.5539  0.0450
    3SAPS    C1  284   0.032   6.938  10.741  0.2361  0.7029 -0.4864
    3SAPS    HA  285  -0.032   6.860  10.786  0.1062 -0.2841 -2.3395
    3SAPS    HB  286  -0.016   7.038  10.736 -0.3641  0.5183  1.1726
    3SAPS    C2  287   0.060   6.890  10.601 -0.0629  0.1118 -0.0083
    3SAPS    HS  288   0.136   6.809  10.610  0.7792  0.8551 -0.3919
    3SAPS   O21  289   0.099   7.001  10.522  0.7771 -0.5363 -0.1361
    3SAPS   C21  290   0.185   6.970  10.419 -0.4694  0.0466  0.5687
    3SAPS   O22  291   0.222   6.857  10.395 -0.3059 -0.1909  0.2518
    3SAPS   C22  292   0.225   7.093  10.333 -0.2623  0.0313 -0.4341
    3SAPS   H2R  293   0.147   7.094  10.254  0.6717 -2.0471 -1.4332
    3SAPS   H2S  294   0.233   7.182  10.399 -0.9411 -0.1526 -0.1028
    3SAPS    C3  295  -0.068   6.826  10.537  0.2343 -0.4753 -0.8766
    3SAPS    HX  296  -0.116   6.912  10.488  0.1833 -1.6320 -2.8985
    3SAPS    HY  297  -0.133   6.793  10.621  2.1324  0.0178  0.8294
    3SAPS   O31  298  -0.042   6.720  10.432 -0.8962 -0.5610 -0.0844
    3SAPS   C31  299   0.011   6.612  10.481 -0.0962  0.0686  0.2883
    3SAPS   O32  300   0.019   6.585  10.596  0.5240 -0.1352  0.4190
    3SAPS   C32  301   0.068   6.527  10.360  0.3660 -0.5814 -0.2009
    3SAPS   H2X  302   0.093   6.595  10.276  1.4520 -0.5599  0.1222
    3SAPS   H2Y  303  -0.008   6.453  10.329  0.8628  0.4079 -4.0002
    3SAPS   C23  304   0.353   7.081  10.248  0.2803  0.4779  0.0914
    3SAPS   H3R  305   0.340   6.994  10.181 -1.5579  1.0580 -0.3324
    3SAPS   H3S  306   0.441   7.053  10.310  1.0307  1.1171 -0.6808
    3SAPS   C24  307   0.382   7.203  10.166 -0.7001 -1.2231 -0.6576
    3SAPS   H4R  308   0.458   7.164  10.095 -1.2670 -0.3514 -1.7551
    3SAPS   H4S  309   0.439   7.276  10.228  2.1597 -2.4138 -1.8097
    3SAPS   C25  310   0.277   7.266  10.077 -0.1198 -0.2428  0.2085
    3SAPS   H5R  311   0.224   7.351  10.122  0.6558 -0.0532  0.7803
    3SAPS   C26  312   0.242   7.220   9.958 -0.2078 -0.2947 -0.6702
    3SAPS   H6R  313   0.167   7.278   9.902 -1.8338 -0.7870  0.9141
    3SAPS   C27  314   0.306   7.112   9.885  0.4661  0.9335  0.2286
    3SAPS   H7R  315   0.387   7.068   9.947 -0.8405 -0.5856  0.9180
    3SAPS   H7S  316   0.349   7.154   9.792  0.3305  0.8987  0.1491
    3SAPS   C28  317   0.198   7.011   9.858 -0.1532 -0.0686  0.1750
    3SAPS   H8R  318   0.150   6.973   9.949 -2.4427  1.5709 -0.3149
    3SAPS   C29  319   0.152   6.971   9.738  0.4887 -0.1426 -0.3858
    3SAPS   H9R  320   0.079   6.889   9.739 -2.6160  2.5556  2.6629
    3SAPS  C210  321   0.187   7.012   9.598  0.2482  0.1429 -0.4640
    3SAPS  H10R  322   0.275   6.959   9.557  1.8393  0.2843  2.6789
    3SAPS  H10S  323   0.238   7.109   9.618  0.6996 -0.1792 -0.0760
    3SAPS  C211  324   0.069   7.036   9.509 -0.5228 -0.4026 -0.2882
    3SAPS  H11R  325  -0.032   7.015   9.546 -1.0353  0.5801 -1.1105
    3SAPS  C212  326   0.089   7.083   9.383  0.0176 -0.1998  0.1930
    3SAPS  H12R  327   0.010   7.097   9.307 -0.3541  2.8828  1.1134
    3SAPS  C213  328   0.228   7.127   9.332  0.3515  0.0199  0.2405
    3SAPS  H13R  329   0.287   7.162   9.419 -1.2430 -0.8869  1.7143
    3SAPS  H13S  330   0.221   7.220   9.272  1.5877 -0.5008 -0.7281
    3SAPS  C214  331   0.314   7.031   9.254 -0.2279  0.8360 -0.4318
    3SAPS  H14R  332   0.281   6.926   9.261 -2.3457  1.3910 -1.6553
    3SAPS  C215  333   0.419   7.054   9.177  0.1885  0.0404  0.2555
    3SAPS  H15R  334   0.457   6.964   9.126  2.3894  2.0324 -1.7782
    3SAPS  C216  335   0.486   7.180   9.146  0.2026 -0.3095 -0.2363
    3SAPS  H16R  336   0.595   7.159   9.155 -0.1423 -1.3336  1.6560
    3SAPS  H16S  337   0.456   7.259   9.218 -0.3454 -1.0739  0.3795
    3SAPS  C217  338   0.463   7.224   8.998  0.1673 -0.0974 -0.8361
    3SAPS  H17R  339   0.510   7.172   8.912  1.2794 -0.8799  0.2389
    3SAPS  H17S  340   0.511   7.325   8.991 -0.3891  0.3329  1.2712
    3SAPS  C218  341   0.308   7.248   8.966 -0.1821 -0.3290  0.0048
    3SAPS  H18R  342   0.261   7.296   9.053  0.7694 -0.1322  0.4169
    3SAPS  H18S  343   0.264   7.150   8.937  1.2440 -0.3436 -2.3035
    3SAPS  C219  344   0.294   7.339   8.840  0.5838  0.0654  0.2751
    3SAPS  H19R  345   0.356   7.430   8.847 -0.0926  0.4677  1.0151
    3SAPS  H19S  346   0.193   7.386   8.842  0.1132 -0.8560 -0.8140
    3SAPS  C220  347   0.328   7.269   8.706 -0.4787  0.0600 -1.2885
    3SAPS  H20R  348   0.316   7.342   8.624 -2.1952  1.0396 -0.2056
    3SAPS  H20S  349   0.249   7.195   8.681 -1.0236  0.3949 -0.5653
    3SAPS  H20T  350   0.432   7.229   8.709 -0.4988  0.0909  0.4530
    3SAPS   C33  351   0.192   6.441  10.396  0.2485 -0.5587  0.2308
    3SAPS   H3X  352   0.173   6.387  10.491  2.0730 -0.6297  0.5663
    3SAPS   H3Y  353   0.274   6.514  10.412 -0.3034  0.5263 -1.6599
    3SAPS   C34  354   0.236   6.349  10.289 -0.4343 -0.3063  0.5199
    3SAPS   H4X  355   0.153   6.279  10.266 -0.6746  0.3819 -0.7406
    3SAPS   H4Y  356   0.313   6.286  10.340 -1.7924 -0.9259  1.8381
    3SAPS   C35  357   0.275   6.417  10.155 -0.4743  0.3332  0.1101
    3SAPS   H5X  358   0.361   6.486  10.171 -1.2939  0.8172  2.5703
    3SAPS   H5Y  359   0.195   6.478  10.108  0.3344 -0.0344 -1.8148
    3SAPS   C36  360   0.311   6.311  10.049  0.0699 -0.4260 -0.2115
    3SAPS   H6X  361   0.233   6.233  10.043  0.7040 -1.0802 -0.1024
    3SAPS   H6Y  362   0.406   6.264  10.084 -0.9922 -0.5380  2.6410
    3SAPS   C37  363   0.312   6.370   9.906  0.2438 -0.5135 -0.7891
    3SAPS   H7X  364   0.400   6.435   9.884  0.4417 -0.9842 -1.4273
    3SAPS   H7Y  365   0.223   6.437   9.898  0.3072 -0.2630  0.5425
    3SAPS   C38  366   0.307   6.264   9.793 -0.0068  0.1858 -0.0863
    3SAPS   H8X  367   0.210   6.210   9.792 -0.0985  0.3529 -1.4420
    3SAPS   H8Y  368   0.388   6.191   9.813 -1.0970 -1.9666 -3.0580
    3SAPS   C39  369   0.338   6.308   9.642  0.0540 -0.5863  0.2596
    3SAPS   H9X  370   0.365   6.222   9.578 -0.8499  1.0826 -2.4924
    3SAPS   H9Y  371   0.427   6.375   9.644  0.3676 -1.0112  0.5386
    3SAPS  C310  372   0.209   6.371   9.569 -0.3485 -0.4764  0.4798
    3SAPS  H10X  373   0.175   6.459   9.628  4.4052  0.5267  1.9080
    3SAPS  H10Y  374   0.130   6.294   9.556 -0.7745  0.0820 -0.3006
    3SAPS  C311  375   0.231   6.428   9.428  0.2982  0.2578  0.0249
    3SAPS  H11X  376   0.248   6.345   9.355 -2.9578 -1.0345  0.6414
    3SAPS  H11Y  377   0.327   6.483   9.417  1.0592 -1.0625 -0.0910
    3SAPS  C312  378   0.104   6.504   9.388 -0.1923  0.5752 -0.0843
    3SAPS  H12X  379   0.084   6.596   9.447 -1.8284  0.3941 -0.3392
    3SAPS  H12Y  380   0.015   6.440   9.404 -1.1808  1.5331 -1.6354
    3SAPS  C313  381   0.092   6.528   9.235  0.8920  0.0409  0.0078
    3SAPS  H13X  382  -0.015   6.543   9.207  1.0646 -2.5145 -2.2429
    3SAPS  H13Y  383   0.137   6.436   9.191  1.4625  0.0426  0.5845
    3SAPS  C314  384   0.172   6.646   9.195  0.0402  0.0474 -0.5880
    3SAPS  H14X  385   0.281   6.629   9.211 -0.1749  1.0656  2.0555
    3SAPS  H14Y  386   0.139   6.732   9.256  0.3972 -0.2968  0.0976
    3SAPS  C315  387   0.145   6.658   9.044 -0.8117 -0.4456 -0.0875
    3SAPS  H15X  388   0.039   6.631   9.026 -0.3814 -0.3640 -3.1112
    3SAPS  H15Y  389   0.211   6.588   8.988 -2.5997 -2.2460  0.0075
    3SAPS  C316  390   0.152   6.805   8.995 -0.3571 -0.0493  0.2543
    3SAPS  H16X  391   0.254   6.845   8.975 -0.4840 -0.1910 -0.7205
    3SAPS  H16Y  392   0.103   6.868   9.072 -1.0625  0.9641 -1.0044
    3SAPS  C317  393   0.074   6.812   8.860  0.9744  0.6450 -0.0917
    3SAPS  H17X  394  -0.032   6.780   8.865  0.7751  1.1605 -0.9311
    3SAPS  H17Y  395   0.138   6.757   8.788  0.6247 -0.8206  0.6872
    3SAPS  C318  396   0.077   6.956   8.810  0.1701 -0.3476  0.6689
    3SAPS  H18X  397   0.044   6.972   8.705  3.3564 -0.1738 -0.3892
    3SAPS  H18Y  398   0.187   6.972   8.807  0.2158 -0.6638  0.5745
    3SAPS  H18Z  399   0.034   7.028   8.882  0.0931  1.3335 -1.0083
    4SAPS     N  400   2.912   0.447  11.053  0.4472  1.4076  0.5766
    4SAPS   HN1  401   2.850   0.377  11.006  2.2769 -0.2880  0.6289
    4SAPS   HN2  402   2.962   0.503  10.981 -1.1914  0.5456 -1.2794
    4SAPS   HN3  403   2.978   0.400  11.118  0.2115  0.2213 -0.0450
    4SAPS   C12  404   2.838   0.526  11.146 -0.3817 -0.0111  0.6451
    4SAPS  H12A  405   2.741   0.486  11.171 -1.5200  2.1006 -0.2642
    4SAPS   C13  406   2.918   0.544  11.273 -0.2107 -0.1147  0.4037
    4SAPS  O13A  407   3.025   0.486  11.293 -0.2027 -0.2477  0.3639
    4SAPS  O13B  408   2.868   0.613  11.370 -0.2455  0.6084  0.0135
    4SAPS   C11  409   2.810   0.662  11.075  0.9642 -0.3496  0.0366
    4SAPS  H11A  410   2.909   0.704  11.048  0.6995 -1.7553 -3.3749
    4SAPS  H11B  411   2.763   0.730  11.149 -2.3498  0.1970 -2.4475
    4SAPS     P  412   2.706   0.761  10.866  0.2301 -0.0921 -0.4822
    4SAPS   O13  413   2.571   0.813  10.882 -0.2641 -0.6012  0.7805
    4SAPS   O14  414   2.818   0.854  10.884  0.3075 -0.7869 -0.1310
    4SAPS   O12  415   2.725   0.641  10.964  0.7766 -0.1348 -0.1179
    4SAPS   O11  416   2.713   0.694  10.722 -0.1346  0.8677  0.0319
    4SAPS    C1  417   2.687   0.547  10.714 -0.5639 -0.4411  0.5358
    4SAPS    HA  418   2.769   0.483  10.755 -0.7353  0.0186  1.6118
    4SAPS    HB  419   2.597   0.515  10.770 -1.7278 -1.2848 -1.7339
    4SAPS    C2  420   2.653   0.496  10.575  0.8107  0.3802 -0.5866
    4SAPS    HS  421   2.613   0.393  10.586  0.7872  0.2383 -1.9333
    4SAPS   O21  422   2.767   0.504  10.493 -0.0982  0.0356  0.0954
    4SAPS   C21  423   2.850   0.405  10.492 -0.0366 -0.2798 -0.1744
    4SAPS   O22  424   2.842   0.300  10.556  0.3256  0.0493 -0.4738
    4SAPS   C22  425   2.970   0.443  10.406  0.3771  0.1667 -0.3127
    4SAPS   H2R  426   2.986   0.552  10.421  2.1032  0.1966 -2.1414
    4SAPS   H2S  427   3.059   0.387  10.443 -1.1274 -0.1825  2.9289
    4SAPS    C3  428   2.534   0.583  10.520 -0.5024  0.0798  0.2602
    4SAPS    HX  429   2.562   0.690  10.530  1.3888 -0.2807 -1.0173
    4SAPS    HY  430   2.446   0.575  10.588 -0.3555 -1.1509  0.3161
    4SAPS   O31  431   2.485   0.550  10.381 -0.3661  0.5210  0.6418
    4SAPS   C31  432   2.534   0.621  10.282  0.3364  0.2388  0.0256
    4SAPS   O32  433   2.623   0.699  10.293  0.3901 -0.3689 -0.4844
    4SAPS   C32  434   2.458   0.579  10.155  0.0374 -0.0025  0.1979
    4SAPS   H2X  435   2.350   0.605  10.154 -0.2675 -1.2285 -1.4882
    4SAPS   H2Y  436   2.457   0.468  10.151 -0.5695  0.0004  0.2823
    4SAPS   C23  437   2.950   0.413  10.259  0.3482 -0.5609 -0.5241
    4SAPS   H3R  438   3.036   0.454  10.203  2.2255 -0.8638  2.0122
    4SAPS   H3S  439   2.857   0.457  10.217  0.6267  0.1010 -0.4473
    4SAPS   C24  440   2.952   0.264  10.238 -0.5382 -0.1429 -0.3688
    4SAPS   H4R  441   2.850   0.220  10.249 -1.4053  2.0551  0.7376
    4SAPS   H4S  442   3.020   0.210  10.308 -0.4427 -1.2662 -1.3015
    4SAPS   C25  443   3.006   0.222  10.106  0.0267  0.4768  0.1368
    4SAPS   H5R  444   3.111   0.187  10.109  0.9001  3.0707  0.9192
    4SAPS   C26  445   2.938   0.219   9.980 -0.2428 -0.2400 -0.1807
    4SAPS   H6R  446   2.984   0.184   9.887 -2.1725  0.1079 -1.2989
    4SAPS   C27  447   2.799   0.262   9.962  0.0787  0.1703  0.0033
    4SAPS   H7R  448   2.756   0.293  10.060 -0.1301 -1.6662  0.5067
    4SAPS   H7S  449   2.726   0.189   9.925 -2.4952  2.4736  0.3863
    4SAPS   C28  450   2.795   0.385   9.873 -0.7237  0.8615 -0.6886
    4SAPS   H8R  451   2.780   0.480   9.927 -1.5077  1.2253 -1.5155
    4SAPS   C29  452   2.811   0.374   9.742 -0.1924 -0.1472  0.2884
    4SAPS   H9R  453   2.800   0.467   9.684 -2.9220 -0.3800  0.3959
    4SAPS  C210  454   2.830   0.250   9.653  0.3247  0.6751 -0.0810
    4SAPS  H10R  455   2.827   0.159   9.716  2.7370  0.9133  0.4276
    4SAPS  H10S  456   2.926   0.254   9.598  0.3985 -0.6915 -0.0664
    4SAPS  C211  457   2.714   0.243   9.563  0.1695  0.1115 -0.1932
    4SAPS  H11R  458   2.611   0.256   9.598 -0.0632 -0.2476 -0.7361
    4SAPS  C212  459   2.726   0.213   9.435  0.0380 -0.2097  0.6952
    4SAPS  H12R  460   2.634   0.219   9.374  0.2951  0.8657  0.3893
    4SAPS  C213  461   2.848   0.178   9.362 -0.0721  0.1183  0.4491
    4SAPS  H13R  462   2.822   0.083   9.311 -2.2709 -0.0955  1.9147
    4SAPS  H13S  463   2.935   0.148   9.425  1.5367 -0.7540 -2.1058
    4SAPS  C214  464   2.894   0.278   9.257 -0.2501  0.2091 -0.2994
    4SAPS  H14R  465   2.980   0.340   9.288  0.1060 -0.7513  0.6576
    4SAPS  C215  466   2.856   0.294   9.131 -0.5770  0.8487 -0.2782
    4SAPS  H15R  467   2.902   0.380   9.080  1.5647  0.5349  1.0327
    4SAPS  C216  468   2.750   0.219   9.050 -0.3770  0.3694 -0.5737
    4SAPS  H16R  469   2.667   0.290   9.029 -1.3944 -0.0802  1.7960
    4SAPS  H16S  470   2.710   0.141   9.118  0.5792  0.1469 -0.2575
    4SAPS  C217  471   2.808   0.148   8.926  0.3685  0.1974 -0.3822
    4SAPS  H17R  472   2.721   0.100   8.876  0.6126 -0.4033 -0.2460
    4SAPS  H17S  473   2.876   0.065   8.958  0.7605 -0.2796 -2.3995
    4SAPS  C218  474   2.880   0.240   8.828 -0.5027  0.2279 -0.2110
    4SAPS  H18R  475   2.973   0.283   8.872  1.0729 -2.2198 -1.0443
    4SAPS  H18S  476   2.800   0.312   8.800  0.9801  1.7135 -0.7427
    4SAPS  C219  477   2.925   0.157   8.716  0.6632  0.7770  0.0490
    4SAPS  H19R  478   2.836   0.098   8.683  1.2607 -0.2873  0.3298
    4SAPS  H19S  479   3.003   0.083   8.743  0.2503 -0.5357 -2.2563
    4SAPS  C220  480   2.978   0.238   8.597 -0.6234 -0.8027 -0.5819
    4SAPS  H20R  481   2.985   0.162   8.517 -2.1082 -1.1724 -0.3810
    4SAPS  H20S  482   3.076   0.283   8.624 -1.8641  1.4680  0.3253
    4SAPS  H20T  483   2.905   0.317   8.570 -1.2390 -1.8807 -2.1335
    4SAPS   C33  484   2.519   0.631  10.028  0.1345 -0.5011 -0.8735
    4SAPS   H3X  485   2.615   0.581  10.002 -1.0644 -2.2748 -2.0610
    4SAPS   H3Y  486   2.534   0.740  10.037 -3.5225  0.0849 -1.3934
    4SAPS   C34  487   2.423   0.599   9.910 -0.7497  0.3800  0.0755
    4SAPS   H4X  488   2.314   0.615   9.925 -1.5028 -2.1060 -2.2488
    4SAPS   H4Y  489   2.424   0.488   9.908  0.7940  0.4005 -1.5657
    4SAPS   C35  490   2.473   0.644   9.764  0.8345 -0.2908 -0.2636
    4SAPS   H5X  491   2.584   0.639   9.758  0.7389 -0.5418 -2.0279
    4SAPS   H5Y  492   2.434   0.747   9.760  0.0164 -0.4938  1.7244
    4SAPS   C36  493   2.416   0.556   9.645 -0.1974  0.3172  0.0847
    4SAPS   H6X  494   2.309   0.534   9.667 -0.6112  0.7185 -1.4119
    4SAPS   H6Y  495   2.476   0.463   9.647  0.3433  0.6619  3.6952
    4SAPS   C37  496   2.402   0.622   9.502 -0.9999  0.4666  0.0540
    4SAPS   H7X  497   2.489   0.691   9.500  1.8369 -2.9956 -0.8160
    4SAPS   H7Y  498   2.312   0.688   9.502 -0.3299  1.3968  0.1695
    4SAPS   C38  499   2.413   0.535   9.375  0.6366 -0.3437 -0.2028
    4SAPS   H8X  500   2.324   0.469   9.363  0.0582  0.4675 -0.3780
    4SAPS   H8Y  501   2.491   0.456   9.383  0.8379 -0.2907 -1.4748
    4SAPS   C39  502   2.429   0.621   9.246 -0.1768  0.2320 -0.0790
    4SAPS   H9X  503   2.500   0.701   9.279 -2.3450  2.4456 -0.5898
    4SAPS   H9Y  504   2.328   0.659   9.218 -0.9451 -1.0354  0.9185
    4SAPS  C310  505   2.491   0.530   9.138 -0.3765 -0.5389 -1.1761
    4SAPS  H10X  506   2.452   0.425   9.138 -0.6540 -0.4402 -0.3850
    4SAPS  H10Y  507   2.599   0.526   9.164 -0.4136 -0.9579 -1.0699
    4SAPS  C311  508   2.482   0.597   9.003 -0.0565  0.0524 -0.5052
    4SAPS  H11X  509   2.474   0.707   9.017 -0.0991 -0.0791  0.5843
    4SAPS  H11Y  510   2.391   0.558   8.954  0.8283 -2.0678 -0.4936
    4SAPS  C312  511   2.601   0.566   8.907 -0.1959 -0.8394 -0.3815
    4SAPS  H12X  512   2.623   0.459   8.892 -1.1936 -1.0985 -0.0710
    4SAPS  H12Y  513   2.688   0.622   8.948  1.1595 -1.7120 -2.0283
    4SAPS  C313  514   2.577   0.620   8.771 -0.0857  0.8827 -0.3186
    4SAPS  H13X  515   2.509   0.708   8.771 -0.5727  0.5065 -0.1074
    4SAPS  H13Y  516   2.521   0.545   8.711  2.1673 -0.6549 -0.5529
    4SAPS  C314  517   2.715   0.660   8.708  0.0483  0.1068 -0.1054
    4SAPS  H14X  518   2.790   0.582   8.732  1.4196  1.5080  0.3039
    4SAPS  H14Y  519   2.753   0.755   8.753  2.0584 -1.0738  0.7657
    4SAPS  C315  520   2.702   0.671   8.557  0.0929  0.3556 -0.2621
    4SAPS  H15X  521   2.682   0.775   8.524  0.4380  0.0763 -1.3940
    4SAPS  H15Y  522   2.620   0.602   8.528  0.6244 -0.8799  1.0837
    4SAPS  C316  523   2.831   0.639   8.487 -0.3419 -0.2187  0.1515
    4SAPS  H16X  524   2.856   0.535   8.517 -0.5800  0.4026  2.6653
    4SAPS  H16Y  525   2.920   0.695   8.523 -0.4597  0.4031 -0.5156
    4SAPS  C317  526   2.832   0.664   8.335 -0.0872  0.2650  0.4020
    4SAPS  H17X  527   2.809   0.772   8.320  1.2785  0.7411  1.6472
    4SAPS  H17Y  528   2.756   0.605   8.280 -0.0217 -0.1904  0.7982
    4SAPS  C318  529   2.974   0.656   8.273 -0.3614  0.2490 -0.2977
    4SAPS  H18X  530   2.959   0.679   8.165 -0.1540 -2.0111 -0.8501
    4SAPS  H18Y  531   3.021   0.555   8.270  1.0535  0.8668  0.5372
    4SAPS  H18Z  532   3.041   0.721   8.333 -0.3750  0.1220 -0.1458
    5SAPS     N  533   5.793   6.351  11.225 -0.6589 -0.2712  0.0544
    5SAPS   HN1  534   5.856   6.433  11.239 -2.0146  0.6199  1.0694
    5SAPS   HN2  535   5.751   6.345  11.129  0.0429  0.9789 -0.3501
    5SAPS   HN3  536   5.727   6.345  11.304 -1.3919  0.1327 -0.5146
    5SAPS   C12  537   5.878   6.227  11.230 -0.0551 -0.7657  0.2705
    5SAPS  H12A  538   5.934   6.231  11.323  2.2255 -1.6543 -0.9990
    5SAPS   C13  539   5.789   6.099  11.223 -0.7094  0.5405  0.4235
    5SAPS  O13A  540   5.668   6.109  11.199  0.5553  0.1598 -0.3744
    5SAPS  O13B  541   5.846   5.986  11.224  0.1191 -0.3376  0.0412
    5SAPS   C11  542   5.973   6.228  11.111  0.6530  0.1042 -0.8957
    5SAPS  H11A  543   5.900   6.221  11.027 -2.1483  1.3467  1.3286
    5SAPS  H11B  544   6.043   6.142  11.109  0.5116 -0.0712  0.8572
    5SAPS     P  545   6.163   6.373  10.995 -0.4951 -0.0404  0.5121
    5SAPS   O13  546   6.206   6.517  11.015  0.4167 -0.0449 -0.0067
    5SAPS   O14  547   6.265   6.270  11.008  0.1213  0.2751 -0.4365
    5SAPS   O12  548   6.042   6.351  11.086  0.2066 -0.0054 -0.1741
    5SAPS   O11  549   6.093   6.369  10.854 -0.9254 -0.2871 -0.3571
    5SAPS    C1  550   6.096   6.253  10.772  0.0938  0.3291  0.4411
    5SAPS    HA  551   6.109   6.158  10.828  1.9541  0.3272  0.0341
    5SAPS    HB  552   6.010   6.250  10.701  0.4010 -2.9314  0.1184
    5SAPS    C2  553   6.211   6.249  10.668  0.1370 -0.4161  0.0268
    5SAPS    HS  554   6.304   6.277  10.723 -1.2471  3.5605  0.5529
    5SAPS   O21  555   6.194   6.344  10.562  0.5934  0.0042  0.0030
    5SAPS   C21  556   6.299   6.390  10.492 -0.4885  0.8494 -0.0080
    5SAPS   O22  557   6.413   6.362  10.516  0.1089  0.0177  0.3475
    5SAPS   C22  558   6.252   6.479  10.376  0.2232 -0.6753  0.4238
    5SAPS   H2R  559   6.173   6.425  10.320 -1.1537 -0.2864  1.9420
    5SAPS   H2S  560   6.219   6.577  10.418 -0.9532 -0.9774  0.2256
    5SAPS    C3  561   6.232   6.111  10.609  0.8688 -0.2566  0.2995
    5SAPS    HX  562   6.128   6.082  10.582  0.2188  1.8886  0.3325
    5SAPS    HY  563   6.263   6.037  10.686 -0.1307 -0.7744  0.2180
    5SAPS   O31  564   6.304   6.098  10.491 -0.6997 -0.1313  0.1473
    5SAPS   C31  565   6.434   6.051  10.503 -0.6198  0.1131  0.4508
    5SAPS   O32  566   6.489   6.013  10.604  0.0967  0.6155 -0.6978
    5SAPS   C32  567   6.487   6.044  10.357 -0.1213 -0.1791  0.0297
    5SAPS   H2X  568   6.446   6.137  10.311  1.1712  0.9804  1.1756
    5SAPS   H2Y  569   6.430   5.964  10.306  0.1961  0.3961 -1.2322
    5SAPS   C23  570   6.380   6.505  10.288  0.1738  0.5719 -0.1525
    5SAPS   H3R  571   6.414   6.402  10.265  0.5137 -0.0903  3.0339
    5SAPS   H3S  572   6.466   6.557  10.335  0.6335  0.2185 -0.6057
    5SAPS   C24  573   6.334   6.575  10.161 -0.8037 -0.1624  0.2529
    5SAPS   H4R  574   6.243   6.530  10.118 -1.4101  0.3026  1.0340
    5SAPS   H4S  575   6.411   6.564  10.082  0.4904  1.4531  1.2440
    5SAPS   C25  576   6.308   6.721  10.174 -0.2592 -0.4027 -0.9370
    5SAPS   H5R  577   6.205   6.758  10.186 -0.8650 -2.0903 -0.8562
    5SAPS   C26  578   6.392   6.825  10.160  0.3890  0.2945 -0.1441
    5SAPS   H6R  579   6.350   6.925  10.178 -2.8152 -0.7528 -1.4248
    5SAPS   C27  580   6.535   6.813  10.132 -0.6618 -0.5894 -0.0029
    5SAPS   H7R  581   6.545   6.771  10.030  2.4614 -1.2116  0.4986
    5SAPS   H7S  582   6.581   6.741  10.204 -1.0766  0.7520  1.6505
    5SAPS   C28  583   6.613   6.940  10.120 -0.0762  0.4927  0.0926
    5SAPS   H8R  584   6.686   6.951  10.202 -1.9005  0.4111  1.7493
    5SAPS   C29  585   6.629   7.027  10.018 -0.2659 -0.0987 -0.2086
    5SAPS   H9R  586   6.697   7.108  10.045  1.3338 -1.3972 -0.2409
    5SAPS  C210  587   6.575   7.033   9.881  0.2858  0.0979 -0.4102
    5SAPS  H10R  588   6.563   6.927   9.852  0.3708 -0.4514  1.4660
    5SAPS  H10S  589   6.650   7.081   9.814 -1.5592  0.8688 -1.9749
    5SAPS  C211  590   6.440   7.090   9.865  0.5301 -0.7894  1.1093
    5SAPS  H11R  591   6.375   7.088   9.954 -0.5738 -1.3051  0.3124
    5SAPS  C212  592   6.401   7.161   9.757  0.6028 -0.3922  0.3746
    5SAPS  H12R  593   6.298   7.199   9.751  0.8476 -0.0801 -3.3694
    5SAPS  C213  594   6.489   7.174   9.638  0.0122  0.0007  0.1458
    5SAPS  H13R  595   6.499   7.068   9.605 -0.1832  0.7474 -2.4655
    5SAPS  H13S  596   6.591   7.207   9.667  0.9107 -2.7904  0.2557
    5SAPS  C214  597   6.441   7.266   9.524 -0.8791  0.0971 -0.4241
    5SAPS  H14R  598   6.468   7.371   9.544 -1.2430  0.0643  0.2453
    5SAPS  C215  599   6.375   7.235   9.411 -0.3236  0.0170  0.2134
    5SAPS  H15R  600   6.358   7.323   9.346  3.9512  0.7825 -0.0423
    5SAPS  C216  601   6.323   7.102   9.366  0.2651  0.0664 -0.8243
    5SAPS  H16R  602   6.215   7.123   9.354 -0.0988  1.0195  3.2780
    5SAPS  H16S  603   6.325   7.034   9.454  0.5104  3.6460  2.0618
    5SAPS  C217  604   6.368   7.037   9.238  0.0514  0.5225  0.0554
    5SAPS  H17R  605   6.367   7.112   9.156  1.3578  0.5751  0.0749
    5SAPS  H17S  606   6.293   6.965   9.200  1.4921 -1.3555  0.7054
    5SAPS  C218  607   6.501   6.968   9.263 -0.0422 -0.0716 -0.6063
    5SAPS  H18R  608   6.588   7.037   9.257 -0.4989  0.6224  0.7075
    5SAPS  H18S  609   6.503   6.910   9.358 -2.9850  0.5358 -0.1140
    5SAPS  C219  610   6.528   6.859   9.156 -0.0379 -0.1190  0.0687
    5SAPS  H19R  611   6.512   6.908   9.058 -1.1759  0.3271  0.4783
    5SAPS  H19S  612   6.462   6.770   9.170 -0.1311 -0.4156 -2.0831
    5SAPS  C220  613   6.668   6.814   9.157  0.2777 -0.4202 -0.7890
    5SAPS  H20R  614   6.734   6.903   9.159 -0.5767  0.2209  0.7488
    5SAPS  H20S  615   6.681   6.776   9.054  0.4628  2.4758 -1.8756
    5SAPS  H20T  616   6.695   6.731   9.226 -1.5516 -0.2868  0.1329
    5SAPS   C33  617   6.638   6.036  10.342  0.1156 -0.3932  0.9900
    5SAPS   H3X  618   6.682   5.938  10.370  1.2774 -0.6201 -1.4176
    5SAPS   H3Y  619   6.697   6.112  10.397  0.9829 -2.1482  2.5409
    5SAPS   C34  620   6.682   6.053  10.197  0.1046 -0.3258  0.4689
    5SAPS   H4X  621   6.636   5.976  10.132 -2.3315  1.1243  0.4107
    5SAPS   H4Y  622   6.791   6.047  10.177  0.1097 -1.5821  0.8149
    5SAPS   C35  623   6.645   6.195  10.136 -0.4103  0.2082  0.3317
    5SAPS   H5X  624   6.676   6.268  10.214 -3.6187  0.9863  0.9426
    5SAPS   H5Y  625   6.535   6.202  10.125 -0.4157 -0.0115  0.2392
    5SAPS   C36  626   6.707   6.223  10.000  0.2881 -0.1283 -0.3065
    5SAPS   H6X  627   6.689   6.161   9.910 -0.0806  1.0477 -1.0579
    5SAPS   H6Y  628   6.817   6.228  10.015  0.3218 -0.1876 -0.5248
    5SAPS   C37  629   6.678   6.365   9.946  0.0262  0.2456 -0.8500
    5SAPS   H7X  630   6.740   6.443   9.995  0.0109  0.6187 -1.4133
    5SAPS   H7Y  631   6.574   6.387   9.979  0.7118 -0.7711  2.0960
    5SAPS   C38  632   6.702   6.401   9.802 -0.2623 -0.9517 -0.9696
    5SAPS   H8X  633   6.662   6.318   9.740 -2.1996  0.7721 -2.0932
    5SAPS   H8Y  634   6.810   6.411   9.777  0.1286  1.0823  1.2928
    5SAPS   C39  635   6.630   6.531   9.767  0.3728 -0.6229 -0.5904
    5SAPS   H9X  636   6.677   6.617   9.818 -0.4217 -0.3975 -0.2276
    5SAPS   H9Y  637   6.529   6.518   9.811 -0.5016  0.4310 -2.2451
    5SAPS  C310  638   6.633   6.564   9.616  0.2359 -0.3377  0.2067
    5SAPS  H10X  639   6.601   6.475   9.557 -1.6877  0.4187  0.0853
    5SAPS  H10Y  640   6.740   6.587   9.597  0.1159 -0.9806 -1.3068
    5SAPS  C311  641   6.537   6.671   9.569  0.0499 -0.2493  0.5391
    5SAPS  H11X  642   6.595   6.740   9.503  0.6383  2.0760  3.3590
    5SAPS  H11Y  643   6.515   6.746   9.648 -0.0838  0.2121  0.0689
    5SAPS  C312  644   6.422   6.617   9.482  0.4326  0.2791  0.3380
    5SAPS  H12X  645   6.463   6.537   9.417 -1.9458  0.0382 -0.9084
    5SAPS  H12Y  646   6.373   6.699   9.426 -1.4276 -1.3626 -0.4610
    5SAPS  C313  647   6.316   6.555   9.560  0.5181 -0.0476  0.5866
    5SAPS  H13X  648   6.296   6.613   9.652 -1.8765 -1.3450  0.9211
    5SAPS  H13Y  649   6.347   6.451   9.586  0.1670  0.4535  3.1122
    5SAPS  C314  650   6.186   6.555   9.489  0.0835 -0.1543 -0.4645
    5SAPS  H14X  651   6.163   6.661   9.467 -1.0483 -0.8340 -2.6698
    5SAPS  H14Y  652   6.121   6.521   9.573 -0.9471  0.9291 -0.8230
    5SAPS  C315  653   6.149   6.461   9.366 -0.2591 -0.9589  0.6945
    5SAPS  H15X  654   6.049   6.415   9.381 -0.6150 -0.2611  0.4433
    5SAPS  H15Y  655   6.234   6.389   9.357 -0.7632 -1.3777 -0.9880
    5SAPS  C316  656   6.152   6.527   9.227  0.8131  0.5102 -0.3722
    5SAPS  H16X  657   6.245   6.588   9.229  0.1994  1.4527  0.6271
    5SAPS  H16Y  658   6.069   6.600   9.214  1.0306  0.9013  0.3870
    5SAPS  C317  659   6.154   6.438   9.101  0.3513 -0.1601  0.2842
    5SAPS  H17X  660   6.067   6.368   9.106  2.6033 -2.9716  1.4967
    5SAPS  H17Y  661   6.232   6.359   9.098  0.4262 -0.0026 -2.2023
    5SAPS  C318  662   6.166   6.505   8.965  0.9657 -0.1799 -0.2859
    5SAPS  H18X  663   6.258   6.563   8.944  1.2602  0.1169  1.7207
    5SAPS  H18Y  664   6.076   6.570   8.953  2.2743  1.6941 -0.3117
    5SAPS  H18Z  665   6.157   6.436   8.878 -0.8335  0.9051 -1.0047
    6SAPS     N  666   5.530   6.037  10.982 -0.0495  0.3167 -0.0841
    6SAPS   HN1  667   5.597   6.048  10.903 -0.8405  1.3465 -0.6193
    6SAPS   HN2  668   5.460   6.110  10.959  1.1791  0.9074 -2.0889
    6SAPS   HN3  669   5.577   6.057  11.073  2.6312 -0.6769 -1.1840
    6SAPS   C12  670   5.464   5.911  10.981 -0.1527 -0.2938 -0.9029
    6SAPS  H12A  671   5.536   5.837  11.012 -0.8134 -1.1455 -1.3461
    6SAPS   C13  672   5.352   5.896  11.076  0.4058 -0.0517  0.3410
    6SAPS  O13A  673   5.298   6.007  11.103  0.0950 -0.0994 -0.5379
    6SAPS  O13B  674   5.295   5.786  11.096 -0.4605  0.2958 -0.1190
    6SAPS   C11  675   5.420   5.880  10.835  0.5988  0.4562  0.5171
    6SAPS  H11A  676   5.342   5.955  10.807 -0.1627  0.3010  2.1827
    6SAPS  H11B  677   5.368   5.783  10.843  1.7534 -0.4139 -2.2024
    6SAPS     P  678   5.594   5.745  10.684  0.1698 -0.0894 -0.0976
    6SAPS   O13  679   5.739   5.762  10.698 -0.0168 -0.2182  0.4634
    6SAPS   O14  680   5.533   5.631  10.744 -0.6729  0.4783 -0.3531
    6SAPS   O12  681   5.528   5.878  10.736 -0.0506 -0.1049  0.4697
    6SAPS   O11  682   5.560   5.737  10.532  0.3639 -0.2714 -0.4346
    6SAPS    C1  683   5.590   5.843  10.444 -0.2518  0.0747  0.2062
    6SAPS    HA  684   5.530   5.927  10.486 -0.7272 -0.1360 -0.0498
    6SAPS    HB  685   5.699   5.861  10.431  0.2960 -2.5740  0.8568
    6SAPS    C2  686   5.530   5.814  10.308  0.4178 -0.2460 -0.1143
    6SAPS    HS  687   5.587   5.724  10.275  0.8855  0.1208 -0.3082
    6SAPS   O21  688   5.555   5.930  10.221  0.0308 -0.4192  0.2088
    6SAPS   C21  689   5.657   5.934  10.141 -0.1651  0.5551  0.0244
    6SAPS   O22  690   5.743   5.848  10.124 -0.8595  1.0236  0.4328
    6SAPS   C22  691   5.664   6.075  10.078 -0.9355  0.0004  0.5806
    6SAPS   H2R  692   5.573   6.084  10.015 -1.3163  0.9741  1.2659
    6SAPS   H2S  693   5.665   6.151  10.159 -0.5600  2.6947 -1.8775
    6SAPS    C3  694   5.380   5.772  10.316 -0.2399  0.5281  0.6961
    6SAPS    HX  695   5.320   5.862  10.344 -0.1345  1.2417 -1.3080
    6SAPS    HY  696   5.369   5.697  10.397 -1.0479  0.3722  0.4412
    6SAPS   O31  697   5.340   5.709  10.196  0.3259  0.5053 -0.4164
    6SAPS   C31  698   5.207   5.685  10.199  0.1505 -0.2074 -0.7074
    6SAPS   O32  699   5.135   5.725  10.293 -0.0868  0.1994 -0.0624
    6SAPS   C32  700   5.157   5.604  10.085 -0.6356  0.2478 -0.6816
    6SAPS   H2X  701   5.083   5.663  10.028  1.1029  2.9415 -0.2249
    6SAPS   H2Y  702   5.092   5.527  10.131  0.4993 -0.6470 -0.5420
    6SAPS   C23  703   5.778   6.096   9.975 -0.0533 -0.4900  0.4522
    6SAPS   H3R  704   5.832   6.004   9.941  2.5112  0.9605  0.4873
    6SAPS   H3S  705   5.860   6.141  10.034  1.7471 -2.2851 -0.6012
    6SAPS   C24  706   5.749   6.190   9.858  0.1902 -0.4193  0.2139
    6SAPS   H4R  707   5.704   6.289   9.880  0.5459 -0.0594 -0.6490
    6SAPS   H4S  708   5.673   6.138   9.796  1.3570 -0.4795 -1.1836
    6SAPS   C25  709   5.875   6.239   9.789 -0.7674  0.0795 -0.4849
    6SAPS   H5R  710   5.953   6.283   9.852 -0.7841  1.2377 -1.2584
    6SAPS   C26  711   5.893   6.233   9.656 -0.2263  0.1108 -0.0035
    6SAPS   H6R  712   5.992   6.262   9.619 -0.2860 -0.3935 -0.5773
    6SAPS   C27  713   5.785   6.188   9.558 -0.4178 -0.2396 -0.8243
    6SAPS   H7R  714   5.684   6.227   9.584  1.0006  1.9711  1.5549
    6SAPS   H7S  715   5.782   6.078   9.574  0.5941 -0.3258 -1.1967
    6SAPS   C28  716   5.830   6.216   9.420  0.0960 -0.0403  0.3148
    6SAPS   H8R  717   5.917   6.155   9.391  0.4636  0.3895  0.5003
    6SAPS   C29  718   5.767   6.303   9.338  0.2140  0.0189 -0.0100
    6SAPS   H9R  719   5.812   6.327   9.241 -2.5623 -0.0490 -1.3611
    6SAPS  C210  720   5.645   6.393   9.364  0.3068  0.0855 -0.0595
    6SAPS  H10R  721   5.685   6.494   9.384  0.0300 -0.3205  2.7413
    6SAPS  H10S  722   5.605   6.392   9.468 -0.3707  1.2377 -0.3009
    6SAPS  C211  723   5.541   6.405   9.252 -0.3503  0.6525 -0.5940
    6SAPS  H11R  724   5.447   6.353   9.274 -0.5950  1.7367  0.9820
    6SAPS  C212  725   5.549   6.464   9.130  0.4408 -0.1554 -0.7798
    6SAPS  H12R  726   5.455   6.452   9.075 -0.0327 -2.8077  0.5206
    6SAPS  C213  727   5.666   6.536   9.073 -0.2282 -0.5279 -0.3260
    6SAPS  H13R  728   5.763   6.513   9.121  0.5114  1.0931 -0.9933
    6SAPS  H13S  729   5.642   6.645   9.073 -0.8452 -0.6594  0.1839
    6SAPS  C214  730   5.675   6.504   8.923  0.2501 -0.1349  0.8659
    6SAPS  H14R  731   5.758   6.434   8.907  0.1484 -0.2059  0.6467
    6SAPS  C215  732   5.610   6.558   8.818 -0.7544  0.4813 -0.2579
    6SAPS  H15R  733   5.631   6.534   8.713 -3.3968  0.2090 -0.7577
    6SAPS  C216  734   5.508   6.667   8.827 -0.6851 -0.0009  0.0749
    6SAPS  H16R  735   5.478   6.684   8.933  0.8879  1.5362  0.2947
    6SAPS  H16S  736   5.410   6.639   8.783 -1.3512  1.8968  0.2760
    6SAPS  C217  737   5.550   6.802   8.772  0.3114  0.0580 -0.4545
    6SAPS  H17R  738   5.574   6.808   8.663  0.2498 -0.2853 -0.4864
    6SAPS  H17S  739   5.650   6.821   8.817 -0.1571 -2.5285  1.8265
    6SAPS  C218  740   5.469   6.917   8.824 -0.2289  0.9226 -0.4743
    6SAPS  H18R  741   5.472   6.893   8.932  0.7316  0.0607 -0.6812
    6SAPS  H18S  742   5.364   6.918   8.788 -0.1990  2.3087 -0.5471
    6SAPS  C219  743   5.545   7.047   8.802  0.4714 -0.3476  0.0443
    6SAPS  H19R  744   5.553   7.067   8.693 -0.6388  1.1260  0.2256
    6SAPS  H19S  745   5.649   7.039   8.842  0.0240  1.3539  1.6266
    6SAPS  C220  746   5.484   7.169   8.870 -0.3614 -0.5234  0.2962
    6SAPS  H20R  747   5.518   7.269   8.835  0.7284 -1.4700 -1.4460
    6SAPS  H20S  748   5.512   7.167   8.978  1.5406 -0.3867 -0.1683
    6SAPS  H20T  749   5.373   7.174   8.865 -0.2038  1.7740 -2.0519
    6SAPS   C33  750   5.252   5.532   9.992  0.6751 -0.2547 -0.2710
    6SAPS   H3X  751   5.311   5.453  10.043 -1.5247 -1.2075  0.8799
    6SAPS   H3Y  752   5.323   5.604   9.946 -0.5378  1.5217  0.6123
    6SAPS   C34  753   5.173   5.461   9.888  0.4901  0.4030  0.0015
    6SAPS   H4X  754   5.081   5.502   9.841  1.1172  1.0632 -0.6479
    6SAPS   H4Y  755   5.144   5.367   9.940 -0.7953  0.7899 -0.0006
    6SAPS   C35  756   5.264   5.411   9.768 -0.5817  0.3556  0.1019
    6SAPS   H5X  757   5.348   5.363   9.823  1.1815  2.2311 -0.8655
    6SAPS   H5Y  758   5.303   5.504   9.721 -2.5713  2.1381  1.8537
    6SAPS   C36  759   5.197   5.315   9.671 -0.0278 -1.1627 -0.1411
    6SAPS   H6X  760   5.102   5.355   9.631 -0.4846 -1.0918  1.0055
    6SAPS   H6Y  761   5.178   5.213   9.711 -1.2660 -1.2534 -0.9243
    6SAPS   C37  762   5.288   5.291   9.555 -0.2248 -0.0337 -0.6439
    6SAPS   H7X  763   5.372   5.233   9.599 -0.1520  1.5310  1.3182
    6SAPS   H7Y  764   5.332   5.389   9.527  0.8586 -0.0663  0.9075
    6SAPS   C38  765   5.241   5.210   9.435  0.3567 -0.0837  0.1045
    6SAPS   H8X  766   5.140   5.235   9.397  1.6082  2.6917 -1.5649
    6SAPS   H8Y  767   5.236   5.108   9.478  1.2359 -1.3520 -2.6636
    6SAPS   C39  768   5.335   5.219   9.314  0.3827  0.5865  0.0563
    6SAPS   H9X  769   5.437   5.186   9.342  0.0435  0.0924  0.7358
    6SAPS   H9Y  770   5.334   5.326   9.284  1.4185  0.7848  0.7261
    6SAPS  C310  771   5.277   5.150   9.188  0.1971 -0.3940  0.8159
    6SAPS  H10X  772   5.188   5.201   9.147  0.0546 -1.8311 -0.7251
    6SAPS  H10Y  773   5.242   5.054   9.233  1.4135 -1.3871 -0.2937
    6SAPS  C311  774   5.376   5.117   9.078 -0.4405  0.3402 -0.4566
    6SAPS  H11X  775   5.338   5.031   9.018  1.0599  0.7491 -2.0249
    6SAPS  H11Y  776   5.465   5.065   9.121  0.6945  0.8069 -2.1957
    6SAPS  C312  777   5.415   5.238   8.985 -0.4199 -0.1832 -0.4433
    6SAPS  H12X  778   5.453   5.322   9.047  0.1396  0.9744 -2.3174
    6SAPS  H12Y  779   5.323   5.282   8.941 -0.7730 -1.2393 -0.7674
    6SAPS  C313  780   5.508   5.197   8.866 -0.1632  0.6112  0.1087
    6SAPS  H13X  781   5.501   5.088   8.845  2.3453  0.4844 -0.1623
    6SAPS  H13Y  782   5.615   5.201   8.894 -0.1190  1.4337 -0.1690
    6SAPS  C314  783   5.475   5.265   8.731 -0.0741  0.1098  0.6935
    6SAPS  H14X  784   5.475   5.375   8.746 -2.1993  0.3788 -0.9517
    6SAPS  H14Y  785   5.378   5.233   8.686  0.2306 -1.4126  1.0883
    6SAPS  C315  786   5.590   5.250   8.621  0.6317 -0.3529 -0.0320
    6SAPS  H15X  787   5.581   5.141   8.600  1.0893 -0.7085  1.5935
    6SAPS  H15Y  788   5.686   5.277   8.670  0.4516  0.2212 -0.0022
    6SAPS  C316  789   5.553   5.333   8.498  0.1166  0.3126  0.0331
    6SAPS  H16X  790   5.536   5.439   8.525 -0.7575 -0.2711  1.8756
    6SAPS  H16Y  791   5.454   5.294   8.466 -1.3402  2.1385  2.1450
    6SAPS  C317  792   5.656   5.311   8.392  0.2956 -0.0361  0.1407
    6SAPS  H17X  793   5.663   5.205   8.360  1.0998 -0.2043  0.8461
    6SAPS  H17Y  794   5.753   5.352   8.429  0.2005 -0.6899  1.1341
    6SAPS  C318  795   5.621   5.383   8.266  0.0916 -0.1693  0.7420
    6SAPS  H18X  796   5.518   5.360   8.231 -0.7815 -0.0169  3.1192
    6SAPS  H18Y  797   5.697   5.372   8.186 -3.0182 -0.5385 -2.2954
    6SAPS  H18Z  798   5.622   5.493   8.279  1.4584  0.0452 -0.9680
    7SAPS     N  799   1.030   0.050  10.619 -0.2270  0.4792  0.7358
    7SAPS   HN1  800   0.926   0.061  10.625 -0.2146  1.3793 -0.3730
    7SAPS   HN2  801   1.050   0.002  10.529  0.0208  1.6993  0.1209
    7SAPS   HN3  802   1.060  -0.010  10.698 -0.9847 -1.7534 -0.6255
    7SAPS   C12  803   1.101   0.182  10.612  0.1574 -0.3236 -0.1456
    7SAPS  H12A  804   1.070   0.237  10.700  0.8036  0.5188 -0.4432
    7SAPS   C13  805   1.256   0.179  10.600  0.2215 -0.4977  0.1074
    7SAPS  O13A  806   1.307   0.059  10.607  0.7068  0.5165  0.5447
    7SAPS  O13B  807   1.314   0.280  10.643 -0.7762 -0.0393 -0.5843
    7SAPS   C11  808   1.032   0.255  10.489 -0.4639 -0.3487  0.9705
    7SAPS  H11A  809   1.050   0.192  10.399 -1.5358  0.6647  0.0322
    7SAPS  H11B  810   1.080   0.348  10.452 -1.1695 -1.3174 -2.6067
    7SAPS     P  811   0.827   0.409  10.576 -0.1796  0.2933 -0.2190
    7SAPS   O13  812   0.689   0.384  10.616 -0.0361  0.3759 -0.0929
    7SAPS   O14  813   0.915   0.453  10.686 -0.2068  0.0747 -0.6668
    7SAPS   O12  814   0.894   0.276  10.507 -1.0051  0.5059 -1.0451
    7SAPS   O11  815   0.839   0.510  10.459 -0.1460 -0.6409 -0.0936
    7SAPS    C1  816   0.737   0.530  10.358 -0.6219  0.0527 -0.4626
    7SAPS    HA  817   0.653   0.458  10.362 -0.6370  0.2002  2.3174
    7SAPS    HB  818   0.683   0.624  10.381  2.6085  1.8892 -0.1075
    7SAPS    C2  819   0.795   0.530  10.215  0.9751 -0.3977  0.4907
    7SAPS    HS  820   0.866   0.615  10.210 -0.2247  0.7222  1.8554
    7SAPS   O21  821   0.685   0.547  10.122 -0.4864  0.2515  0.1316
    7SAPS   C21  822   0.708   0.599  10.008  0.0240 -0.0197 -0.2240
    7SAPS   O22  823   0.811   0.643   9.961 -0.1202 -0.3666 -1.0403
    7SAPS   C22  824   0.579   0.605   9.932  0.0345 -0.3085 -0.7267
    7SAPS   H2R  825   0.493   0.552   9.977  0.6451 -0.6186  0.1029
    7SAPS   H2S  826   0.555   0.714   9.934  1.2295  0.0211 -2.7252
    7SAPS    C3  827   0.874   0.396  10.184  0.4589 -0.2714  0.4800
    7SAPS    HX  828   0.799   0.323  10.221  0.5675 -0.4131  0.4203
    7SAPS    HY  829   0.962   0.393  10.251  1.7778  0.3197 -1.1975
    7SAPS   O31  830   0.909   0.379  10.045 -0.0433 -0.0959 -0.0214
    7SAPS   C31  831   1.041   0.376  10.018 -1.0448  0.5030  0.1200
    7SAPS   O32  832   1.125   0.363  10.104 -0.3239 -0.4883 -0.2781
    7SAPS   C32  833   1.074   0.389   9.867  0.5342 -0.0866  0.1725
    7SAPS   H2X  834   1.056   0.497   9.848 -2.2914 -1.1600 -3.9610
    7SAPS   H2Y  835   0.991   0.337   9.814 -1.0045  0.5000  1.9207
    7SAPS   C23  836   0.596   0.554   9.782 -0.4543 -0.1874 -0.5250
    7SAPS   H3R  837   0.681   0.611   9.739  1.2785 -0.8639  1.8962
    7SAPS   H3S  838   0.506   0.584   9.724 -1.9861 -2.0353  0.8290
    7SAPS   C24  839   0.625   0.403   9.765  0.6530  0.2299 -0.8740
    7SAPS   H4R  840   0.554   0.341   9.825  2.8371 -0.0112  1.5511
    7SAPS   H4S  841   0.725   0.376   9.805  0.6635 -1.0506 -1.7210
    7SAPS   C25  842   0.610   0.368   9.617  0.1035  0.2635  0.3731
    7SAPS   H5R  843   0.511   0.336   9.582  1.1465 -0.6662 -1.8560
    7SAPS   C26  844   0.696   0.400   9.519 -0.3327 -0.6060  0.1058
    7SAPS   H6R  845   0.678   0.362   9.417 -1.5531  1.3421 -0.4195
    7SAPS   C27  846   0.833   0.461   9.537 -0.2363  0.5052  0.4639
    7SAPS   H7R  847   0.854   0.493   9.641 -1.0849  1.5478  0.3302
    7SAPS   H7S  848   0.838   0.553   9.474  1.4020 -0.3544 -0.6796
    7SAPS   C28  849   0.942   0.364   9.488  0.0446 -0.3670  0.7281
    7SAPS   H8R  850   0.985   0.312   9.574 -0.4449 -0.0502  1.1670
    7SAPS   C29  851   0.983   0.340   9.360 -0.1313 -0.8226  0.3794
    7SAPS   H9R  852   1.057   0.260   9.347 -1.2354 -2.2148  2.3506
    7SAPS  C210  853   0.939   0.402   9.232 -0.2640  0.2067  0.3416
    7SAPS  H10R  854   0.831   0.420   9.245 -0.2004  0.7416  0.1206
    7SAPS  H10S  855   0.942   0.323   9.154 -4.5554  0.9674 -0.6666
    7SAPS  C211  856   1.018   0.530   9.198  0.3818 -0.1336  0.4734
    7SAPS  H11R  857   1.060   0.591   9.279  1.1437  0.7748 -0.5851
    7SAPS  C212  858   1.018   0.585   9.076 -0.5305  0.0926 -0.8654
    7SAPS  H12R  859   1.083   0.674   9.068 -0.2631  0.1047  1.1178
    7SAPS  C213  860   0.942   0.546   8.949  0.0055  0.0413  0.2797
    7SAPS  H13R  861   0.953   0.438   8.926 -0.6901 -0.0196  0.2205
    7SAPS  H13S  862   1.004   0.596   8.872  1.1982 -1.1575  0.4450
    7SAPS  C214  863   0.798   0.590   8.939  0.2812  0.4600  0.0580
    7SAPS  H14R  864   0.747   0.606   9.036  1.1410 -1.4832  0.8739
    7SAPS  C215  865   0.727   0.600   8.826 -0.4086 -0.0231  0.3814
    7SAPS  H15R  866   0.621   0.630   8.824 -0.6291 -0.8239 -2.3302
    7SAPS  C216  867   0.783   0.580   8.691 -0.4617 -0.3690 -0.3540
    7SAPS  H16R  868   0.757   0.480   8.649 -2.9846 -0.1653  0.6018
    7SAPS  H16S  869   0.893   0.589   8.685 -0.6862  2.8982 -0.3202
    7SAPS  C217  870   0.732   0.685   8.588  0.7130  0.6588 -0.1363
    7SAPS  H17R  871   0.788   0.650   8.498 -0.5238 -1.0360 -0.2703
    7SAPS  H17S  872   0.755   0.791   8.611  0.1899  1.0795 -1.5357
    7SAPS  C218  873   0.585   0.672   8.549  0.5927  0.3199  0.1212
    7SAPS  H18R  874   0.519   0.738   8.609 -0.1681 -2.3782  2.3522
    7SAPS  H18S  875   0.554   0.569   8.576  4.0921 -0.8183  0.0267
    7SAPS  C219  876   0.544   0.688   8.399  0.0152  0.3210  0.3524
    7SAPS  H19R  877   0.599   0.621   8.330 -0.0164  1.1725 -0.5176
    7SAPS  H19S  878   0.572   0.794   8.382  2.9771 -0.6313 -1.0736
    7SAPS  C220  879   0.395   0.659   8.368  0.6179  0.4949 -0.4944
    7SAPS  H20R  880   0.336   0.752   8.383  0.0058  0.4877 -2.6905
    7SAPS  H20S  881   0.359   0.585   8.442  0.4979  0.7165 -0.3307
    7SAPS  H20T  882   0.384   0.620   8.264  2.5388 -0.0969 -0.4904
    7SAPS   C33  883   1.211   0.331   9.827  0.7411  0.4515  0.0090
    7SAPS   H3X  884   1.185   0.289   9.728 -0.0713 -0.4924  0.6154
    7SAPS   H3Y  885   1.249   0.250   9.893  0.9251  2.6958  2.7685
    7SAPS   C34  886   1.315   0.436   9.817 -0.2886  0.5284 -0.8084
    7SAPS   H4X  887   1.321   0.482   9.918 -1.7570 -0.8875 -0.0553
    7SAPS   H4Y  888   1.272   0.506   9.742  1.9077  0.6775 -1.9726
    7SAPS   C35  889   1.450   0.391   9.771  0.2807  0.5021 -0.1472
    7SAPS   H5X  890   1.442   0.294   9.716 -1.8659  0.0598  0.9087
    7SAPS   H5Y  891   1.500   0.343   9.858  1.1694  0.2688 -0.7755
    7SAPS   C36  892   1.544   0.489   9.712 -0.4863  0.5256 -0.3659
    7SAPS   H6X  893   1.645   0.443   9.712 -0.6532  0.1536  0.8564
    7SAPS   H6Y  894   1.528   0.580   9.774 -2.9224  0.6575 -1.1230
    7SAPS   C37  895   1.504   0.526   9.564 -0.6062  0.1836  0.0710
    7SAPS   H7X  896   1.557   0.623   9.552 -1.6128  0.2436 -4.5547
    7SAPS   H7Y  897   1.395   0.544   9.558 -0.6038 -0.3077 -1.5812
    7SAPS   C38  898   1.541   0.442   9.443  0.3382  0.6162 -0.0144
    7SAPS   H8X  899   1.481   0.349   9.452 -1.9227  2.1110  0.8576
    7SAPS   H8Y  900   1.647   0.409   9.442 -0.5096 -2.2057 -1.2034
    7SAPS   C39  901   1.504   0.513   9.318  0.0175 -0.1595 -0.3456
    7SAPS   H9X  902   1.563   0.606   9.307  0.7586 -0.6606 -0.6634
    7SAPS   H9Y  903   1.395   0.535   9.321  0.0340 -0.2253  1.2252
    7SAPS  C310  904   1.529   0.427   9.195  0.2717  0.3307  0.2158
    7SAPS  H10X  905   1.468   0.335   9.183  0.0829  0.6191 -1.1228
    7SAPS  H10Y  906   1.633   0.387   9.191 -0.5425 -1.9924  1.4362
    7SAPS  C311  907   1.474   0.496   9.071  0.3979  0.1811  0.7221
    7SAPS  H11X  908   1.503   0.603   9.075 -0.9794  0.6505 -1.4023
    7SAPS  H11Y  909   1.363   0.489   9.077  0.3030 -2.0278 -2.4737
    7SAPS  C312  910   1.523   0.431   8.943  0.6033 -0.0467 -0.1906
    7SAPS  H12X  911   1.499   0.323   8.944  0.6578 -0.0581  0.0235
    7SAPS  H12Y  912   1.634   0.435   8.947  0.5810  1.0320 -0.6046
    7SAPS  C313  913   1.479   0.501   8.811 -0.1831  0.1857 -0.0631
    7SAPS  H13X  914   1.530   0.440   8.733  1.3148 -0.3442  1.2870
    7SAPS  H13Y  915   1.509   0.608   8.803 -0.1025  0.1576 -0.1490
    7SAPS  C314  916   1.327   0.494   8.790  0.0881 -0.0911  0.8791
    7SAPS  H14X  917   1.291   0.597   8.808  0.9106  0.1069  1.4221
    7SAPS  H14Y  918   1.287   0.421   8.864 -0.2948 -0.3178  0.4561
    7SAPS  C315  919   1.292   0.438   8.653 -0.5008 -0.7939  0.3451
    7SAPS  H15X  920   1.181   0.445   8.645 -0.5608 -2.2914 -0.3532
    7SAPS  H15Y  921   1.321   0.331   8.652 -0.7131 -0.8410 -1.3088
    7SAPS  C316  922   1.338   0.523   8.534  0.4449 -0.0943  0.6084
    7SAPS  H16X  923   1.447   0.544   8.540  0.5605  0.3310 -2.5941
    7SAPS  H16Y  924   1.286   0.619   8.550 -0.0044 -0.2982  0.3668
    7SAPS  C317  925   1.300   0.475   8.394 -0.1999  0.3378  0.3692
    7SAPS  H17X  926   1.327   0.553   8.320 -0.6694 -1.6969 -2.0222
    7SAPS  H17Y  927   1.190   0.469   8.380 -0.0738 -2.4644  0.2656
    7SAPS  C318  928   1.363   0.345   8.349 -0.0263  0.0634 -0.5745
    7SAPS  H18X  929   1.424   0.294   8.426  0.1128  1.0752 -0.0119
    7SAPS  H18Y  930   1.426   0.366   8.260 -0.0062 -1.0959 -0.8429
    7SAPS  H18Z  931   1.285   0.275   8.309  0.5742  0.1912 -2.0026
    8SAPS     N  932   5.414   1.170  11.224  0.1995  0.6627  0.5926
    8SAPS   HN1  933   5.508   1.191  11.184  0.2486 -0.1975  0.2399
    8SAPS   HN2  934   5.417   1.072  11.260  2.7864 -0.4462 -2.3947
    8SAPS   HN3  935   5.339   1.167  11.152  1.0029  0.0168 -0.2399
    8SAPS   C12  936   5.377   1.276  11.320 -0.3449 -0.1366 -0.0954
    8SAPS  H12A  937   5.298   1.234  11.380  0.9645 -2.4328  0.0775
    8SAPS   C13  938   5.480   1.312  11.429 -0.2058 -0.1023  0.2511
    8SAPS  O13A  939   5.583   1.241  11.448 -0.1611  0.2397 -0.3183
    8SAPS  O13B  940   5.439   1.394  11.517 -0.5769  1.1501  0.0481
    8SAPS   C11  941   5.340   1.412  11.243 -0.8697 -0.3676  0.0107
    8SAPS  H11A  942   5.426   1.463  11.194 -0.6816 -0.4148  0.2959
    8SAPS  H11B  943   5.292   1.487  11.310 -0.4524  0.7485 -0.9180
    8SAPS     P  944   5.196   1.492  11.045  0.2654  0.3150 -0.1339
    8SAPS   O13  945   5.051   1.502  11.074 -0.4948 -0.3792 -0.6752
    8SAPS   O14  946   5.285   1.610  11.072  0.9821  0.3697 -0.0472
    8SAPS   O12  947   5.249   1.378  11.135 -0.1235 -0.1175 -0.1805
    8SAPS   O11  948   5.225   1.436  10.902 -0.7472  0.4052 -0.2732
    8SAPS    C1  949   5.334   1.340  10.877  0.1349 -0.5709  0.0505
    8SAPS    HA  950   5.433   1.375  10.912  1.3764 -2.4710 -1.4541
    8SAPS    HB  951   5.317   1.244  10.932  0.5677 -1.0201 -0.6006
    8SAPS    C2  952   5.328   1.311  10.723  0.4009  0.4437 -0.0831
    8SAPS    HS  953   5.348   1.407  10.672 -2.4266 -0.2568 -2.6859
    8SAPS   O21  954   5.196   1.253  10.693  0.5564 -0.3577  0.3421
    8SAPS   C21  955   5.137   1.317  10.597  0.1731  0.2751  0.3915
    8SAPS   O22  956   5.183   1.417  10.543 -0.6433  0.1880 -0.1976
    8SAPS   C22  957   5.012   1.243  10.549 -0.2657  0.4588 -0.2092
    8SAPS   H2R  958   4.969   1.197  10.641 -0.1993  0.8673  0.0261
    8SAPS   H2S  959   4.939   1.321  10.519 -1.1751 -1.1671 -2.4226
    8SAPS    C3  960   5.437   1.205  10.691 -0.4533  0.2933  0.4087
    8SAPS    HX  961   5.412   1.109  10.741 -1.6069 -0.3966 -1.4290
    8SAPS    HY  962   5.533   1.252  10.723  0.0132  0.1568 -0.7281
    8SAPS   O31  963   5.453   1.192  10.551  0.2164  0.0586  0.7515
    8SAPS   C31  964   5.508   1.292  10.481  0.1916  0.1803  0.8928
    8SAPS   O32  965   5.555   1.394  10.525 -0.0404  0.0161  0.0522
    8SAPS   C32  966   5.504   1.238  10.337 -0.6423  0.1908  0.2348
    8SAPS   H2X  967   5.417   1.169  10.322  0.7404 -1.1819 -1.8253
    8SAPS   H2Y  968   5.591   1.173  10.313 -1.2284 -0.7341  0.5469
    8SAPS   C23  969   5.042   1.129  10.442 -0.7306 -0.1926 -0.0450
    8SAPS   H3R  970   4.952   1.066  10.429 -1.1064  0.7026 -2.0369
    8SAPS   H3S  971   5.118   1.058  10.479 -0.2334 -0.2806 -1.2263
    8SAPS   C24  972   5.062   1.179  10.305 -0.4211 -0.1795  0.0541
    8SAPS   H4R  973   5.157   1.237  10.308 -0.1635 -0.4166 -2.2600
    8SAPS   H4S  974   4.984   1.253  10.277 -1.0493 -0.9032 -0.1162
    8SAPS   C25  975   5.080   1.066  10.206 -0.5907 -0.2601 -0.2248
    8SAPS   H5R  976   5.112   0.969  10.248 -2.0863 -0.3450  0.7431
    8SAPS   C26  977   5.069   1.075  10.069 -0.2519  0.0342  0.3873
    8SAPS   H6R  978   5.089   0.988  10.005 -2.3777  1.1503 -1.9158
    8SAPS   C27  979   5.051   1.203   9.997  0.4329 -0.5045 -1.0398
    8SAPS   H7R  980   5.121   1.218   9.912 -1.2011  3.1521 -1.8163
    8SAPS   H7S  981   5.072   1.289  10.064  1.0352  0.5230 -2.5154
    8SAPS   C28  982   4.915   1.229   9.951  0.3487  0.6970  0.0493
    8SAPS   H8R  983   4.838   1.173  10.005 -0.1047  2.4341  1.2461
    8SAPS   C29  984   4.874   1.340   9.882  0.2934  1.0224  0.5323
    8SAPS   H9R  985   4.766   1.354   9.871  0.5364  2.2289 -0.4621
    8SAPS  C210  986   4.966   1.445   9.822  0.3124 -0.4479  0.5172
    8SAPS  H10R  987   5.025   1.387   9.747 -0.1402 -2.3654  1.5899
    8SAPS  H10S  988   5.033   1.494   9.896 -0.6474  1.1047  0.3825
    8SAPS  C211  989   4.886   1.555   9.749 -1.4257  0.4307 -0.0556
    8SAPS  H11R  990   4.820   1.618   9.811  0.1521 -0.2249  2.3853
    8SAPS  C212  991   4.882   1.580   9.617 -0.4608  0.1943 -0.1159
    8SAPS  H12R  992   4.815   1.663   9.592  0.9214  1.3282 -0.1467
    8SAPS  C213  993   4.961   1.518   9.506  0.5724 -0.7321  0.0683
    8SAPS  H13R  994   4.908   1.433   9.458 -0.9408 -0.6115  1.4782
    8SAPS  H13S  995   5.058   1.484   9.549 -0.4190 -1.1145  2.0552
    8SAPS  C214  996   5.012   1.623   9.407  0.8079 -0.0475  0.2137
    8SAPS  H14R  997   5.042   1.724   9.441  0.0768 -0.2112  1.3879
    8SAPS  C215  998   5.007   1.602   9.272  0.0738 -0.2176 -0.1805
    8SAPS  H15R  999   5.064   1.670   9.205 -2.0119  0.6038 -1.1617
    8SAPS  C216 1000   4.963   1.475   9.201 -0.0332  0.1565  0.9992
    8SAPS  H16R 1001   4.854   1.463   9.216 -0.2062 -0.5169 -0.7055
    8SAPS  H16S 1002   5.018   1.385   9.238 -2.1632 -1.4095  0.4899
    8SAPS  C217 1003   4.996   1.465   9.050 -0.2598 -0.6293  0.8631
    8SAPS  H17R 1004   4.949   1.371   9.014  1.0875 -0.2765 -1.9170
    8SAPS  H17S 1005   5.105   1.474   9.030 -0.8332  1.4976 -1.4182
    8SAPS  C218 1006   4.929   1.572   8.963 -0.0044  0.0636 -0.2705
    8SAPS  H18R 1007   4.963   1.671   8.999 -0.1291 -0.2691  0.7776
    8SAPS  H18S 1008   4.820   1.557   8.983  0.0115  0.0990 -0.1633
    8SAPS  C219 1009   4.958   1.550   8.814  0.9356 -0.4670 -0.1781
    8SAPS  H19R 1010   4.934   1.446   8.783  2.4162 -0.7256 -0.4741
    8SAPS  H19S 1011   5.066   1.570   8.805  1.4319 -3.1500 -0.5814
    8SAPS  C220 1012   4.894   1.649   8.722  0.6723  0.0598  0.2220
    8SAPS  H20R 1013   4.883   1.749   8.769 -0.1962 -1.1282  2.6374
    8SAPS  H20S 1014   4.788   1.622   8.699  0.5510  0.8512 -0.1534
    8SAPS  H20T 1015   4.947   1.665   8.626 -0.2581 -0.7864 -0.4432
    8SAPS   C33 1016   5.509   1.361  10.250 -0.1014 -0.3709  0.3235
    8SAPS   H3X 1017   5.552   1.335  10.151  1.3529  1.9697  0.3026
    8SAPS   H3Y 1018   5.571   1.441  10.296  0.0100 -0.3418  0.1237
    8SAPS   C34 1019   5.363   1.419  10.213 -0.2283  0.1917 -0.5909
    8SAPS   H4X 1020   5.310   1.448  10.306  0.2653  2.2627 -0.9328
    8SAPS   H4Y 1021   5.301   1.341  10.163  0.7425 -0.2469 -1.1314
    8SAPS   C35 1022   5.369   1.540  10.111 -0.2267  0.1727 -0.5265
    8SAPS   H5X 1023   5.401   1.483  10.021  2.0913  2.6797 -1.3618
    8SAPS   H5Y 1024   5.455   1.608  10.132  0.8251 -0.8817 -1.3209
    8SAPS   C36 1025   5.240   1.615  10.092 -0.8296 -0.3776  0.6576
    8SAPS   H6X 1026   5.225   1.693  10.169 -0.7700  1.1479 -0.8358
    8SAPS   H6Y 1027   5.156   1.542  10.086 -0.0987 -1.1017 -1.1155
    8SAPS   C37 1028   5.244   1.688   9.955  0.9879  0.7152  0.2057
    8SAPS   H7X 1029   5.251   1.619   9.868  0.7896 -0.5576  1.1925
    8SAPS   H7Y 1030   5.334   1.753   9.957  1.7000 -0.2353 -0.1997
    8SAPS   C38 1031   5.125   1.779   9.930  0.0268  0.2138  0.3814
    8SAPS   H8X 1032   5.105   1.840  10.021 -0.3159 -3.9494  3.2343
    8SAPS   H8Y 1033   5.036   1.723   9.893  0.2873 -0.0097  0.0920
    8SAPS   C39 1034   5.161   1.875   9.811  0.3845  0.4116 -0.1464
    8SAPS   H9X 1035   5.246   1.940   9.840  1.1364 -0.6226  0.0086
    8SAPS   H9Y 1036   5.067   1.927   9.785  0.1602  0.7266  1.2518
    8SAPS  C310 1037   5.220   1.806   9.688  0.2022 -0.0842 -0.0068
    8SAPS  H10X 1038   5.150   1.724   9.661  1.4741 -1.1634 -0.1180
    8SAPS  H10Y 1039   5.318   1.752   9.695  0.1350 -0.0589  1.1423
    8SAPS  C311 1040   5.246   1.903   9.566 -0.5845 -0.2940 -1.1284
    8SAPS  H11X 1041   5.296   1.991   9.610 -1.5022 -0.5090  0.3449
    8SAPS  H11Y 1042   5.155   1.949   9.523 -0.8037 -0.1598 -0.5216
    8SAPS  C312 1043   5.342   1.855   9.460  0.0778  0.1029 -0.4055
    8SAPS  H12X 1044   5.342   1.744   9.459 -0.0117  0.1092 -1.0565
    8SAPS  H12Y 1045   5.444   1.881   9.496 -0.2466  0.0450  0.5692
    8SAPS  C313 1046   5.317   1.905   9.322  0.2609  0.0095 -0.0721
    8SAPS  H13X 1047   5.332   2.016   9.321  1.5406 -0.1506  0.0603
    8SAPS  H13Y 1048   5.212   1.892   9.290  0.5380 -1.2666 -0.4549
    8SAPS  C314 1049   5.403   1.835   9.218 -0.7803  0.2589 -0.6507
    8SAPS  H14X 1050   5.386   1.726   9.234 -1.9944  0.4420 -0.6071
    8SAPS  H14Y 1051   5.513   1.842   9.231 -0.9765  0.6112  0.8570
    8SAPS  C315 1052   5.340   1.866   9.076 -0.1110 -0.5013  0.1873
    8SAPS  H15X 1053   5.336   1.974   9.050 -2.4806 -0.6967 -0.4142
    8SAPS  H15Y 1054   5.230   1.849   9.085 -0.2693  1.0162  1.3353
    8SAPS  C316 1055   5.404   1.788   8.964 -0.4822 -1.1615  0.4671
    8SAPS  H16X 1056   5.514   1.790   8.975 -0.4597 -2.0795  0.4255
    8SAPS  H16Y 1057   5.373   1.837   8.869  1.0641 -0.1910  0.4390
    8SAPS  C317 1058   5.354   1.647   8.955 -0.6534 -0.0079  0.2611
    8SAPS  H17X 1059   5.244   1.661   8.944 -0.8452  0.0685  2.1262
    8SAPS  H17Y 1060   5.384   1.601   9.051 -1.1849 -0.5676  0.1580
    8SAPS  C318 1061   5.409   1.585   8.826 -0.1960  0.3041 -0.8225
    8SAPS  H18X 1062   5.379   1.479   8.813 -1.4427  0.9475 -3.5840
    8SAPS  H18Y 1063   5.519   1.586   8.838 -0.3843 -2.9557  1.8106
    8SAPS  H18Z 1064   5.388   1.642   8.732  0.3356 -0.0364 -1.1529
    9SAPS     N 1065   0.837   4.668   6.050 -0.3639  0.9380  0.6754
    9SAPS   HN1 1066   0.938   4.685   6.031 -0.5333  0.7066 -0.4738
    9SAPS   HN2 1067   0.825   4.572   6.088 -1.0971  1.1362  0.9592
    9SAPS   HN3 1068   0.796   4.671   5.954  1.2023 -0.3364 -0.0637
    9SAPS   C12 1069   0.767   4.756   6.154  1.0715  0.1054  0.0544
    9SAPS  H12A 1070   0.745   4.851   6.108  1.0587  0.2102  0.2777
    9SAPS   C13 1071   0.631   4.701   6.205  0.0017  0.6097  0.6642
    9SAPS  O13A 1072   0.584   4.592   6.163 -0.0942 -0.6080 -0.6258
    9SAPS  O13B 1073   0.566   4.775   6.280 -0.0331 -0.7983 -0.0196
    9SAPS   C11 1074   0.864   4.772   6.275  0.5166  0.0596 -0.5832
    9SAPS  H11A 1075   0.898   4.667   6.285  0.8310  0.2484  0.2908
    9SAPS  H11B 1076   0.809   4.813   6.363 -1.1348 -0.0454 -1.5292
    9SAPS     P 1077   1.084   4.862   6.345  0.4377 -0.0320  0.2493
    9SAPS   O13 1078   1.127   4.722   6.373  0.5900 -0.0965  0.0418
    9SAPS   O14 1079   1.188   4.964   6.299 -0.4930  0.1093  0.3028
    9SAPS   O12 1080   0.970   4.859   6.241  0.0266  0.0565  0.1301
    9SAPS   O11 1081   1.004   4.920   6.472 -0.4338 -0.3919  0.0062
    9SAPS    C1 1082   0.967   5.053   6.488 -1.2685 -0.3538  0.5835
    9SAPS    HA 1083   0.935   5.101   6.393 -0.9040  0.3812  0.8259
    9SAPS    HB 1084   0.879   5.055   6.556 -0.3602  3.6188  1.7903
    9SAPS    C2 1085   1.069   5.142   6.559 -0.6439  0.4717 -0.2566
    9SAPS    HS 1086   1.170   5.125   6.515 -1.1623 -0.7085 -1.0203
    9SAPS   O21 1087   1.059   5.127   6.698 -0.4878  0.1553  0.1965
    9SAPS   C21 1088   1.168   5.142   6.773 -0.2105  0.0196  0.0761
    9SAPS   O22 1089   1.275   5.180   6.731  0.2923  0.0759 -0.2781
    9SAPS   C22 1090   1.143   5.115   6.918 -0.5923 -0.8718 -0.3492
    9SAPS   H2R 1091   1.050   5.165   6.950  0.5364  0.4563  0.9281
    9SAPS   H2S 1092   1.128   5.005   6.925  1.7824 -1.4080 -2.7228
    9SAPS    C3 1093   1.044   5.293   6.534  0.3611 -0.0179  0.2455
    9SAPS    HX 1094   1.048   5.320   6.427  1.0955  1.2209  0.5738
    9SAPS    HY 1095   1.125   5.354   6.580  1.2150 -1.8764  1.2457
    9SAPS   O31 1096   0.907   5.325   6.577  0.1933 -0.2945 -0.6610
    9SAPS   C31 1097   0.907   5.389   6.698 -0.4890 -0.0300 -0.2199
    9SAPS   O32 1098   1.005   5.434   6.755 -0.2775 -0.0746 -0.3242
    9SAPS   C32 1099   0.763   5.391   6.759 -0.0563 -0.1176 -0.4658
    9SAPS   H2X 1100   0.725   5.288   6.741  1.5746 -0.2499 -3.4761
    9SAPS   H2Y 1101   0.703   5.463   6.699  1.7843  1.7781 -0.0974
    9SAPS   C23 1102   1.275   5.145   6.996 -0.0895  0.2850  0.0000
    9SAPS   H3R 1103   1.315   5.246   6.971 -0.3684  0.4438  0.1914
    9SAPS   H3S 1104   1.344   5.074   6.946 -2.3132 -1.7433 -0.2732
    9SAPS   C24 1105   1.266   5.118   7.150  0.0833 -0.0676  0.1780
    9SAPS   H4R 1106   1.365   5.132   7.199 -0.2123 -0.8589  1.0030
    9SAPS   H4S 1107   1.246   5.009   7.159  0.5112 -0.0236  1.6755
    9SAPS   C25 1108   1.164   5.206   7.212 -0.3079  0.7040 -0.1010
    9SAPS   H5R 1109   1.169   5.314   7.196 -1.1979  0.8814  0.7421
    9SAPS   C26 1110   1.054   5.160   7.270  0.0345  0.6129 -0.5878
    9SAPS   H6R 1111   0.989   5.233   7.320 -0.5787 -0.3019 -0.0299
    9SAPS   C27 1112   1.008   5.021   7.299  0.3782 -0.4805  0.1915
    9SAPS   H7R 1113   1.047   4.949   7.223 -0.7417  0.2062 -1.0576
    9SAPS   H7S 1114   0.899   5.022   7.277 -0.0250  4.0230  2.0141
    9SAPS   C28 1115   1.037   4.983   7.443  0.8279  0.9283 -0.2091
    9SAPS   H8R 1116   1.113   4.904   7.456  1.7363  1.9243  0.5997
    9SAPS   C29 1117   0.971   5.015   7.553  0.0599 -0.5346 -0.2924
    9SAPS   H9R 1118   1.008   4.974   7.648 -1.5777 -0.4136  0.4165
    9SAPS  C210 1119   0.852   5.104   7.562  0.6320 -0.7389 -0.2301
    9SAPS  H10R 1120   0.775   5.057   7.627 -0.9056  0.1207 -1.4032
    9SAPS  H10S 1121   0.811   5.112   7.459  2.0779  1.2203 -0.6816
    9SAPS  C211 1122   0.902   5.243   7.593  0.2027 -0.5715  0.4622
    9SAPS  H11R 1123   0.943   5.302   7.510 -0.9154  1.9418  1.6115
    9SAPS  C212 1124   0.905   5.307   7.704 -0.3627  0.6122 -0.2279
    9SAPS  H12R 1125   0.939   5.412   7.711  2.1711 -0.2592  0.8801
    9SAPS  C213 1126   0.867   5.252   7.831  0.0489  0.1320  0.4641
    9SAPS  H13R 1127   0.889   5.143   7.836  2.4556  0.6256  0.9390
    9SAPS  H13S 1128   0.757   5.267   7.822  0.4003  1.0042 -3.5999
    9SAPS  C214 1129   0.925   5.326   7.950  0.3436  0.1784 -0.1978
    9SAPS  H14R 1130   0.874   5.417   7.984  1.9347  1.1956 -0.4914
    9SAPS  C215 1131   1.044   5.302   8.006  0.7004  1.1831  0.4465
    9SAPS  H15R 1132   1.085   5.372   8.080  0.3633 -1.1416  2.9080
    9SAPS  C216 1133   1.145   5.189   7.976  0.4085  0.4409  0.1829
    9SAPS  H16R 1134   1.240   5.239   7.948 -0.4764  1.5842 -0.8845
    9SAPS  H16S 1135   1.114   5.138   7.883  0.2897  0.8568 -0.0071
    9SAPS  C217 1136   1.156   5.089   8.091  0.3511  0.4166 -0.1066
    9SAPS  H17R 1137   1.050   5.059   8.108 -0.2613  1.9071 -1.1354
    9SAPS  H17S 1138   1.191   5.146   8.180 -1.1931  1.8997 -0.4218
    9SAPS  C218 1139   1.237   4.970   8.063 -0.0313 -0.2230  0.4024
    9SAPS  H18R 1140   1.255   4.900   8.147  0.4246 -0.1474  0.3722
    9SAPS  H18S 1141   1.339   5.012   8.048 -0.2318  0.3374  0.5915
    9SAPS  C219 1142   1.200   4.887   7.940  0.1434 -0.4249  0.4950
    9SAPS  H19R 1143   1.260   4.794   7.939 -0.2708 -0.6902  0.4555
    9SAPS  H19S 1144   1.226   4.945   7.848 -0.9513  0.7580  0.9112
    9SAPS  C220 1145   1.049   4.836   7.932 -0.0884 -0.4999  0.5913
    9SAPS  H20R 1146   0.989   4.930   7.932  2.2110  1.0430 -0.2740
    9SAPS  H20S 1147   1.029   4.768   8.017  0.7811 -1.3455  0.1388
    9SAPS  H20T 1148   1.036   4.790   7.832  0.9517  4.0618 -1.7818
    9SAPS   C33 1149   0.770   5.424   6.915 -0.1796 -0.7028 -0.3207
    9SAPS   H3X 1150   0.845   5.360   6.967  0.0598  0.3173  0.6042
    9SAPS   H3Y 1151   0.673   5.395   6.959  0.0593  0.2215  0.8215
    9SAPS   C34 1152   0.806   5.567   6.964 -0.2166  0.2771 -1.0850
    9SAPS   H4X 1153   0.741   5.649   6.927  0.0917  2.0777  2.1304
    9SAPS   H4Y 1154   0.907   5.597   6.927  0.0583 -0.3812 -0.8730
    9SAPS   C35 1155   0.810   5.583   7.120  0.3535  0.1343 -0.1476
    9SAPS   H5X 1156   0.727   5.519   7.158  0.2652  0.8240  0.8385
    9SAPS   H5Y 1157   0.787   5.685   7.157 -1.3434 -0.5661  0.8133
    9SAPS   C36 1158   0.942   5.539   7.181 -0.6276 -0.0824  0.6635
    9SAPS   H6X 1159   1.021   5.613   7.159 -0.0473 -0.7112  0.5992
    9SAPS   H6Y 1160   0.962   5.431   7.165  1.3436  0.4217 -0.4164
    9SAPS   C37 1161   0.931   5.547   7.338  0.0501  0.1143  0.1572
    9SAPS   H7X 1162   1.029   5.512   7.379  0.7190 -0.6490 -1.9976
    9SAPS   H7Y 1163   0.860   5.469   7.371 -0.6980  0.3956 -0.7538
    9SAPS   C38 1164   0.894   5.670   7.407  0.4493 -0.5833 -0.1482
    9SAPS   H8X 1165   0.888   5.642   7.514  0.6971 -0.9784 -0.2364
    9SAPS   H8Y 1166   0.793   5.704   7.374  0.2686 -0.9371  0.0303
    9SAPS   C39 1167   1.002   5.771   7.398  0.4310  0.8776  0.2849
    9SAPS   H9X 1168   1.048   5.776   7.298  0.3185  3.1911  0.3281
    9SAPS   H9Y 1169   1.082   5.734   7.466  0.5312 -1.0584 -0.8314
    9SAPS  C310 1170   0.970   5.916   7.449  0.0248 -0.0627 -0.0625
    9SAPS  H10X 1171   0.921   5.915   7.549  0.2657  1.7731  0.0907
    9SAPS  H10Y 1172   0.894   5.955   7.379  0.1847  2.8931  1.3472
    9SAPS  C311 1173   1.099   6.003   7.447 -0.5961 -0.5968  0.0673
    9SAPS  H11X 1174   1.104   6.059   7.351 -0.9774  1.4757  1.2362
    9SAPS  H11Y 1175   1.194   5.946   7.460 -0.8026 -0.8762  0.3617
    9SAPS  C312 1176   1.104   6.100   7.565 -0.6484  1.0225  0.8665
    9SAPS  H12X 1177   1.012   6.162   7.558 -0.7889  0.9625  2.1880
    9SAPS  H12Y 1178   1.198   6.159   7.561 -0.4506  0.5886 -1.4659
    9SAPS  C313 1179   1.097   6.028   7.700 -0.0215 -1.2048 -0.2118
    9SAPS  H13X 1180   1.162   5.938   7.697 -0.8537 -1.8555  0.7445
    9SAPS  H13Y 1181   0.995   5.995   7.732  0.7654 -2.5274  0.9775
    9SAPS  C314 1182   1.147   6.119   7.817 -0.4684 -0.3837  0.6488
    9SAPS  H14X 1183   1.095   6.217   7.809 -0.7525 -0.6295 -0.7648
    9SAPS  H14Y 1184   1.253   6.140   7.789 -0.1200 -0.3036  2.0250
    9SAPS  C315 1185   1.134   6.048   7.954  0.2047  0.7144 -0.3535
    9SAPS  H15X 1186   1.174   5.946   7.937 -2.8400 -0.6754  0.6228
    9SAPS  H15Y 1187   1.028   6.030   7.979  0.7892 -2.3181  0.0851
    9SAPS  C316 1188   1.206   6.112   8.077 -0.6801  1.1708  0.0562
    9SAPS  H16X 1189   1.152   6.203   8.111 -0.9179  0.5145  1.4987
    9SAPS  H16Y 1190   1.311   6.129   8.046 -0.9477  1.7981 -0.4962
    9SAPS  C317 1191   1.213   6.018   8.201 -0.0455 -0.1658 -0.6840
    9SAPS  H17X 1192   1.298   6.050   8.265 -0.8700 -0.1169  0.4004
    9SAPS  H17Y 1193   1.229   5.909   8.186  0.0944 -0.5227  1.8931
    9SAPS  C318 1194   1.074   6.031   8.275  0.3875 -0.3329  0.6470
    9SAPS  H18X 1195   0.990   5.996   8.211 -0.0271  0.7733  0.5807
    9SAPS  H18Y 1196   1.052   6.135   8.308 -1.1949 -0.4391 -0.0002
    9SAPS  H18Z 1197   1.078   5.978   8.372  2.0806 -0.0604  0.7299
   10SAPS     N 1198   0.597   4.269   6.141  0.5114  0.4890  0.1022
   10SAPS   HN1 1199   0.562   4.366   6.123  1.3800  0.7478 -0.2420
   10SAPS   HN2 1200   0.632   4.231   6.051 -0.8300  0.0119 -0.2321
   10SAPS   HN3 1201   0.518   4.206   6.166 -0.3765  1.9258  1.0463
   10SAPS   C12 1202   0.682   4.266   6.264  0.5564  0.3918 -0.0819
   10SAPS  H12A 1203   0.717   4.168   6.291  2.0668  0.4578 -1.6948
   10SAPS   C13 1204   0.807   4.355   6.252  0.5667 -0.5103 -0.7633
   10SAPS  O13A 1205   0.835   4.405   6.138  0.2059  0.2866  0.0028
   10SAPS  O13B 1206   0.894   4.334   6.342  0.2950 -0.3944  0.3284
   10SAPS   C11 1207   0.602   4.321   6.386  0.0350  0.0083 -0.2706
   10SAPS  H11A 1208   0.595   4.429   6.358  1.9427 -0.2420 -1.8875
   10SAPS  H11B 1209   0.659   4.304   6.480 -1.2793  0.6151  0.6532
   10SAPS     P 1210   0.372   4.324   6.498 -0.1213  0.5623  0.0902
   10SAPS   O13 1211   0.366   4.467   6.464 -0.3223 -0.3827 -0.2795
   10SAPS   O14 1212   0.240   4.253   6.489 -0.3961 -0.2170 -0.3720
   10SAPS   O12 1213   0.475   4.258   6.406  0.1286  0.3018  0.3007
   10SAPS   O11 1214   0.439   4.301   6.642 -0.0988  0.2822  0.2044
   10SAPS    C1 1215   0.529   4.407   6.690 -0.3931  0.5205  0.2087
   10SAPS    HA 1216   0.614   4.414   6.620  0.5788 -3.9591  0.7739
   10SAPS    HB 1217   0.471   4.501   6.695  1.5237  1.7381 -0.0707
   10SAPS    C2 1218   0.585   4.357   6.831 -0.4684 -0.5616 -0.6730
   10SAPS    HS 1219   0.639   4.266   6.796  1.7565  0.7417 -0.7065
   10SAPS   O21 1220   0.491   4.340   6.938 -0.0311 -0.0751  0.1335
   10SAPS   C21 1221   0.507   4.221   7.009 -0.2383 -0.2192 -0.1370
   10SAPS   O22 1222   0.563   4.123   6.963  0.1804 -0.2452 -0.2897
   10SAPS   C22 1223   0.428   4.227   7.138  0.1917  0.1884 -0.0171
   10SAPS   H2R 1224   0.412   4.330   7.175 -0.3763  0.0066  0.2516
   10SAPS   H2S 1225   0.332   4.173   7.118 -1.5713  2.3710  2.2463
   10SAPS    C3 1226   0.696   4.453   6.893  0.7746 -0.3933 -0.0932
   10SAPS    HX 1227   0.647   4.544   6.931  0.4759 -0.3541 -0.5595
   10SAPS    HY 1228   0.763   4.476   6.807  1.0722 -0.5575  0.0964
   10SAPS   O31 1229   0.768   4.397   7.007  0.1277 -0.0637 -0.5755
   10SAPS   C31 1230   0.862   4.315   6.985 -0.5588  0.3820 -0.4970
   10SAPS   O32 1231   0.916   4.297   6.877 -0.3629 -0.4855 -0.0550
   10SAPS   C32 1232   0.890   4.243   7.118 -0.2808 -0.3829  0.1000
   10SAPS   H2X 1233   0.993   4.203   7.113  0.1545  0.8556 -1.1114
   10SAPS   H2Y 1234   0.819   4.158   7.122 -0.9151  0.1827  1.0513
   10SAPS   C23 1235   0.501   4.160   7.259 -0.0782  0.1283  0.3456
   10SAPS   H3R 1236   0.609   4.185   7.251 -0.5468  1.7954 -0.9581
   10SAPS   H3S 1237   0.491   4.052   7.235 -3.6284  0.5372 -0.2753
   10SAPS   C24 1238   0.451   4.197   7.403  0.7191  0.0472  0.0103
   10SAPS   H4R 1239   0.489   4.119   7.472 -0.0451 -1.8373 -1.6516
   10SAPS   H4S 1240   0.340   4.194   7.402  0.7059 -0.2665  1.1265
   10SAPS   C25 1241   0.495   4.330   7.462  0.7864 -0.2486  0.1832
   10SAPS   H5R 1242   0.602   4.340   7.484  1.1691 -1.7281 -0.9539
   10SAPS   C26 1243   0.412   4.423   7.508 -0.1329  0.4132  0.5134
   10SAPS   H6R 1244   0.453   4.521   7.536 -1.9544  1.3189  0.0258
   10SAPS   C27 1245   0.266   4.442   7.496  0.6640  0.0400 -0.1817
   10SAPS   H7R 1246   0.227   4.412   7.396 -0.8106  1.6913 -0.1372
   10SAPS   H7S 1247   0.238   4.550   7.506  1.2194  0.1338  0.3728
   10SAPS   C28 1248   0.191   4.361   7.599 -0.1100  0.3349  0.3836
   10SAPS   H8R 1249   0.121   4.286   7.559  0.0587 -0.1038  0.9032
   10SAPS   C29 1250   0.195   4.370   7.730  0.9040  0.0619 -0.2508
   10SAPS   H9R 1251   0.127   4.301   7.782  2.1524  0.2261  1.6778
   10SAPS  C210 1252   0.265   4.452   7.830  0.2481  0.2970  0.0049
   10SAPS  H10R 1253   0.235   4.559   7.822  0.3894  0.2575 -1.1731
   10SAPS  H10S 1254   0.374   4.451   7.808 -0.0012  0.2912 -1.3008
   10SAPS  C211 1255   0.259   4.399   7.967 -0.4548  0.3827  0.1790
   10SAPS  H11R 1256   0.351   4.354   8.008 -0.9857  1.0736  2.2082
   10SAPS  C212 1257   0.166   4.412   8.055  0.2727 -0.3950  0.5179
   10SAPS  H12R 1258   0.173   4.366   8.155 -2.9919 -1.5905  0.2390
   10SAPS  C213 1259   0.037   4.491   8.035  0.0580  0.9818  0.0865
   10SAPS  H13R 1260  -0.017   4.445   7.950 -1.1298  0.4672  1.1090
   10SAPS  H13S 1261   0.052   4.594   7.994 -0.6517  0.3441 -1.7989
   10SAPS  C214 1262  -0.055   4.517   8.155  0.4022  0.6876 -0.7497
   10SAPS  H14R 1263  -0.158   4.487   8.133  0.2367  1.3597 -0.9013
   10SAPS  C215 1264  -0.030   4.575   8.274  1.1199  0.0562 -0.0819
   10SAPS  H15R 1265  -0.112   4.598   8.344  0.8063  1.3922 -0.8823
   10SAPS  C216 1266   0.101   4.631   8.321  0.3800 -0.9888 -0.0089
   10SAPS  H16R 1267   0.119   4.735   8.289  1.2413 -1.2626 -0.4167
   10SAPS  H16S 1268   0.187   4.568   8.288  1.8107 -0.2042  2.0593
   10SAPS  C217 1269   0.132   4.637   8.470 -0.2839  0.6382 -0.2628
   10SAPS  H17R 1270   0.074   4.717   8.522  1.7101  1.6051  0.4982
   10SAPS  H17S 1271   0.239   4.663   8.478 -0.1995 -0.1484  1.5955
   10SAPS  C218 1272   0.102   4.503   8.536 -0.7634  0.1078 -0.0649
   10SAPS  H18R 1273   0.185   4.468   8.601  0.2652 -0.9377 -1.8817
   10SAPS  H18S 1274   0.094   4.422   8.460  1.5062  0.8641 -1.1581
   10SAPS  C219 1275  -0.022   4.499   8.620 -0.3790 -0.4036  0.3584
   10SAPS  H19R 1276  -0.110   4.520   8.555  0.6204  1.9462 -0.3027
   10SAPS  H19S 1277  -0.010   4.579   8.696 -0.0213  0.0703 -0.1929
   10SAPS  C220 1278  -0.054   4.374   8.694  0.2066 -0.3331  0.0670
   10SAPS  H20R 1279  -0.004   4.285   8.649  0.6253 -0.3632  0.5902
   10SAPS  H20S 1280  -0.164   4.359   8.690 -0.3437  3.3622 -0.3773
   10SAPS  H20T 1281  -0.027   4.363   8.801  0.8170 -1.1361 -0.1666
   10SAPS   C33 1282   0.870   4.329   7.239  0.2053  0.1946  0.1107
   10SAPS   H3X 1283   0.770   4.377   7.251  0.2540  0.4072 -0.3294
   10SAPS   H3Y 1284   0.946   4.409   7.226 -0.3113  0.3826 -1.9676
   10SAPS   C34 1285   0.890   4.243   7.361  0.1883 -0.8219  1.3551
   10SAPS   H4X 1286   0.984   4.187   7.342  1.0120  1.0789 -0.3805
   10SAPS   H4Y 1287   0.811   4.166   7.369  0.6677 -1.4858 -0.1316
   10SAPS   C35 1288   0.912   4.311   7.495  0.1536 -0.3407 -0.6425
   10SAPS   H5X 1289   0.927   4.230   7.569  1.9569  0.2796 -0.2783
   10SAPS   H5Y 1290   0.818   4.364   7.519 -0.0242 -0.7404 -0.4566
   10SAPS   C36 1291   1.037   4.398   7.490  0.3858 -0.4538 -0.1724
   10SAPS   H6X 1292   1.015   4.480   7.418 -1.8687 -2.6072 -2.0300
   10SAPS   H6Y 1293   1.127   4.343   7.454  0.0469 -0.1608 -1.4738
   10SAPS   C37 1294   1.083   4.472   7.615  0.4241 -0.5667  0.7340
   10SAPS   H7X 1295   1.050   4.578   7.615 -1.3276 -1.0804  3.0100
   10SAPS   H7Y 1296   1.194   4.476   7.620  0.3540  2.7498  0.5111
   10SAPS   C38 1297   1.041   4.404   7.749  0.2638  0.8267  0.2833
   10SAPS   H8X 1298   1.064   4.297   7.733 -0.1769  0.4199  2.3062
   10SAPS   H8Y 1299   0.933   4.419   7.770 -0.0483  0.4502 -0.9820
   10SAPS   C39 1300   1.113   4.459   7.873 -0.6470 -0.6518 -0.1783
   10SAPS   H9X 1301   1.107   4.570   7.883 -2.6397 -0.8354  0.9324
   10SAPS   H9Y 1302   1.218   4.442   7.842 -0.4307  1.5024 -0.7165
   10SAPS  C310 1303   1.098   4.394   8.013  0.1076 -0.1037  0.3103
   10SAPS  H10X 1304   1.134   4.289   8.000  4.5994  1.4740 -0.7665
   10SAPS  H10Y 1305   0.993   4.402   8.049 -0.3764 -0.1849 -1.0544
   10SAPS  C311 1306   1.198   4.458   8.111  0.2495  0.2520 -0.7165
   10SAPS  H11X 1307   1.191   4.567   8.091 -2.1742  0.4905  1.0923
   10SAPS  H11Y 1308   1.299   4.435   8.072 -0.0542  0.8555 -1.8870
   10SAPS  C312 1309   1.188   4.420   8.260  0.4618 -0.0987  1.0224
   10SAPS  H12X 1310   1.283   4.451   8.309  0.0969  0.9847  1.0535
   10SAPS  H12Y 1311   1.181   4.310   8.272  4.0071 -0.6160 -0.9254
   10SAPS  C313 1312   1.068   4.477   8.329 -0.5531 -0.6555 -0.2050
   10SAPS  H13X 1313   1.064   4.462   8.439 -1.6201 -0.7549 -0.2562
   10SAPS  H13Y 1314   0.970   4.439   8.294 -0.4334  0.2096 -1.5118
   10SAPS  C314 1315   1.043   4.629   8.301 -0.2371 -0.3087  0.1868
   10SAPS  H14X 1316   1.043   4.659   8.194 -0.7490  2.2480  0.8617
   10SAPS  H14Y 1317   1.116   4.695   8.354 -1.1868  0.9326 -0.0276
   10SAPS  C315 1318   0.909   4.667   8.362 -0.1985  0.5523 -0.0059
   10SAPS  H15X 1319   0.900   4.621   8.462 -0.9121  4.7745  1.9744
   10SAPS  H15Y 1320   0.824   4.619   8.309  0.4464 -1.0907  0.4266
   10SAPS  C316 1321   0.891   4.815   8.389  0.1509 -0.5187  0.7698
   10SAPS  H16X 1322   0.784   4.843   8.375  0.1560 -0.7652  0.2278
   10SAPS  H16Y 1323   0.956   4.877   8.324 -0.2275 -1.3023 -0.3802
   10SAPS  C317 1324   0.938   4.840   8.535  0.5599 -0.3466 -0.8377
   10SAPS  H17X 1325   0.902   4.764   8.608  1.1844  0.6304  0.5055
   10SAPS  H17Y 1326   0.872   4.925   8.562  1.7862  0.0192  1.1179
   10SAPS  C318 1327   1.081   4.878   8.559 -0.1714  0.0567 -0.2975
   10SAPS  H18X 1328   1.121   4.951   8.486 -0.4634  0.3823 -0.1334
   10SAPS  H18Y 1329   1.135   4.782   8.542  0.9701  0.9974 -2.1375
   10SAPS  H18Z 1330   1.097   4.916   8.662 -3.2291 -1.5894  0.8465
   11SAPS     N 1331   3.105   0.343   5.587 -0.3738 -0.3164  1.0667
   11SAPS   HN1 1332   3.061   0.315   5.497 -0.0930  0.5892  0.6462
   11SAPS   HN2 1333   3.035   0.392   5.647 -1.0117  0.7552 -0.5139
   11SAPS   HN3 1334   3.176   0.414   5.562 -1.6893  1.5560  2.4875
   11SAPS   C12 1335   3.173   0.226   5.656  0.3584 -0.0818 -0.7173
   11SAPS  H12A 1336   3.180   0.144   5.585 -1.1610  0.2131 -1.2111
   11SAPS   C13 1337   3.323   0.253   5.702 -0.4220  0.2725 -0.8605
   11SAPS  O13A 1338   3.359   0.373   5.711  0.1078  0.7488 -0.0349
   11SAPS  O13B 1339   3.377   0.162   5.771 -0.4433 -0.1935  0.2952
   11SAPS   C11 1340   3.097   0.178   5.785  0.1433  0.0579  0.0078
   11SAPS  H11A 1341   3.076   0.269   5.846 -0.2693 -0.5504  0.7820
   11SAPS  H11B 1342   3.161   0.117   5.852  1.7431  0.9101 -0.7292
   11SAPS     P 1343   2.953  -0.033   5.727  0.0222 -0.5086 -0.2532
   11SAPS   O13 1344   2.837  -0.041   5.645  0.3328 -0.0513  0.1199
   11SAPS   O14 1345   3.074  -0.100   5.674  0.1016 -0.5607 -0.3067
   11SAPS   O12 1346   2.973   0.119   5.754  0.6135  0.2899 -0.6488
   11SAPS   O11 1347   2.931  -0.095   5.869  0.5872  0.5164  0.3697
   11SAPS    C1 1348   2.962  -0.024   5.988 -0.0612 -0.1626  1.1788
   11SAPS    HA 1349   3.070  -0.030   6.016  0.4411 -0.0701 -0.7019
   11SAPS    HB 1350   2.934   0.082   5.968  2.5038  0.1329 -1.1598
   11SAPS    C2 1351   2.873  -0.062   6.105 -0.1327  0.4276 -0.2253
   11SAPS    HS 1352   2.876   0.015   6.186 -0.8264 -0.1267  0.3361
   11SAPS   O21 1353   2.910  -0.188   6.169  0.1315 -0.1956  0.6509
   11SAPS   C21 1354   3.033  -0.180   6.231 -0.4988  0.7976 -1.2784
   11SAPS   O22 1355   3.092  -0.080   6.254  0.0511  0.4430 -0.3499
   11SAPS   C22 1356   3.070  -0.321   6.265  0.4967  0.0170 -0.0544
   11SAPS   H2R 1357   3.084  -0.370   6.167  0.4827 -1.4469  0.6693
   11SAPS   H2S 1358   3.160  -0.326   6.330  1.3968 -1.6651 -1.3813
   11SAPS    C3 1359   2.718  -0.058   6.081 -0.0760  0.2216 -0.6349
   11SAPS    HX 1360   2.684  -0.147   6.022 -1.1601  0.7270 -0.7899
   11SAPS    HY 1361   2.693   0.024   6.010 -0.8306  1.5477  1.1448
   11SAPS   O31 1362   2.639  -0.038   6.197 -0.5871  0.0371  0.4856
   11SAPS   C31 1363   2.606  -0.141   6.260  0.6500 -0.1744  0.7445
   11SAPS   O32 1364   2.628  -0.258   6.230  0.0116  0.3128  0.2219
   11SAPS   C32 1365   2.515  -0.105   6.375 -0.2883  0.0211 -0.5970
   11SAPS   H2X 1366   2.416  -0.125   6.328  0.0796  1.3331 -1.9308
   11SAPS   H2Y 1367   2.524   0.002   6.401 -0.9260  0.6048 -2.7675
   11SAPS   C23 1368   2.953  -0.395   6.345  0.2813 -0.0913 -0.3904
   11SAPS   H3R 1369   2.879  -0.438   6.273  0.2435  0.8024 -0.8961
   11SAPS   H3S 1370   2.901  -0.326   6.415 -1.9959 -0.0740 -2.0419
   11SAPS   C24 1371   3.007  -0.515   6.422  0.0120 -0.4713  0.0683
   11SAPS   H4R 1372   3.096  -0.480   6.478 -1.5399  0.5249  1.9825
   11SAPS   H4S 1373   3.051  -0.588   6.351 -1.8883  0.1591 -1.8219
   11SAPS   C25 1374   2.913  -0.589   6.514 -0.4797 -0.0250  0.2981
   11SAPS   H5R 1375   2.864  -0.674   6.465 -0.0072  0.4651 -1.0778
   11SAPS   C26 1376   2.888  -0.553   6.647  0.3389  0.1108 -0.5850
   11SAPS   H6R 1377   2.818  -0.612   6.707 -0.6014  0.6374 -1.1501
   11SAPS   C27 1378   2.955  -0.441   6.715  0.5768  0.3386 -0.2727
   11SAPS   H7R 1379   3.036  -0.400   6.651  0.3293 -1.7683 -2.0011
   11SAPS   H7S 1380   3.008  -0.480   6.805  3.4523  3.9596 -0.2920
   11SAPS   C28 1381   2.852  -0.333   6.757  0.5478  0.1857  0.6731
   11SAPS   H8R 1382   2.815  -0.278   6.669  1.5226 -1.4612 -0.7789
   11SAPS   C29 1383   2.800  -0.301   6.877  0.3670  0.0014  0.2976
   11SAPS   H9R 1384   2.731  -0.215   6.888  1.5026  0.9697 -0.0784
   11SAPS  C210 1385   2.833  -0.360   7.014 -0.1245 -0.0737  0.5236
   11SAPS  H10R 1386   2.855  -0.278   7.086  0.7868 -0.2546  0.4492
   11SAPS  H10S 1387   2.923  -0.424   7.019  1.0296  1.4372 -0.3436
   11SAPS  C211 1388   2.716  -0.445   7.055  0.2026  0.5067 -0.2085
   11SAPS  H11R 1389   2.694  -0.518   6.976 -0.5864 -0.0680  0.5304
   11SAPS  C212 1390   2.645  -0.447   7.171 -0.6002  1.0128  0.3824
   11SAPS  H12R 1391   2.561  -0.518   7.182 -1.5363  1.8799 -1.0509
   11SAPS  C213 1392   2.679  -0.362   7.296  0.9931 -0.2499 -0.1192
   11SAPS  H13R 1393   2.741  -0.273   7.271  0.3906  0.4791  0.9276
   11SAPS  H13S 1394   2.745  -0.419   7.365  0.1926  2.1066  2.7254
   11SAPS  C214 1395   2.552  -0.321   7.361 -0.2344  0.7702  0.7177
   11SAPS  H14R 1396   2.486  -0.250   7.309 -1.4143 -0.1972  0.8632
   11SAPS  C215 1397   2.508  -0.369   7.478  0.4136 -0.3244  0.3262
   11SAPS  H15R 1398   2.418  -0.329   7.527  0.2788  0.2519 -0.3796
   11SAPS  C216 1399   2.587  -0.467   7.562 -0.0148 -0.6932 -0.0551
   11SAPS  H16R 1400   2.690  -0.431   7.583 -0.7844  1.3080  0.3593
   11SAPS  H16S 1401   2.589  -0.569   7.517 -0.3476 -0.6648 -0.1358
   11SAPS  C217 1402   2.531  -0.492   7.705  0.0019 -0.2547  0.1287
   11SAPS  H17R 1403   2.580  -0.585   7.739 -0.0797  0.2683  1.7257
   11SAPS  H17S 1404   2.422  -0.510   7.694 -0.0388  0.7083 -1.0804
   11SAPS  C218 1405   2.559  -0.392   7.821 -0.0499 -0.5311  0.5067
   11SAPS  H18R 1406   2.493  -0.304   7.812 -2.8461 -2.2790  2.8508
   11SAPS  H18S 1407   2.665  -0.360   7.814 -0.2984  0.1753 -0.0724
   11SAPS  C219 1408   2.529  -0.463   7.953  0.7073 -0.4512 -0.1237
   11SAPS  H19R 1409   2.581  -0.561   7.962 -0.4317 -1.4505 -3.7417
   11SAPS  H19S 1410   2.425  -0.500   7.950  0.3470  0.3567  1.5701
   11SAPS  C220 1411   2.563  -0.381   8.085  0.9612 -0.5132 -0.5241
   11SAPS  H20R 1412   2.498  -0.291   8.089  1.0221 -0.4746 -0.4340
   11SAPS  H20S 1413   2.671  -0.356   8.083  0.9968 -0.6371 -0.1495
   11SAPS  H20T 1414   2.541  -0.440   8.176  1.5235 -0.6090 -0.4544
   11SAPS   C33 1415   2.537  -0.190   6.496 -0.4902  0.3033 -0.1958
   11SAPS   H3X 1416   2.628  -0.154   6.550  0.7951 -0.1084 -2.0220
   11SAPS   H3Y 1417   2.541  -0.297   6.468  1.6421  0.3040 -0.0172
   11SAPS   C34 1418   2.424  -0.173   6.592  0.0424  0.3187 -0.5107
   11SAPS   H4X 1419   2.354  -0.259   6.586 -0.3570  0.6025 -0.0032
   11SAPS   H4Y 1420   2.365  -0.079   6.594 -0.4709  0.0568 -2.6735
   11SAPS   C35 1421   2.470  -0.189   6.736  0.5725 -0.4198  0.3319
   11SAPS   H5X 1422   2.532  -0.105   6.773  2.0052 -1.0970 -0.4718
   11SAPS   H5Y 1423   2.523  -0.287   6.739 -0.1182 -0.7709  1.3630
   11SAPS   C36 1424   2.360  -0.186   6.848 -0.0590  0.4123  0.1658
   11SAPS   H6X 1425   2.276  -0.251   6.813 -1.8581  1.4685  2.3384
   11SAPS   H6Y 1426   2.311  -0.088   6.863  0.2944  0.4358  1.2608
   11SAPS   C37 1427   2.416  -0.232   6.986  0.2740  0.2506  0.4402
   11SAPS   H7X 1428   2.510  -0.182   7.018 -0.2471  0.6241  1.4253
   11SAPS   H7Y 1429   2.439  -0.339   6.967 -1.3859 -0.2326  1.0709
   11SAPS   C38 1430   2.307  -0.221   7.092 -0.3401 -0.3961 -0.3787
   11SAPS   H8X 1431   2.328  -0.303   7.164  2.1872 -0.1473 -0.7813
   11SAPS   H8Y 1432   2.211  -0.246   7.043 -0.8296  1.8260 -0.6287
   11SAPS   C39 1433   2.294  -0.080   7.152 -0.8609 -0.0803 -0.1097
   11SAPS   H9X 1434   2.300  -0.018   7.061 -0.9422  0.5738  0.3258
   11SAPS   H9Y 1435   2.377  -0.058   7.222 -0.0767  1.1047 -1.3875
   11SAPS  C310 1436   2.158  -0.059   7.214  0.9618  0.3794 -0.2247
   11SAPS  H10X 1437   2.078  -0.071   7.137  0.1394  1.5828  0.4167
   11SAPS  H10Y 1438   2.156   0.050   7.238  2.4237  0.1543  0.9775
   11SAPS  C311 1439   2.112  -0.154   7.328  0.2546  0.2994  0.2823
   11SAPS  H11X 1440   2.119  -0.260   7.294 -1.0963  0.0475  0.7322
   11SAPS  H11Y 1441   2.006  -0.134   7.356 -0.1508  1.4624 -2.0079
   11SAPS  C312 1442   2.203  -0.138   7.449 -0.3452  0.0375 -0.1063
   11SAPS  H12X 1443   2.305  -0.153   7.407  0.1483 -0.6917  1.3400
   11SAPS  H12Y 1444   2.165  -0.223   7.510  0.1739 -1.0541 -1.2668
   11SAPS  C313 1445   2.166  -0.016   7.536  0.2554 -0.5023  0.6827
   11SAPS  H13X 1446   2.059   0.013   7.527  0.6985  0.6476 -1.2524
   11SAPS  H13Y 1447   2.224   0.075   7.509 -0.6907  0.5684  2.2223
   11SAPS  C314 1448   2.198  -0.038   7.686  0.4112  0.1807 -0.4387
   11SAPS  H14X 1449   2.297  -0.079   7.714  0.4454  2.3200  2.8709
   11SAPS  H14Y 1450   2.131  -0.117   7.725  1.5047  0.6044  2.4011
   11SAPS  C315 1451   2.203   0.083   7.771 -0.0999  0.0311 -0.1854
   11SAPS  H15X 1452   2.098   0.119   7.784  0.7693  2.8402 -0.6547
   11SAPS  H15Y 1453   2.256   0.166   7.719 -0.8685  0.4228 -0.3530
   11SAPS  C316 1454   2.287   0.066   7.899  0.3269 -0.3248  0.1556
   11SAPS  H16X 1455   2.394   0.062   7.870  0.6790  0.0756  1.3756
   11SAPS  H16Y 1456   2.251  -0.021   7.958 -1.0595 -0.6884 -1.1998
   11SAPS  C317 1457   2.263   0.184   7.999  0.3240  0.0613 -0.3643
   11SAPS  H17X 1458   2.158   0.159   8.025  0.8113 -1.7625 -0.1078
   11SAPS  H17Y 1459   2.270   0.280   7.943 -1.3680  0.7843  0.5968
   11SAPS  C318 1460   2.348   0.167   8.125 -0.1565 -0.5756  0.6994
   11SAPS  H18X 1461   2.455   0.182   8.103 -0.4184  0.2871  0.0199
   11SAPS  H18Y 1462   2.335   0.064   8.166  0.2449 -1.1201 -0.5368
   11SAPS  H18Z 1463   2.310   0.237   8.202 -2.2548 -0.7635 -0.1363
   12SAPS     N 1464   1.984   1.974   6.090 -0.1469  0.3252  0.3093
   12SAPS   HN1 1465   1.978   2.077   6.104  1.8663  0.5977 -0.6807
   12SAPS   HN2 1466   1.884   1.953   6.073  0.1579 -0.3806 -0.6173
   12SAPS   HN3 1467   2.026   1.929   6.175  1.1001 -0.3679 -0.6619
   12SAPS   C12 1468   2.077   1.956   5.972 -0.3871  0.8749  0.5647
   12SAPS  H12A 1469   2.090   1.849   5.959 -1.5228  0.8344 -0.3858
   12SAPS   C13 1470   2.036   2.014   5.836 -0.3999  1.1223  0.6249
   12SAPS  O13A 1471   1.925   2.074   5.820 -0.5489 -0.8759 -0.0670
   12SAPS  O13B 1472   2.113   1.981   5.741 -0.1229  0.2661  0.5293
   12SAPS   C11 1473   2.211   2.021   6.013 -0.2365  0.0228 -0.1176
   12SAPS  H11A 1474   2.195   2.129   6.034  0.4974 -0.2444  1.9043
   12SAPS  H11B 1475   2.277   2.017   5.924 -1.7033  3.3952 -1.4437
   12SAPS     P 1476   2.385   1.857   6.118 -0.2556  0.0553 -0.0577
   12SAPS   O13 1477   2.325   1.719   6.093 -0.1647 -0.0684  0.3718
   12SAPS   O14 1478   2.479   1.907   6.011  0.2337 -0.2953 -0.4952
   12SAPS   O12 1479   2.263   1.959   6.138 -0.1201  0.4995  0.8931
   12SAPS   O11 1480   2.460   1.852   6.258 -0.1391  0.5064 -0.2657
   12SAPS    C1 1481   2.519   1.973   6.312 -0.1805  0.7081  0.0077
   12SAPS    HA 1482   2.624   1.943   6.332 -0.6249 -0.8863  0.0192
   12SAPS    HB 1483   2.533   2.057   6.241  0.8362  0.2692 -0.3054
   12SAPS    C2 1484   2.447   2.029   6.435  0.5089  0.0980 -0.2812
   12SAPS    HS 1485   2.509   2.113   6.472  0.7004 -1.4833  3.2702
   12SAPS   O21 1486   2.435   1.923   6.542  0.1993  0.1586 -0.4638
   12SAPS   C21 1487   2.551   1.913   6.614 -0.0450 -0.0287 -0.1852
   12SAPS   O22 1488   2.644   1.987   6.612 -0.2196 -0.1910 -0.8921
   12SAPS   C22 1489   2.547   1.776   6.696 -1.0096 -0.2164  0.3694
   12SAPS   H2R 1490   2.464   1.787   6.768 -0.0756  1.8460  1.1652
   12SAPS   H2S 1491   2.521   1.696   6.624 -1.0835 -0.2185  0.3980
   12SAPS    C3 1492   2.312   2.083   6.389 -0.1611 -0.6316  0.2298
   12SAPS    HX 1493   2.235   2.006   6.366  0.0089 -0.8773  0.4863
   12SAPS    HY 1494   2.328   2.144   6.298  0.7186 -1.6380 -0.2955
   12SAPS   O31 1495   2.260   2.182   6.481 -0.0434  0.3461  0.1210
   12SAPS   C31 1496   2.172   2.145   6.571  0.2750  0.1919 -0.1028
   12SAPS   O32 1497   2.106   2.042   6.569 -0.3054  0.5916 -0.7044
   12SAPS   C32 1498   2.164   2.253   6.681  0.8344 -0.0209  0.0806
   12SAPS   H2X 1499   2.086   2.325   6.646 -1.4517 -1.9481  1.0180
   12SAPS   H2Y 1500   2.258   2.310   6.693  0.0110  1.5812 -0.8878
   12SAPS   C23 1501   2.673   1.758   6.785 -0.3145  0.7755  0.0028
   12SAPS   H3R 1502   2.768   1.798   6.746  0.0134  0.8827  0.9001
   12SAPS   H3S 1503   2.681   1.647   6.781 -1.9283  0.6878 -1.2837
   12SAPS   C24 1504   2.653   1.805   6.933  0.0130  0.2650 -0.0975
   12SAPS   H4R 1505   2.739   1.771   6.994 -0.6193  0.1188  0.7137
   12SAPS   H4S 1506   2.564   1.753   6.973 -0.3250  0.7017 -0.2808
   12SAPS   C25 1507   2.635   1.955   6.948  0.1369 -1.1070  0.3801
   12SAPS   H5R 1508   2.725   2.009   6.913  0.1587 -0.2749  1.7168
   12SAPS   C26 1509   2.530   2.032   6.982  0.2330 -0.4911  0.0016
   12SAPS   H6R 1510   2.542   2.139   6.960 -2.7451 -0.0191  0.4934
   12SAPS   C27 1511   2.396   1.978   7.038 -0.1503 -0.2030 -0.6345
   12SAPS   H7R 1512   2.325   1.935   6.964  0.3102 -2.0082 -0.0627
   12SAPS   H7S 1513   2.348   2.072   7.071  0.6512  0.0834 -0.2807
   12SAPS   C28 1514   2.404   1.873   7.152  0.5426  0.6746 -0.2231
   12SAPS   H8R 1515   2.410   1.768   7.121 -0.0858  0.7375 -0.5775
   12SAPS   C29 1516   2.405   1.897   7.285 -0.6087  0.2635 -0.0987
   12SAPS   H9R 1517   2.417   1.809   7.349 -0.0656  0.8284  0.5905
   12SAPS  C210 1518   2.398   2.029   7.356  0.1110  0.2723  0.2749
   12SAPS  H10R 1519   2.313   2.031   7.429 -1.1007 -0.8250 -1.0719
   12SAPS  H10S 1520   2.378   2.117   7.292 -1.9568  0.1993  0.7632
   12SAPS  C211 1521   2.525   2.057   7.432 -0.0590  0.4835 -0.1128
   12SAPS  H11R 1522   2.611   2.074   7.366 -0.3208 -0.4750 -0.7062
   12SAPS  C212 1523   2.535   2.048   7.570  0.2534  0.5752  0.4403
   12SAPS  H12R 1524   2.634   2.059   7.617  0.1340 -0.7703  1.0197
   12SAPS  C213 1525   2.419   2.009   7.667 -0.2410 -0.2902 -0.7813
   12SAPS  H13R 1526   2.451   1.911   7.708  1.1430 -0.0995 -1.3852
   12SAPS  H13S 1527   2.319   1.991   7.621 -0.9985 -1.7941  1.3890
   12SAPS  C214 1528   2.413   2.111   7.779 -0.6321 -0.5839  0.0448
   12SAPS  H14R 1529   2.440   2.211   7.742 -0.6591 -0.8130 -0.5974
   12SAPS  C215 1530   2.408   2.091   7.912  0.2775 -0.3773 -0.0905
   12SAPS  H15R 1531   2.420   2.174   7.983  1.7662 -0.5464 -0.1282
   12SAPS  C216 1532   2.404   1.963   7.987  0.0450  0.3808  0.2758
   12SAPS  H16R 1533   2.484   1.939   8.060  0.7872 -0.6045 -0.8507
   12SAPS  H16S 1534   2.421   1.883   7.912  0.1245  1.2852 -0.6845
   12SAPS  C217 1535   2.276   1.967   8.075 -0.0385  0.1123  0.8092
   12SAPS  H17R 1536   2.230   1.871   8.106  1.1289 -1.1603 -1.3103
   12SAPS  H17S 1537   2.206   2.030   8.017 -0.3431  0.4384  1.5320
   12SAPS  C218 1538   2.298   2.044   8.202 -0.2445  0.3931  0.1303
   12SAPS  H18R 1539   2.318   2.148   8.167  0.4231  0.5128  0.8492
   12SAPS  H18S 1540   2.385   2.005   8.259 -1.2830  0.4070  1.7508
   12SAPS  C219 1541   2.166   2.045   8.269 -0.1015 -0.1606 -0.6879
   12SAPS  H19R 1542   2.136   1.940   8.291  0.0586  0.0720  0.6385
   12SAPS  H19S 1543   2.079   2.078   8.208 -2.0186 -1.7961  1.0702
   12SAPS  C220 1544   2.149   2.109   8.406 -0.8230 -0.0349  0.5191
   12SAPS  H20R 1545   2.162   2.219   8.397  2.0812 -0.0522  3.4527
   12SAPS  H20S 1546   2.236   2.077   8.468  0.3372  2.0917  0.0162
   12SAPS  H20T 1547   2.046   2.085   8.440 -0.7552 -0.4147  0.4550
   12SAPS   C33 1548   2.129   2.178   6.817  0.1345  0.0156  0.6464
   12SAPS   H3X 1549   2.211   2.108   6.846  0.1058 -0.4663 -0.3978
   12SAPS   H3Y 1550   2.034   2.124   6.801 -0.6250  1.6091 -0.3580
   12SAPS   C34 1551   2.109   2.273   6.936  0.0887  0.6304  0.3630
   12SAPS   H4X 1552   2.084   2.208   7.022 -0.1912 -0.5515 -0.5975
   12SAPS   H4Y 1553   2.029   2.345   6.909  0.2433 -0.0876 -2.1807
   12SAPS   C35 1554   2.230   2.359   6.989 -0.1937 -0.7784 -0.2759
   12SAPS   H5X 1555   2.308   2.401   6.923 -0.0316 -0.1848  0.2868
   12SAPS   H5Y 1556   2.288   2.292   7.057  0.7622  3.6544  3.5151
   12SAPS   C36 1557   2.172   2.475   7.060 -0.2163  0.4513  0.3732
   12SAPS   H6X 1558   2.071   2.452   7.102  0.2858  2.7008  3.0083
   12SAPS   H6Y 1559   2.151   2.553   6.984 -0.7739 -0.2560 -0.1988
   12SAPS   C37 1560   2.268   2.525   7.165 -0.0730 -0.1480 -0.0185
   12SAPS   H7X 1561   2.239   2.622   7.211  1.0833 -0.2966  1.0753
   12SAPS   H7Y 1562   2.369   2.548   7.124  0.1226 -0.7173  0.1369
   12SAPS   C38 1563   2.270   2.438   7.293  0.4438 -0.5127  0.4880
   12SAPS   H8X 1564   2.327   2.344   7.278  2.1593  0.6952 -0.7191
   12SAPS   H8Y 1565   2.165   2.410   7.316  0.3612 -0.4218  0.2293
   12SAPS   C39 1566   2.353   2.506   7.408 -0.4300  0.4391 -0.3060
   12SAPS   H9X 1567   2.325   2.612   7.421  0.9017  0.2786  4.8696
   12SAPS   H9Y 1568   2.463   2.496   7.395 -0.3500 -2.5706  2.0102
   12SAPS  C310 1569   2.322   2.451   7.545 -0.4163  0.6984 -0.0046
   12SAPS  H10X 1570   2.363   2.348   7.549 -1.9749  0.0965  0.9899
   12SAPS  H10Y 1571   2.211   2.443   7.543 -0.3536 -0.1176 -0.2260
   12SAPS  C311 1572   2.350   2.544   7.669 -0.4838 -0.5398 -0.8857
   12SAPS  H11X 1573   2.315   2.646   7.645 -0.7721 -0.3074  0.4795
   12SAPS  H11Y 1574   2.459   2.547   7.693 -1.0904 -0.6028  2.0299
   12SAPS  C312 1575   2.284   2.491   7.795  0.2002  0.6432  0.5444
   12SAPS  H12X 1576   2.324   2.388   7.799 -0.7380  0.2605  0.1625
   12SAPS  H12Y 1577   2.175   2.480   7.780  0.4024  0.7878 -1.1300
   12SAPS  C313 1578   2.313   2.595   7.905 -0.1694 -0.5003 -0.1422
   12SAPS  H13X 1579   2.271   2.696   7.890  2.4641  0.6790  0.1071
   12SAPS  H13Y 1580   2.424   2.600   7.905 -0.1936  0.1905  0.7121
   12SAPS  C314 1581   2.269   2.547   8.042  0.2777 -0.0411 -0.4831
   12SAPS  H14X 1582   2.335   2.460   8.064 -1.7919 -0.9232  2.5793
   12SAPS  H14Y 1583   2.166   2.505   8.040 -0.2331  1.2442 -1.7637
   12SAPS  C315 1584   2.289   2.654   8.143  0.1871  0.1800  0.6214
   12SAPS  H15X 1585   2.246   2.750   8.109 -2.1328 -0.5816  1.3233
   12SAPS  H15Y 1586   2.396   2.684   8.154  0.7832 -0.7811 -2.0820
   12SAPS  C316 1587   2.237   2.621   8.284  1.1174 -0.0107  0.2176
   12SAPS  H16X 1588   2.301   2.537   8.317  0.2762 -0.5378  0.5448
   12SAPS  H16Y 1589   2.131   2.588   8.272  0.6192  1.7907 -0.5705
   12SAPS  C317 1590   2.245   2.743   8.370  0.8429 -0.3716 -0.6363
   12SAPS  H17X 1591   2.194   2.725   8.468  1.6712  2.0813  0.2800
   12SAPS  H17Y 1592   2.175   2.822   8.335 -0.5959 -0.6856  1.4460
   12SAPS  C318 1593   2.388   2.797   8.397  0.6635 -0.1420 -0.7638
   12SAPS  H18X 1594   2.404   2.860   8.488 -2.1137  1.0076 -0.9852
   12SAPS  H18Y 1595   2.411   2.877   8.324 -5.7377  1.7942 -1.0105
   12SAPS  H18Z 1596   2.467   2.720   8.385  1.2908  0.2202  0.9199
   13SAPS     N 1597   3.645   5.246   6.235  0.1730  0.0950  0.8620
   13SAPS   HN1 1598   3.552   5.274   6.274 -0.2101 -2.7571  2.1441
   13SAPS   HN2 1599   3.638   5.166   6.169  2.9840  1.2618 -0.9007
   13SAPS   HN3 1600   3.712   5.220   6.311 -0.3977 -0.5648  1.1478
   13SAPS   C12 1601   3.697   5.361   6.152  0.6616  0.6990 -0.5237
   13SAPS  H12A 1602   3.719   5.443   6.218 -0.7172  0.5880  0.1035
   13SAPS   C13 1603   3.822   5.335   6.063 -0.3327  0.3485  0.1533
   13SAPS  O13A 1604   3.868   5.223   6.040 -0.3749 -0.2888  0.1933
   13SAPS  O13B 1605   3.852   5.432   5.984  0.0170 -0.7489 -0.2265
   13SAPS   C11 1606   3.582   5.412   6.058  0.3086 -0.1284  0.4565
   13SAPS  H11A 1607   3.568   5.334   5.980  2.2000  0.5209 -0.5755
   13SAPS  H11B 1608   3.619   5.505   6.010  1.1173 -1.3996 -1.4617
   13SAPS     P 1609   3.343   5.511   6.068 -0.1554  0.1409 -0.0499
   13SAPS   O13 1610   3.388   5.633   5.997 -0.6660 -0.8490 -0.1270
   13SAPS   O14 1611   3.265   5.407   5.994  0.5864  0.1329  0.2469
   13SAPS   O12 1612   3.467   5.438   6.126 -0.8862  0.6023  0.4499
   13SAPS   O11 1613   3.253   5.539   6.196  0.4456  0.0616  0.0124
   13SAPS    C1 1614   3.252   5.446   6.308 -0.2959  0.1171 -0.8376
   13SAPS    HA 1615   3.147   5.421   6.334 -0.8266  2.2610 -0.8611
   13SAPS    HB 1616   3.300   5.349   6.285  1.9749  0.5244  1.9254
   13SAPS    C2 1617   3.305   5.510   6.438 -0.6700  0.4616 -0.0579
   13SAPS    HS 1618   3.301   5.431   6.517 -1.9759 -0.3668 -0.9309
   13SAPS   O21 1619   3.221   5.631   6.459  0.0786 -0.0424 -0.2558
   13SAPS   C21 1620   3.210   5.665   6.585 -0.1248 -0.3009 -0.0924
   13SAPS   O22 1621   3.246   5.605   6.686 -0.6740  0.1389  0.1716
   13SAPS   C22 1622   3.122   5.789   6.590  0.3856 -0.4718 -0.1035
   13SAPS   H2R 1623   3.149   5.859   6.508 -3.4252  0.0769 -0.9816
   13SAPS   H2S 1624   3.023   5.743   6.570  0.6698 -0.5229 -1.4499
   13SAPS    C3 1625   3.458   5.551   6.424 -0.0679 -0.0383 -0.5938
   13SAPS    HX 1626   3.446   5.648   6.370  1.0722  0.6092  0.3094
   13SAPS    HY 1627   3.512   5.480   6.357 -1.4271 -1.6996  0.0263
   13SAPS   O31 1628   3.523   5.566   6.554  1.7345 -0.0492 -0.4743
   13SAPS   C31 1629   3.626   5.490   6.574 -0.5423  0.5766 -0.5865
   13SAPS   O32 1630   3.668   5.403   6.502 -0.0295 -0.3579  0.4557
   13SAPS   C32 1631   3.692   5.542   6.706  0.4207 -0.9494 -0.2285
   13SAPS   H2X 1632   3.610   5.557   6.780 -0.3529 -1.9477 -0.8683
   13SAPS   H2Y 1633   3.752   5.627   6.666  0.0309 -0.6520 -0.1897
   13SAPS   C23 1634   3.119   5.845   6.732 -0.0917 -0.2612  0.4910
   13SAPS   H3R 1635   3.220   5.892   6.744 -0.1084 -0.2060  0.4199
   13SAPS   H3S 1636   3.102   5.770   6.811 -1.5061  0.0976  0.5259
   13SAPS   C24 1637   3.016   5.960   6.737 -0.0370  1.0153  0.8775
   13SAPS   H4R 1638   3.052   6.045   6.676  0.4012  1.0294  1.1520
   13SAPS   H4S 1639   3.017   5.995   6.843 -1.9108  0.6045  1.0460
   13SAPS   C25 1640   2.877   5.922   6.703 -0.1076  1.0922 -0.2141
   13SAPS   H5R 1641   2.857   5.888   6.601 -3.0727 -1.0305  0.9876
   13SAPS   C26 1642   2.769   5.934   6.785  0.1765  0.1606 -0.3426
   13SAPS   H6R 1643   2.671   5.894   6.757  0.2304 -1.3832  1.5768
   13SAPS   C27 1644   2.773   5.986   6.929  0.1381 -1.0955 -0.4508
   13SAPS   H7R 1645   2.788   6.095   6.912 -0.4839 -0.7125  1.3580
   13SAPS   H7S 1646   2.861   5.953   6.989  0.8054  0.1405 -0.7304
   13SAPS   C28 1647   2.639   5.961   6.995  0.2784 -0.4721 -0.5644
   13SAPS   H8R 1648   2.555   5.919   6.938 -1.6029  0.8850  1.1047
   13SAPS   C29 1649   2.610   5.998   7.131  0.6085 -0.2956 -0.3096
   13SAPS   H9R 1650   2.506   5.981   7.162  0.5975 -0.4701 -0.4427
   13SAPS  C210 1651   2.702   6.059   7.239  0.6033 -0.3210  0.6613
   13SAPS  H10R 1652   2.650   6.135   7.301 -2.1607 -0.7375 -1.0627
   13SAPS  H10S 1653   2.781   6.120   7.190  0.0481  0.0276  0.1933
   13SAPS  C211 1654   2.754   5.960   7.337 -0.0000 -0.3088 -0.3662
   13SAPS  H11R 1655   2.682   5.903   7.398 -0.8974 -2.2461 -3.1555
   13SAPS  C212 1656   2.890   5.936   7.356  0.3739  0.4667 -0.0956
   13SAPS  H12R 1657   2.924   5.872   7.438 -2.1669  1.0698  1.4753
   13SAPS  C213 1658   3.003   5.992   7.278  0.0594 -0.3621  0.0177
   13SAPS  H13R 1659   2.983   5.999   7.169 -3.9016  1.4716  0.7659
   13SAPS  H13S 1660   3.089   5.925   7.300  0.2900 -0.0059  0.2156
   13SAPS  C214 1661   3.028   6.139   7.305  0.3569  0.2494  0.0482
   13SAPS  H14R 1662   2.992   6.184   7.398  2.3794  0.8032  0.5887
   13SAPS  C215 1663   3.101   6.214   7.223 -0.5337  1.2480  0.4487
   13SAPS  H15R 1664   3.131   6.316   7.250 -0.6291  1.3360  0.2266
   13SAPS  C216 1665   3.172   6.174   7.095  0.4775  0.5419 -0.0959
   13SAPS  H16R 1666   3.102   6.182   7.009 -0.8319 -1.4634  0.7595
   13SAPS  H16S 1667   3.206   6.069   7.087 -0.8162  0.2665 -2.5274
   13SAPS  C217 1668   3.295   6.263   7.056 -0.1351 -0.6000 -0.2203
   13SAPS  H17R 1669   3.367   6.256   7.141  0.3086 -0.9725 -0.6246
   13SAPS  H17S 1670   3.256   6.366   7.039 -0.6146 -0.5760  0.9762
   13SAPS  C218 1671   3.378   6.226   6.933 -0.0982  0.5380  0.4940
   13SAPS  H18R 1672   3.401   6.118   6.933  1.4793  0.8640  1.2660
   13SAPS  H18S 1673   3.476   6.274   6.955  0.1953  0.5314 -0.7428
   13SAPS  C219 1674   3.321   6.268   6.799  0.0067 -0.5512 -1.1561
   13SAPS  H19R 1675   3.287   6.374   6.798  2.1351  0.1762  0.3345
   13SAPS  H19S 1676   3.232   6.205   6.779  0.2336 -0.9394 -0.9296
   13SAPS  C220 1677   3.418   6.257   6.676 -0.1992 -0.0274  0.5415
   13SAPS  H20R 1678   3.400   6.333   6.597 -2.9969 -1.3801 -0.1903
   13SAPS  H20S 1679   3.425   6.152   6.642  2.1146  0.6325 -1.1352
   13SAPS  H20T 1680   3.519   6.280   6.718 -0.6551 -0.0667  1.6820
   13SAPS   C33 1681   3.797   5.441   6.764  0.4092  0.2301 -0.8846
   13SAPS   H3X 1682   3.864   5.400   6.686  0.4397  0.8625 -1.1956
   13SAPS   H3Y 1683   3.733   5.359   6.803  1.8480 -0.6288 -0.2678
   13SAPS   C34 1684   3.862   5.498   6.889 -0.2319  0.5082  0.0469
   13SAPS   H4X 1685   3.860   5.609   6.887  1.5529  0.5666  0.9738
   13SAPS   H4Y 1686   3.968   5.466   6.892 -0.4756 -0.2133  1.3635
   13SAPS   C35 1687   3.792   5.437   7.013  0.4645  0.1967  0.3901
   13SAPS   H5X 1688   3.797   5.327   7.000  2.4736  0.8286 -5.7544
   13SAPS   H5Y 1689   3.686   5.471   7.003  0.0559 -1.0234  0.5297
   13SAPS   C36 1690   3.847   5.474   7.147  0.9578  0.2661  0.1598
   13SAPS   H6X 1691   3.825   5.578   7.180 -1.8403  0.0971 -1.0316
   13SAPS   H6Y 1692   3.957   5.468   7.140  0.7983  0.2001 -2.7971
   13SAPS   C37 1693   3.789   5.379   7.254  0.1437 -0.0090 -0.8647
   13SAPS   H7X 1694   3.825   5.274   7.240  1.9644  0.2002  1.9956
   13SAPS   H7Y 1695   3.680   5.364   7.241  0.2984 -1.1274 -0.9454
   13SAPS   C38 1696   3.808   5.427   7.397  0.6861 -0.0875  0.0435
   13SAPS   H8X 1697   3.766   5.529   7.411 -0.2232 -0.4162 -0.2140
   13SAPS   H8Y 1698   3.916   5.430   7.421  0.3330 -0.6801  1.7756
   13SAPS   C39 1699   3.732   5.344   7.493  0.6291  0.2479 -0.1693
   13SAPS   H9X 1700   3.731   5.245   7.443  2.8888  1.6708 -3.1879
   13SAPS   H9Y 1701   3.630   5.386   7.500  0.4431  0.1828 -2.2058
   13SAPS  C310 1702   3.797   5.330   7.628  0.6772  0.1297  0.2276
   13SAPS  H10X 1703   3.817   5.433   7.666 -0.7068  0.2503  0.6472
   13SAPS  H10Y 1704   3.901   5.294   7.638  0.5709  0.7058  4.0542
   13SAPS  C311 1705   3.708   5.261   7.740  0.3529  0.1587  0.0874
   13SAPS  H11X 1706   3.677   5.161   7.705 -1.1731  0.4998  0.4321
   13SAPS  H11Y 1707   3.616   5.324   7.744  0.6172  0.7666 -2.6062
   13SAPS  C312 1708   3.781   5.243   7.873 -0.1926 -0.2969 -1.0857
   13SAPS  H12X 1709   3.807   5.347   7.901 -1.5318 -0.1390 -0.4116
   13SAPS  H12Y 1710   3.870   5.178   7.856  0.8916  0.0688  2.7700
   13SAPS  C313 1711   3.701   5.181   7.981  0.9380 -0.2973 -0.6156
   13SAPS  H13X 1712   3.661   5.082   7.949 -1.4115 -0.1624  1.7457
   13SAPS  H13Y 1713   3.611   5.245   7.999  1.6290  1.2663 -2.5543
   13SAPS  C314 1714   3.774   5.164   8.123 -0.1765  0.5624  0.7302
   13SAPS  H14X 1715   3.810   5.265   8.152 -0.0187  0.5414  0.6068
   13SAPS  H14Y 1716   3.863   5.099   8.111 -0.8990  0.0161 -2.0449
   13SAPS  C315 1717   3.676   5.129   8.237  0.4926  0.2776 -0.3883
   13SAPS  H15X 1718   3.587   5.195   8.232  0.0009 -0.3645 -0.0964
   13SAPS  H15Y 1719   3.728   5.148   8.333  1.3497  0.8473 -0.9474
   13SAPS  C316 1720   3.637   4.980   8.247  0.8799  0.6794  0.8416
   13SAPS  H16X 1721   3.607   4.935   8.150 -2.5181 -2.5442  3.2322
   13SAPS  H16Y 1722   3.541   4.979   8.304 -0.5556 -0.1809 -1.4979
   13SAPS  C317 1723   3.739   4.883   8.301 -0.0411 -1.0547 -0.3806
   13SAPS  H17X 1724   3.839   4.908   8.259  0.2856  0.2665  1.1155
   13SAPS  H17Y 1725   3.714   4.779   8.271 -3.2277 -0.7102  0.8864
   13SAPS  C318 1726   3.750   4.880   8.459  0.6835 -0.3495  0.7352
   13SAPS  H18X 1727   3.818   4.801   8.497  1.4541 -0.2726 -0.4988
   13SAPS  H18Y 1728   3.646   4.863   8.495  1.2590 -0.7394  2.2876
   13SAPS  H18Z 1729   3.761   4.984   8.498 -0.8033 -0.6753  2.1128
   14SAPS     N 1730   3.163   1.429   5.824  0.4292  0.2801  0.5791
   14SAPS   HN1 1731   3.229   1.477   5.888  0.1559 -0.7027  1.6095
   14SAPS   HN2 1732   3.139   1.335   5.862 -0.3870  0.2526  0.0173
   14SAPS   HN3 1733   3.200   1.420   5.727  2.6634  4.0849  0.9655
   14SAPS   C12 1734   3.047   1.521   5.818 -0.4063 -0.7722  0.1125
   14SAPS  H12A 1735   3.007   1.539   5.917 -0.5200 -4.2538  0.7620
   14SAPS   C13 1736   3.074   1.659   5.750  0.5028 -0.0980 -0.3631
   14SAPS  O13A 1737   3.188   1.678   5.702  0.1945 -0.0027  0.0587
   14SAPS  O13B 1738   2.982   1.741   5.735  0.1017  0.3356 -0.5499
   14SAPS   C11 1739   2.929   1.453   5.746 -0.1634  0.6966  0.6491
   14SAPS  H11A 1740   2.977   1.394   5.665 -0.7458 -1.2795  1.6902
   14SAPS  H11B 1741   2.863   1.527   5.697  0.2154  1.2931  1.0352
   14SAPS     P 1742   2.886   1.201   5.825 -0.0692  0.1825  0.2555
   14SAPS   O13 1743   2.807   1.138   5.716 -0.0859 -0.7245  0.1995
   14SAPS   O14 1744   3.033   1.184   5.831  1.0700  0.0632 -0.2041
   14SAPS   O12 1745   2.849   1.363   5.826 -0.1528  0.5041 -0.3391
   14SAPS   O11 1746   2.827   1.152   5.960 -0.5063 -0.2734  0.0752
   14SAPS    C1 1747   2.832   1.237   6.074 -0.6553 -0.0054  0.6326
   14SAPS    HA 1748   2.940   1.252   6.096  0.5386 -1.4410 -3.7651
   14SAPS    HB 1749   2.782   1.334   6.052 -0.8911 -0.3506 -0.3741
   14SAPS    C2 1750   2.761   1.180   6.196  0.2174 -0.8380 -0.5582
   14SAPS    HS 1751   2.655   1.166   6.168 -0.3652  3.0308 -0.5203
   14SAPS   O21 1752   2.776   1.260   6.317 -0.3283 -0.4318  0.1212
   14SAPS   C21 1753   2.676   1.256   6.402 -0.1198 -0.1658  0.1707
   14SAPS   O22 1754   2.568   1.210   6.372  0.3656  0.9439  0.1426
   14SAPS   C22 1755   2.709   1.313   6.533  0.2439  0.2319 -0.2165
   14SAPS   H2R 1756   2.707   1.424   6.538  1.4248  0.2177  0.6182
   14SAPS   H2S 1757   2.634   1.281   6.610  1.1869 -2.0846 -0.2407
   14SAPS    C3 1758   2.828   1.044   6.221  0.6319  0.2911 -0.1230
   14SAPS    HX 1759   2.933   1.050   6.255  0.3563  1.1013  0.6154
   14SAPS    HY 1760   2.829   0.999   6.120  0.9994  1.1264 -0.4950
   14SAPS   O31 1761   2.755   0.970   6.327  0.2402 -0.0402  0.0310
   14SAPS   C31 1762   2.754   0.841   6.308 -0.5384 -0.6641  0.1039
   14SAPS   O32 1763   2.821   0.779   6.229 -0.0632  0.4689 -1.1339
   14SAPS   C32 1764   2.638   0.783   6.397 -0.0651 -1.0496 -0.1158
   14SAPS   H2X 1765   2.638   0.672   6.391  3.4522 -1.0946 -0.3211
   14SAPS   H2Y 1766   2.551   0.824   6.341 -0.7626  0.0756  1.7356
   14SAPS   C23 1767   2.847   1.257   6.580  0.2189 -1.0876  0.2239
   14SAPS   H3R 1768   2.936   1.289   6.521 -0.1226 -2.2973 -0.9722
   14SAPS   H3S 1769   2.846   1.146   6.580  0.3114 -1.0899  1.1630
   14SAPS   C24 1770   2.890   1.294   6.729 -0.5645 -0.1129 -0.4213
   14SAPS   H4R 1771   2.978   1.233   6.758 -0.9371  0.7253  2.6489
   14SAPS   H4S 1772   2.811   1.266   6.803 -0.5310  1.1559  0.1003
   14SAPS   C25 1773   2.904   1.445   6.752 -0.2549 -0.8117 -0.2557
   14SAPS   H5R 1774   2.869   1.515   6.674 -0.2422 -0.5714 -0.0440
   14SAPS   C26 1775   2.981   1.497   6.853 -0.0707 -0.3850  0.1397
   14SAPS   H6R 1776   3.003   1.604   6.856  2.1198 -0.8344  0.8123
   14SAPS   C27 1777   3.051   1.410   6.959  0.6287  0.2694 -0.2979
   14SAPS   H7R 1778   3.142   1.364   6.913 -0.1618 -1.7079  0.0770
   14SAPS   H7S 1779   2.983   1.325   6.976  3.1518 -1.5877  0.8956
   14SAPS   C28 1780   3.093   1.492   7.081  0.4635  0.0184  0.2455
   14SAPS   H8R 1781   3.196   1.532   7.073 -0.0624  1.1037 -1.4184
   14SAPS   C29 1782   3.025   1.521   7.189  0.0921  0.1561 -0.5741
   14SAPS   H9R 1783   3.074   1.567   7.276  1.0430  1.4628 -1.7770
   14SAPS  C210 1784   2.886   1.480   7.219  1.3055 -0.0522 -0.4253
   14SAPS  H10R 1785   2.862   1.379   7.181 -0.7291 -0.5291  2.0111
   14SAPS  H10S 1786   2.815   1.550   7.170  1.6170  0.6920  0.1814
   14SAPS  C211 1787   2.858   1.468   7.369  0.5363 -0.2882  0.1847
   14SAPS  H11R 1788   2.932   1.423   7.437  2.1399  0.5836 -0.9338
   14SAPS  C212 1789   2.751   1.519   7.430  0.5198  0.5514 -0.4030
   14SAPS  H12R 1790   2.748   1.496   7.537  2.6789  2.7543  0.1714
   14SAPS  C213 1791   2.637   1.600   7.367  0.2347  0.5076 -0.1531
   14SAPS  H13R 1792   2.644   1.625   7.260 -0.8790  2.3234  0.1823
   14SAPS  H13S 1793   2.619   1.691   7.429 -0.3517 -0.4678  1.1407
   14SAPS  C214 1794   2.513   1.514   7.361  0.1465  1.2540  0.3514
   14SAPS  H14R 1795   2.480   1.486   7.260  0.5734 -2.0125  1.0644
   14SAPS  C215 1796   2.421   1.493   7.457 -0.3650  0.2590  0.5900
   14SAPS  H15R 1797   2.327   1.441   7.432  0.1008 -0.2584 -0.0896
   14SAPS  C216 1798   2.430   1.559   7.591  0.0419  0.7252  0.1849
   14SAPS  H16R 1799   2.326   1.586   7.619  0.8517  1.6302  2.4701
   14SAPS  H16S 1800   2.498   1.647   7.598  2.7391 -1.4274  2.6090
   14SAPS  C217 1801   2.479   1.451   7.693  0.0297 -0.0490 -0.0481
   14SAPS  H17R 1802   2.572   1.416   7.644 -1.6034 -0.8665 -2.7279
   14SAPS  H17S 1803   2.396   1.376   7.701 -1.5457  1.6265 -0.3170
   14SAPS  C218 1804   2.505   1.512   7.832 -0.4308 -0.5550  0.1302
   14SAPS  H18R 1805   2.434   1.597   7.840  1.3280  1.1273 -1.5884
   14SAPS  H18S 1806   2.607   1.556   7.833 -0.1687 -1.1571 -0.0591
   14SAPS  C219 1807   2.477   1.417   7.948  0.3742  0.5161 -0.3513
   14SAPS  H19R 1808   2.558   1.342   7.942 -0.0249  0.0437  0.1670
   14SAPS  H19S 1809   2.378   1.371   7.931  0.9065 -0.9467  0.4996
   14SAPS  C220 1810   2.489   1.491   8.082 -0.1570 -0.8476 -0.2648
   14SAPS  H20R 1811   2.448   1.416   8.152  0.5053 -0.4973  0.5117
   14SAPS  H20S 1812   2.424   1.581   8.078  0.3434 -0.3567  1.8234
   14SAPS  H20T 1813   2.595   1.519   8.104 -0.6680 -0.5004  1.8991
   14SAPS   C33 1814   2.630   0.840   6.541  0.3365  0.2475 -0.3120
   14SAPS   H3X 1815   2.530   0.810   6.577 -0.0473 -1.9527 -3.0455
   14SAPS   H3Y 1816   2.633   0.950   6.526  0.6057  0.3686  0.5914
   14SAPS   C34 1817   2.724   0.775   6.643  0.2550  0.6797  0.0891
   14SAPS   H4X 1818   2.828   0.813   6.640  0.6139 -0.3635 -2.7102
   14SAPS   H4Y 1819   2.732   0.667   6.616 -1.0468  0.2212  1.4721
   14SAPS   C35 1820   2.664   0.787   6.782  0.5838 -0.5555 -0.3635
   14SAPS   H5X 1821   2.728   0.720   6.844  0.4909  1.4180  1.9412
   14SAPS   H5Y 1822   2.567   0.733   6.779 -0.3985  1.1131  0.5949
   14SAPS   C36 1823   2.658   0.927   6.831  0.2119 -0.3078 -0.4468
   14SAPS   H6X 1824   2.574   0.983   6.784 -0.3344 -2.0356 -1.5858
   14SAPS   H6Y 1825   2.742   0.991   6.795 -1.9828  2.2602 -1.1370
   14SAPS   C37 1826   2.656   0.941   6.984  0.4815  0.3946  0.6099
   14SAPS   H7X 1827   2.753   0.905   7.026 -0.5204 -0.5544  2.1387
   14SAPS   H7Y 1828   2.590   0.867   7.035 -0.6917 -0.9311 -2.6886
   14SAPS   C38 1829   2.629   1.085   7.037 -0.0402 -0.1340 -0.0247
   14SAPS   H8X 1830   2.532   1.119   6.994  0.2361  0.2228 -0.3634
   14SAPS   H8Y 1831   2.705   1.160   7.007 -0.5956  0.4410 -0.0149
   14SAPS   C39 1832   2.613   1.094   7.189 -0.0299  0.1624 -0.7491
   14SAPS   H9X 1833   2.537   1.021   7.226  0.3101 -0.2273 -0.8211
   14SAPS   H9Y 1834   2.586   1.199   7.213  1.5101  0.4709 -0.3091
   14SAPS  C310 1835   2.745   1.086   7.275 -0.2645 -0.0698 -0.2145
   14SAPS  H10X 1836   2.818   1.166   7.252 -0.2894 -0.8131 -3.0390
   14SAPS  H10Y 1837   2.788   0.989   7.242  0.0021  0.2687 -0.8559
   14SAPS  C311 1838   2.702   1.079   7.417 -0.6549 -0.1099 -0.1166
   14SAPS  H11X 1839   2.618   1.007   7.430 -0.7568  0.4520  2.5248
   14SAPS  H11Y 1840   2.678   1.175   7.467  0.0419 -1.2454  2.5101
   14SAPS  C312 1841   2.819   1.038   7.509 -0.2375 -0.7517  0.1333
   14SAPS  H12X 1842   2.915   1.073   7.465  0.1564 -2.2191 -0.2187
   14SAPS  H12Y 1843   2.828   0.927   7.501  0.3254 -0.7699  1.0549
   14SAPS  C313 1844   2.806   1.084   7.653 -0.8478  0.1790  0.3704
   14SAPS  H13X 1845   2.704   1.056   7.688 -1.2984 -1.2378 -1.9612
   14SAPS  H13Y 1846   2.800   1.194   7.648  0.9866  0.1928 -3.4000
   14SAPS  C314 1847   2.917   1.035   7.747 -0.0264  0.7183  0.4586
   14SAPS  H14X 1848   3.003   1.100   7.723 -0.0607  1.1008  1.3566
   14SAPS  H14Y 1849   2.947   0.928   7.742 -0.5514  0.5918 -0.0749
   14SAPS  C315 1850   2.890   1.063   7.902  0.4168  0.2335 -1.0831
   14SAPS  H15X 1851   2.850   1.167   7.907  1.4818  0.5650  1.4923
   14SAPS  H15Y 1852   2.987   1.050   7.954  0.1127  1.0351 -0.3018
   14SAPS  C316 1853   2.779   0.970   7.956  0.3406  0.2699  0.1885
   14SAPS  H16X 1854   2.800   0.864   7.930  0.4126  0.0955  0.9594
   14SAPS  H16Y 1855   2.690   0.999   7.894  1.4384  1.3909 -0.8912
   14SAPS  C317 1856   2.749   0.983   8.108  0.6593  0.0029  0.4533
   14SAPS  H17X 1857   2.719   1.090   8.114 -0.3752 -0.2760  0.3342
   14SAPS  H17Y 1858   2.831   0.953   8.177  0.6414 -0.4325  0.2911
   14SAPS  C318 1859   2.623   0.920   8.165 -0.3676  0.1397 -0.1562
   14SAPS  H18X 1860   2.643   0.811   8.159  0.0466  0.3209 -2.4176
   14SAPS  H18Y 1861   2.529   0.940   8.109 -1.2388  2.7152  2.1211
   14SAPS  H18Z 1862   2.611   0.964   8.267 -1.0852  0.3716 -0.3331
   15SAPS     N 1863   2.959   0.749   6.015 -0.2229 -0.1638  0.3695
   15SAPS   HN1 1864   3.010   0.840   6.019 -2.3688  1.0602  0.9838
   15SAPS   HN2 1865   2.875   0.749   6.075  0.1756 -0.2255  0.9267
   15SAPS   HN3 1866   3.023   0.676   6.052 -0.1338  0.7874  2.1502
   15SAPS   C12 1867   2.907   0.697   5.892 -0.1582 -1.1066  0.2398
   15SAPS  H12A 1868   2.906   0.783   5.827  0.8828 -2.2458 -1.3262
   15SAPS   C13 1869   2.989   0.587   5.818  0.4797 -0.2778  0.0377
   15SAPS  O13A 1870   3.111   0.584   5.849  0.1043 -0.4880  0.4817
   15SAPS  O13B 1871   2.937   0.512   5.735 -0.0343  0.5953  0.4940
   15SAPS   C11 1872   2.768   0.651   5.927 -0.1001  0.2979 -0.1211
   15SAPS  H11A 1873   2.771   0.571   6.004 -1.3903  1.0173  0.7014
   15SAPS  H11B 1874   2.721   0.603   5.838  1.6076 -0.9373 -0.3851
   15SAPS     P 1875   2.540   0.739   6.010 -0.0065  0.0753 -0.3428
   15SAPS   O13 1876   2.473   0.862   6.064  0.0019  0.1203 -0.1109
   15SAPS   O14 1877   2.478   0.678   5.895  0.1191 -0.0393 -0.4344
   15SAPS   O12 1878   2.692   0.765   5.975 -0.0645  0.0566 -0.4568
   15SAPS   O11 1879   2.552   0.631   6.125  0.2930  0.6284  0.0405
   15SAPS    C1 1880   2.522   0.492   6.094  0.4564  1.0764  0.1513
   15SAPS    HA 1881   2.412   0.478   6.096  0.6472 -0.4377  0.9240
   15SAPS    HB 1882   2.568   0.456   6.000  1.8237  0.4103  1.0517
   15SAPS    C2 1883   2.582   0.394   6.196 -0.0472  0.2287 -0.7690
   15SAPS    HS 1884   2.551   0.292   6.166  0.2445  0.2070 -0.9894
   15SAPS   O21 1885   2.550   0.436   6.325 -0.2436  0.5163  0.0087
   15SAPS   C21 1886   2.452   0.379   6.376 -0.2564  0.4262 -0.1210
   15SAPS   O22 1887   2.374   0.296   6.322 -0.4393  0.2042  0.4236
   15SAPS   C22 1888   2.435   0.439   6.522  0.0975  0.1769 -0.4151
   15SAPS   H2R 1889   2.416   0.548   6.518 -0.6465  0.0385 -0.7738
   15SAPS   H2S 1890   2.348   0.377   6.554 -1.6470  1.9881 -1.4919
   15SAPS    C3 1891   2.740   0.379   6.195  0.2346 -0.4576  0.0349
   15SAPS    HX 1892   2.777   0.483   6.204  0.9805 -0.7116 -0.0668
   15SAPS    HY 1893   2.775   0.340   6.096  0.4194  1.6990 -0.7762
   15SAPS   O31 1894   2.788   0.297   6.303  0.2643 -0.5271 -0.4094
   15SAPS   C31 1895   2.920   0.299   6.326  0.0314  0.1083  0.2426
   15SAPS   O32 1896   3.000   0.332   6.242  0.1288  0.6220 -0.3902
   15SAPS   C32 1897   2.947   0.249   6.464  0.5717  0.1769  0.5257
   15SAPS   H2X 1898   3.048   0.201   6.465  1.0184  1.0998  0.2305
   15SAPS   H2Y 1899   2.877   0.168   6.492  2.5372 -2.1523 -1.0068
   15SAPS   C23 1900   2.566   0.407   6.606  0.1119 -0.4260  0.0486
   15SAPS   H3R 1901   2.552   0.448   6.708  0.7589  0.5154 -0.2412
   15SAPS   H3S 1902   2.650   0.458   6.555 -1.1131 -1.2085 -2.8647
   15SAPS   C24 1903   2.604   0.262   6.635  0.0800  0.7628  1.0639
   15SAPS   H4R 1904   2.701   0.263   6.688  1.0789  0.1772 -0.7304
   15SAPS   H4S 1905   2.624   0.200   6.545 -2.2589  2.3749 -0.6471
   15SAPS   C25 1906   2.516   0.189   6.726 -0.2010  0.0218  0.4341
   15SAPS   H5R 1907   2.438   0.134   6.670 -1.9106  2.5781  0.2342
   15SAPS   C26 1908   2.507   0.203   6.859  0.3769  0.4532 -0.4570
   15SAPS   H6R 1909   2.432   0.143   6.914  2.2038  0.7565  2.4997
   15SAPS   C27 1910   2.598   0.282   6.953 -0.4298  0.4827 -0.2424
   15SAPS   H7R 1911   2.547   0.352   7.022 -2.3580 -1.4795  0.3896
   15SAPS   H7S 1912   2.670   0.344   6.896  1.5267 -4.0863 -3.0848
   15SAPS   C28 1913   2.684   0.184   7.038  0.3947 -0.3284  0.4983
   15SAPS   H8R 1914   2.759   0.123   6.986  1.0066  1.2646 -0.5104
   15SAPS   C29 1915   2.686   0.164   7.173  0.5603  0.0837 -0.2807
   15SAPS   H9R 1916   2.764   0.097   7.210  0.6219  0.6552  0.6370
   15SAPS  C210 1917   2.599   0.230   7.275 -0.3373  0.1300  0.8690
   15SAPS  H10R 1918   2.523   0.156   7.306 -0.3465  0.2329  1.0905
   15SAPS  H10S 1919   2.540   0.316   7.234 -0.2892 -0.5319 -0.6182
   15SAPS  C211 1920   2.685   0.267   7.387  0.0549 -0.2581  0.7023
   15SAPS  H11R 1921   2.775   0.321   7.356 -0.4388 -0.3478 -0.9289
   15SAPS  C212 1922   2.666   0.250   7.519 -0.4249 -0.0459  0.6268
   15SAPS  H12R 1923   2.742   0.262   7.598  1.2724 -1.5746 -0.7387
   15SAPS  C213 1924   2.542   0.176   7.572  0.6733 -0.6847 -0.0832
   15SAPS  H13R 1925   2.454   0.220   7.520  1.0407  1.6685  1.2067
   15SAPS  H13S 1926   2.516   0.192   7.679 -0.4394 -1.6869 -0.1909
   15SAPS  C214 1927   2.549   0.026   7.565 -0.6311  0.3202 -0.3860
   15SAPS  H14R 1928   2.498  -0.028   7.483 -0.5640 -0.0564 -0.1796
   15SAPS  C215 1929   2.622  -0.065   7.643  0.2245 -0.1507 -0.7943
   15SAPS  H15R 1930   2.623  -0.173   7.619 -1.9143 -0.5470  0.7977
   15SAPS  C216 1931   2.709  -0.032   7.758 -0.2170  0.5103  0.4114
   15SAPS  H16R 1932   2.666  -0.069   7.854  1.0513 -0.4912  0.5928
   15SAPS  H16S 1933   2.706   0.079   7.768 -0.3581  0.5410  0.0460
   15SAPS  C217 1934   2.852  -0.070   7.741 -0.4278 -0.9372 -0.0207
   15SAPS  H17R 1935   2.886  -0.029   7.644  0.1523  1.2375  1.0721
   15SAPS  H17S 1936   2.853  -0.180   7.755  0.2557 -0.7463  1.5272
   15SAPS  C218 1937   2.940  -0.014   7.856  0.1045  0.1231 -0.3445
   15SAPS  H18R 1938   3.037  -0.067   7.847  0.0383  0.3417 -2.7706
   15SAPS  H18S 1939   2.891  -0.044   7.951 -2.3049  0.2781 -1.5116
   15SAPS  C219 1940   2.970   0.139   7.852 -0.5234  0.1945  0.0952
   15SAPS  H19R 1941   3.006   0.164   7.954  0.0231 -1.0420  0.2242
   15SAPS  H19S 1942   2.877   0.196   7.832 -0.2800  0.0478 -1.5906
   15SAPS  C220 1943   3.078   0.165   7.749 -0.2828  0.8384 -0.2909
   15SAPS  H20R 1944   3.143   0.250   7.778 -0.2399  0.7030  0.0121
   15SAPS  H20S 1945   3.029   0.192   7.653  1.3438  2.6707 -0.6299
   15SAPS  H20T 1946   3.141   0.073   7.741  2.2866  2.5573 -0.4489
   15SAPS   C33 1947   2.953   0.362   6.563  1.0537  0.1170  0.0666
   15SAPS   H3X 1948   2.848   0.395   6.571  1.1377  0.6836 -1.1062
   15SAPS   H3Y 1949   3.016   0.447   6.531  0.6453  0.0949 -0.8014
   15SAPS   C34 1950   3.007   0.318   6.700  0.4087  0.7024  0.4471
   15SAPS   H4X 1951   3.117   0.306   6.691  0.1201 -0.9845 -1.0077
   15SAPS   H4Y 1952   2.971   0.217   6.729 -2.2605  1.4686 -0.0960
   15SAPS   C35 1953   2.981   0.432   6.804  0.1649  0.1020 -0.3928
   15SAPS   H5X 1954   2.877   0.441   6.842 -0.4378 -0.6894 -1.8061
   15SAPS   H5Y 1955   2.996   0.529   6.751 -4.0220 -0.0359 -2.0335
   15SAPS   C36 1956   3.074   0.427   6.921  0.6446  0.4329 -0.2436
   15SAPS   H6X 1957   3.173   0.471   6.896  1.2482 -0.5913  0.3084
   15SAPS   H6Y 1958   3.077   0.321   6.954  4.3854  0.2799 -0.8847
   15SAPS   C37 1959   3.020   0.519   7.042 -0.0294  0.1626  0.2889
   15SAPS   H7X 1960   2.914   0.489   7.054 -0.8607  1.9414 -2.1638
   15SAPS   H7Y 1961   3.011   0.624   7.006  1.4715  0.8359  1.8291
   15SAPS   C38 1962   3.105   0.513   7.174  0.5585  0.7219  0.2510
   15SAPS   H8X 1963   3.170   0.603   7.167 -0.5592  1.3896 -1.8428
   15SAPS   H8Y 1964   3.169   0.422   7.171  0.4262  0.6203  0.5128
   15SAPS   C39 1965   3.008   0.520   7.293 -0.2954  0.1835  0.0902
   15SAPS   H9X 1966   2.948   0.427   7.305 -0.6324  0.2534 -0.9656
   15SAPS   H9Y 1967   2.927   0.596   7.289 -1.4046 -0.9105  1.1729
   15SAPS  C310 1968   3.080   0.546   7.424  0.1546 -0.4938  0.0049
   15SAPS  H10X 1969   3.145   0.636   7.438  0.8537 -0.9952  0.0032
   15SAPS  H10Y 1970   3.150   0.462   7.443  0.1608 -0.2955  0.8911
   15SAPS  C311 1971   2.985   0.541   7.549  0.4280 -0.1893  0.1031
   15SAPS  H11X 1972   2.928   0.446   7.556 -0.9631  0.3379 -3.0245
   15SAPS  H11Y 1973   2.911   0.622   7.531  1.3255  0.2796 -1.5923
   15SAPS  C312 1974   3.057   0.573   7.679  0.0314  0.0151 -0.4482
   15SAPS  H12X 1975   3.125   0.660   7.668  0.3111 -0.3060 -1.2519
   15SAPS  H12Y 1976   3.108   0.479   7.707 -0.1257  0.3856  1.0897
   15SAPS  C313 1977   2.966   0.607   7.794  0.1772  0.4771 -0.3352
   15SAPS  H13X 1978   2.913   0.701   7.768  1.5113  1.5550  0.7521
   15SAPS  H13Y 1979   3.037   0.618   7.879  1.1622  3.6569 -1.4839
   15SAPS  C314 1980   2.860   0.497   7.825  0.2426 -0.2606  0.5710
   15SAPS  H14X 1981   2.920   0.403   7.831 -1.9158 -1.8479 -1.8687
   15SAPS  H14Y 1982   2.790   0.480   7.741  0.2863  1.3691  0.1916
   15SAPS  C315 1983   2.774   0.521   7.947 -0.1651  0.4576 -0.0566
   15SAPS  H15X 1984   2.728   0.623   7.946 -1.1696  0.0137  0.0730
   15SAPS  H15Y 1985   2.841   0.529   8.036 -1.0144 -0.4074  0.6703
   15SAPS  C316 1986   2.655   0.421   7.969  0.3132 -0.2318  1.4607
   15SAPS  H16X 1987   2.606   0.456   8.063 -1.5461 -0.1969  0.4912
   15SAPS  H16Y 1988   2.697   0.323   8.000  1.5584  0.6364  2.5862
   15SAPS  C317 1989   2.559   0.405   7.856 -0.5916  0.0266 -0.5997
   15SAPS  H17X 1990   2.486   0.328   7.889  0.2033 -0.5671 -0.1920
   15SAPS  H17Y 1991   2.606   0.349   7.772  2.8329 -0.4335  1.5281
   15SAPS  C318 1992   2.498   0.535   7.808 -0.5088  0.6306  0.3471
   15SAPS  H18X 1993   2.555   0.578   7.723  0.9877  0.2528  1.1453
   15SAPS  H18Y 1994   2.470   0.611   7.884  0.0017 -0.7823  1.9817
   15SAPS  H18Z 1995   2.400   0.503   7.767 -0.9184  2.4137 -0.1031
   16SAPS     N 1996   5.368   2.890   6.585 -0.0068 -0.7226  0.3243
   16SAPS   HN1 1997   5.423   2.839   6.657  0.6838 -2.3245 -1.2897
   16SAPS   HN2 1998   5.422   2.975   6.561 -0.4862 -0.0858  1.4426
   16SAPS   HN3 1999   5.274   2.909   6.625  0.5799  2.1354  0.3927
   16SAPS   C12 2000   5.356   2.789   6.482 -0.2394  0.4201  0.4139
   16SAPS  H12A 2001   5.309   2.842   6.401 -1.4679 -2.4873 -0.8270
   16SAPS   C13 2002   5.489   2.732   6.415  0.9014  0.2875 -0.8981
   16SAPS  O13A 2003   5.595   2.768   6.465 -0.5223 -0.5474  0.0516
   16SAPS  O13B 2004   5.483   2.647   6.322  0.2991  0.0088 -0.2070
   16SAPS   C11 2005   5.259   2.676   6.522  0.1509  0.6631 -0.1729
   16SAPS  H11A 2006   5.281   2.631   6.622 -1.8179  0.4128  0.1549
   16SAPS  H11B 2007   5.270   2.599   6.443  0.5742 -0.8049  1.2825
   16SAPS     P 2008   5.006   2.633   6.524 -0.2813 -0.1041 -0.1088
   16SAPS   O13 2009   4.898   2.731   6.543  0.3391  0.5841  0.7972
   16SAPS   O14 2010   5.024   2.561   6.397  0.0062 -0.1679 -0.1740
   16SAPS   O12 2011   5.129   2.732   6.538  0.4065 -0.1155 -0.2784
   16SAPS   O11 2012   5.025   2.536   6.650  0.0182 -0.2166  0.5574
   16SAPS    C1 2013   5.042   2.581   6.788  0.5077  0.1591 -0.6200
   16SAPS    HA 2014   5.123   2.656   6.796 -0.5062  1.0804  1.2412
   16SAPS    HB 2015   4.944   2.628   6.810  0.4774  0.6732 -1.8016
   16SAPS    C2 2016   5.084   2.466   6.885  0.2350  0.1479  0.1002
   16SAPS    HS 2017   5.081   2.499   6.991 -3.7394 -1.9202  0.7472
   16SAPS   O21 2018   5.211   2.415   6.854 -0.6278  0.3531  0.2512
   16SAPS   C21 2019   5.321   2.486   6.882 -0.2808  0.5382 -0.3599
   16SAPS   O22 2020   5.319   2.598   6.924  0.0826 -0.3824 -0.7607
   16SAPS   C22 2021   5.451   2.410   6.836  0.3469 -0.1881 -0.3856
   16SAPS   H2R 2022   5.432   2.303   6.862  0.5700  0.5789  3.1216
   16SAPS   H2S 2023   5.447   2.405   6.725 -0.8853 -2.0363 -0.2779
   16SAPS    C3 2024   4.983   2.351   6.880  0.0445 -0.0150 -0.6305
   16SAPS    HX 2025   4.952   2.313   6.781 -0.7568  0.5913 -0.6239
   16SAPS    HY 2026   4.884   2.392   6.912  0.7558  3.0694 -2.2519
   16SAPS   O31 2027   5.017   2.232   6.956 -0.0533 -0.0330 -0.2538
   16SAPS   C31 2028   5.106   2.143   6.901  0.8790  0.1138 -1.3702
   16SAPS   O32 2029   5.146   2.154   6.791  0.5214 -0.4347  0.3949
   16SAPS   C32 2030   5.161   2.039   7.008  0.9614 -0.0601 -0.6633
   16SAPS   H2X 2031   5.223   1.962   6.958 -0.2144 -0.1364 -2.0155
   16SAPS   H2Y 2032   5.081   1.988   7.066  1.4265  0.2900  0.2950
   16SAPS   C23 2033   5.582   2.474   6.887 -0.6077 -0.4055 -0.1109
   16SAPS   H3R 2034   5.582   2.583   6.867 -1.5586 -0.0046  1.9288
   16SAPS   H3S 2035   5.674   2.427   6.847 -0.0470  0.6320 -0.0489
   16SAPS   C24 2036   5.587   2.465   7.042 -0.5467  0.3995 -0.6309
   16SAPS   H4R 2037   5.575   2.366   7.090  0.6682  1.5130  2.0305
   16SAPS   H4S 2038   5.503   2.529   7.078 -1.3627  0.1027 -1.9600
   16SAPS   C25 2039   5.709   2.538   7.106 -0.2308 -0.4652 -0.7132
   16SAPS   H5R 2040   5.792   2.556   7.036 -0.1865  2.0343 -0.0557
   16SAPS   C26 2041   5.732   2.573   7.238  0.2137 -0.2543 -0.9196
   16SAPS   H6R 2042   5.819   2.631   7.273 -0.8995  0.0072  1.5966
   16SAPS   C27 2043   5.640   2.540   7.354 -0.2767 -0.2440  0.3857
   16SAPS   H7R 2044   5.696   2.528   7.448  0.3191  0.1391  0.0831
   16SAPS   H7S 2045   5.571   2.457   7.327 -1.0228 -0.8163  3.8291
   16SAPS   C28 2046   5.548   2.658   7.372  0.1322 -0.4187  0.3483
   16SAPS   H8R 2047   5.521   2.720   7.285 -3.5689  0.7516  2.2264
   16SAPS   C29 2048   5.484   2.698   7.485 -0.8580 -0.2309  0.9507
   16SAPS   H9R 2049   5.418   2.786   7.479 -0.5840 -0.0793  0.1023
   16SAPS  C210 2050   5.502   2.616   7.611  0.2792 -0.1376 -0.4064
   16SAPS  H10R 2051   5.609   2.592   7.628  0.4666  1.9876  1.5445
   16SAPS  H10S 2052   5.449   2.518   7.608  1.1008 -0.6042  0.2135
   16SAPS  C211 2053   5.455   2.687   7.734 -0.5769  0.1860  0.4141
   16SAPS  H11R 2054   5.408   2.786   7.726  0.9359  1.1795  3.1483
   16SAPS  C212 2055   5.505   2.650   7.849 -0.5522  0.3456 -0.0360
   16SAPS  H12R 2056   5.505   2.726   7.929 -0.8168  0.7738 -0.4361
   16SAPS  C213 2057   5.591   2.527   7.881 -0.2828  0.0788 -0.0959
   16SAPS  H13R 2058   5.597   2.462   7.791  2.2320  1.3279 -0.8651
   16SAPS  H13S 2059   5.539   2.461   7.954  0.0657  0.5312  0.5614
   16SAPS  C214 2060   5.725   2.584   7.915 -0.3448 -0.2225  0.0865
   16SAPS  H14R 2061   5.785   2.626   7.833 -1.3772  0.9488 -0.0829
   16SAPS  C215 2062   5.775   2.577   8.039 -0.1495  0.2537  0.2769
   16SAPS  H15R 2063   5.875   2.623   8.051 -1.1784  2.1523  1.9029
   16SAPS  C216 2064   5.719   2.504   8.161 -0.0939 -0.2048  0.1691
   16SAPS  H16R 2065   5.704   2.399   8.128  1.6996 -0.0531 -1.1739
   16SAPS  H16S 2066   5.620   2.550   8.180 -0.2436 -1.1940  1.9335
   16SAPS  C217 2067   5.815   2.530   8.277 -0.2914  0.0818  0.0947
   16SAPS  H17R 2068   5.831   2.637   8.301  1.6253  0.1220 -1.1788
   16SAPS  H17S 2069   5.909   2.489   8.233  0.7058  1.2315  1.1129
   16SAPS  C218 2070   5.793   2.434   8.394  0.0002 -0.4483 -0.3673
   16SAPS  H18R 2071   5.833   2.481   8.486  2.2684 -1.7067 -0.6939
   16SAPS  H18S 2072   5.844   2.337   8.378  0.2342 -0.2434 -0.8706
   16SAPS  C219 2073   5.650   2.412   8.442 -0.3994  0.1218 -0.5189
   16SAPS  H19R 2074   5.583   2.372   8.363 -0.0135  0.4020 -0.9901
   16SAPS  H19S 2075   5.598   2.503   8.480 -0.3249  0.1271 -0.4299
   16SAPS  C220 2076   5.641   2.309   8.554  0.0645  0.5625  0.1949
   16SAPS  H20R 2077   5.535   2.294   8.583  0.5797 -1.4544  1.1314
   16SAPS  H20S 2078   5.703   2.343   8.640 -1.5313 -1.2248  2.0888
   16SAPS  H20T 2079   5.693   2.219   8.515  1.2290  0.5582  1.6949
   16SAPS   C33 2080   5.272   2.104   7.099 -0.2256 -0.3204  0.1698
   16SAPS   H3X 2081   5.353   2.151   7.040  1.1331 -1.4567  1.0716
   16SAPS   H3Y 2082   5.321   2.019   7.152 -1.1160 -1.6233 -1.0603
   16SAPS   C34 2083   5.210   2.193   7.214 -0.1876 -0.8829 -0.1840
   16SAPS   H4X 2084   5.139   2.271   7.180  1.5823  0.7924 -0.1488
   16SAPS   H4Y 2085   5.290   2.257   7.257 -0.7055 -1.9031  2.4126
   16SAPS   C35 2086   5.150   2.108   7.329  0.4522  0.3242  0.1323
   16SAPS   H5X 2087   5.225   2.032   7.360  1.1256  2.0802  3.0114
   16SAPS   H5Y 2088   5.056   2.070   7.282  2.5404 -1.1007 -2.9995
   16SAPS   C36 2089   5.126   2.198   7.457 -0.0791 -0.2226  0.1681
   16SAPS   H6X 2090   5.079   2.296   7.431  1.4526  0.7373  0.9396
   16SAPS   H6Y 2091   5.217   2.229   7.513 -0.6964  0.2813  0.9070
   16SAPS   C37 2092   5.037   2.132   7.565  1.0742 -0.3229 -0.1083
   16SAPS   H7X 2093   4.934   2.110   7.527  1.2633 -1.3815 -0.0215
   16SAPS   H7Y 2094   5.035   2.198   7.654  1.7055  1.4360 -1.3569
   16SAPS   C38 2095   5.096   1.997   7.607  0.4807 -0.0669 -0.1459
   16SAPS   H8X 2096   5.196   2.013   7.654 -0.1923  2.6457  0.4600
   16SAPS   H8Y 2097   5.105   1.928   7.521  1.4571  1.6429 -1.4622
   16SAPS   C39 2098   5.008   1.932   7.713  0.1144 -1.0611 -0.3162
   16SAPS   H9X 2099   5.040   1.826   7.725 -0.9785 -1.2561  0.9921
   16SAPS   H9Y 2100   4.902   1.925   7.680 -0.1824 -1.7306  0.7714
   16SAPS  C310 2101   5.030   1.998   7.851  0.6118 -0.4566 -0.3124
   16SAPS  H10X 2102   4.979   2.097   7.853  1.5661  0.1130 -2.3636
   16SAPS  H10Y 2103   5.140   2.008   7.867  0.6210  0.8242 -1.0646
   16SAPS  C311 2104   4.975   1.912   7.971 -0.8963  0.3142 -0.3883
   16SAPS  H11X 2105   4.997   1.959   8.069  0.1246 -1.7564  0.3762
   16SAPS  H11Y 2106   5.018   1.811   7.954  0.0402  0.8651 -1.3575
   16SAPS  C312 2107   4.821   1.909   7.985 -0.6390 -0.0310 -0.0838
   16SAPS  H12X 2108   4.781   1.870   7.889 -1.8106  1.8051 -0.3470
   16SAPS  H12Y 2109   4.786   2.014   7.984  1.2853  0.6269 -1.1183
   16SAPS  C313 2110   4.764   1.823   8.099 -0.4209  0.5741 -0.6058
   16SAPS  H13X 2111   4.802   1.719   8.098 -0.8677  0.4155 -0.7644
   16SAPS  H13Y 2112   4.655   1.824   8.083 -0.8075  0.3694  1.7850
   16SAPS  C314 2113   4.812   1.875   8.235 -0.5328  1.3605 -0.3106
   16SAPS  H14X 2114   4.922   1.887   8.227 -0.7285  2.3428 -1.8779
   16SAPS  H14Y 2115   4.803   1.787   8.301  1.6972 -0.5118 -2.4251
   16SAPS  C315 2116   4.741   2.001   8.289  0.2067  0.1847  0.0978
   16SAPS  H15X 2117   4.641   1.978   8.330 -0.0314  0.4007 -0.3574
   16SAPS  H15Y 2118   4.722   2.066   8.201  2.7882 -0.0644 -0.6794
   16SAPS  C316 2119   4.826   2.078   8.390  0.4215  0.9107  0.5188
   16SAPS  H16X 2120   4.930   2.101   8.356 -0.0580 -0.0413 -1.6349
   16SAPS  H16Y 2121   4.822   2.023   8.487  0.0907  1.0795  0.5999
   16SAPS  C317 2122   4.758   2.208   8.427 -0.1556  0.2263  0.1782
   16SAPS  H17X 2123   4.650   2.189   8.444 -0.2081 -0.4069 -0.8139
   16SAPS  H17Y 2124   4.761   2.275   8.338  0.9783 -2.3252 -1.7673
   16SAPS  C318 2125   4.814   2.280   8.550 -0.1999  0.3793  0.1491
   16SAPS  H18X 2126   4.775   2.384   8.556 -2.0843 -0.4530  3.4996
   16SAPS  H18Y 2127   4.925   2.285   8.551 -0.0988 -0.3245 -2.5764
   16SAPS  H18Z 2128   4.778   2.242   8.648  0.8713  1.1885  0.8663
   17SAPC     N 2129   3.140   5.453  10.347 -0.3506  0.7843 -0.4273
   17SAPC   C12 2130   3.126   5.299  10.365  0.4775  0.5972  0.0264
   17SAPC  H12A 2131   3.077   5.263  10.276  1.3019  2.3702 -1.1616
   17SAPC  H12B 2132   3.053   5.275  10.441 -0.2885 -3.6740 -1.9265
   17SAPC   C13 2133   3.237   5.488  10.244  0.1756 -0.0579 -0.1886
   17SAPC  H13A 2134   3.337   5.460  10.271  0.3696  0.6059 -0.2203
   17SAPC  H13B 2135   3.203   5.435  10.155 -4.2320 -3.4445  3.2669
   17SAPC  H13C 2136   3.234   5.594  10.225  0.4991 -0.3219 -1.8410
   17SAPC   C14 2137   3.006   5.513  10.299 -0.0700  0.6192 -0.1906
   17SAPC  H14A 2138   3.028   5.614  10.265  0.4861  0.2932 -0.8040
   17SAPC  H14B 2139   2.971   5.468  10.207 -1.2845  2.1223 -0.4893
   17SAPC  H14C 2140   2.933   5.505  10.378  3.0111  0.8123  2.7549
   17SAPC   C15 2141   3.173   5.525  10.467  0.3207  0.3262  0.3162
   17SAPC  H15A 2142   3.258   5.478  10.514 -1.1069 -2.0643  0.5607
   17SAPC  H15B 2143   3.200   5.626  10.440  0.5308 -0.3094 -1.9245
   17SAPC  H15C 2144   3.089   5.525  10.534  0.1622 -0.5417  0.1168
   17SAPC   C11 2145   3.250   5.217  10.405  0.1219  0.4859 -0.1007
   17SAPC  H11A 2146   3.207   5.116  10.423  0.9462  0.4118  1.5505
   17SAPC  H11B 2147   3.308   5.245  10.495  0.7381 -2.5263  0.4942
   17SAPC     P 2148   3.461   5.128  10.297  0.2421  0.2939 -0.3504
   17SAPC   O13 2149   3.566   5.221  10.250 -0.1276  0.1571  0.3344
   17SAPC   O14 2150   3.479   5.061  10.430  0.1033  0.0342  0.0634
   17SAPC   O12 2151   3.328   5.205  10.289 -0.0051  0.2551 -0.4546
   17SAPC   O11 2152   3.438   5.015  10.191 -0.8963 -0.0976 -0.7892
   17SAPC    C1 2153   3.316   4.954  10.144  0.0909 -0.2982  0.0082
   17SAPC    HA 2154   3.330   4.845  10.134  0.6781 -0.2331  0.1164
   17SAPC    HB 2155   3.231   4.950  10.215  0.1638  0.4548  0.1507
   17SAPC    C2 2156   3.264   5.017  10.005  0.2659  0.1943 -0.4300
   17SAPC    HS 2157   3.179   4.963   9.961 -1.1208  3.1506 -1.5136
   17SAPC   O21 2158   3.379   5.022   9.925  0.5315  0.3211 -0.1162
   17SAPC   C21 2159   3.424   4.901   9.886 -0.9308  0.0818  0.1421
   17SAPC   O22 2160   3.367   4.797   9.897  1.0119 -0.6475 -0.0765
   17SAPC   C22 2161   3.555   4.914   9.824  0.5226 -0.3865 -0.1916
   17SAPC   H2R 2162   3.593   5.018   9.836 -0.3833  0.1313 -1.6912
   17SAPC   H2S 2163   3.627   4.850   9.879  0.7188  0.3704  0.4383
   17SAPC    C3 2164   3.204   5.151  10.015 -0.6468 -0.0160  0.4932
   17SAPC    HX 2165   3.284   5.222  10.043  0.9431 -0.7839 -1.9401
   17SAPC    HY 2166   3.128   5.154  10.096 -0.4903  1.1227  0.6074
   17SAPC   O31 2167   3.136   5.193   9.893  0.1095  0.2608  0.1291
   17SAPC   C31 2168   3.096   5.319   9.890  0.0295 -0.1029 -0.9008
   17SAPC   O32 2169   3.083   5.396   9.985 -0.1888  0.4089  0.1013
   17SAPC   C32 2170   3.072   5.360   9.748 -0.0414  0.2280  0.2513
   17SAPC   H2X 2171   3.019   5.457   9.753 -2.5080 -1.1500  1.5212
   17SAPC   H2Y 2172   3.000   5.292   9.698  0.9097 -1.0622  0.6161
   17SAPC   C23 2173   3.560   4.865   9.673  0.1148 -0.0110  0.7069
   17SAPC   H3R 2174   3.493   4.777   9.669 -0.0405  0.1352  0.1138
   17SAPC   H3S 2175   3.663   4.831   9.648 -0.4531 -1.1066 -0.1755
   17SAPC   C24 2176   3.505   4.971   9.580  0.5723 -1.1650 -0.0783
   17SAPC   H4R 2177   3.578   5.054   9.591 -0.2835 -0.2403 -1.3112
   17SAPC   H4S 2178   3.408   5.010   9.616  1.3185 -0.5051  1.2736
   17SAPC   C25 2179   3.499   4.917   9.438  0.8963 -0.4983  0.8879
   17SAPC   H5R 2180   3.568   4.835   9.414 -0.8067 -1.5082 -0.6722
   17SAPC   C26 2181   3.408   4.935   9.344 -0.2791  0.4122  0.3565
   17SAPC   H6R 2182   3.409   4.875   9.252  1.8468 -0.1115  0.7058
   17SAPC   C27 2183   3.288   5.024   9.367 -0.0046  0.1074  0.2421
   17SAPC   H7R 2184   3.254   5.084   9.280  0.8680  2.6931  1.6284
   17SAPC   H7S 2185   3.317   5.104   9.439  2.2947 -1.4924  1.1605
   17SAPC   C28 2186   3.171   4.943   9.421  0.3498 -0.7132 -0.3287
   17SAPC   H8R 2187   3.194   4.867   9.498  1.9973 -1.3450 -1.4397
   17SAPC   C29 2188   3.043   4.936   9.392  0.3831  0.2029 -0.2359
   17SAPC   H9R 2189   2.972   4.885   9.459  1.3227 -0.9398 -0.1009
   17SAPC  C210 2190   2.981   5.013   9.276  0.2847 -0.0870  0.2344
   17SAPC  H10R 2191   3.060   5.008   9.198 -0.6768 -0.8534 -0.7101
   17SAPC  H10S 2192   2.972   5.121   9.302  1.5565 -0.4459  2.3013
   17SAPC  C211 2193   2.847   4.971   9.234  0.9368 -0.0971 -0.7061
   17SAPC  H11R 2194   2.808   4.874   9.269 -1.4084  0.8080 -0.7152
   17SAPC  C212 2195   2.770   5.049   9.157 -0.6422  0.1656 -0.2818
   17SAPC  H12R 2196   2.691   4.992   9.105 -0.0203 -1.1712  0.2079
   17SAPC  C213 2197   2.807   5.182   9.094 -0.3054 -0.0283 -0.1569
   17SAPC  H13R 2198   2.913   5.181   9.063 -0.0557  2.3104  0.5232
   17SAPC  H13S 2199   2.804   5.259   9.174  0.8085  1.3531 -1.4226
   17SAPC  C214 2200   2.725   5.224   8.974  0.1978 -0.2264 -0.5749
   17SAPC  H14R 2201   2.663   5.147   8.925  2.8574  0.0827 -4.6677
   17SAPC  C215 2202   2.733   5.343   8.908 -0.3845  0.4625  0.7162
   17SAPC  H15R 2203   2.672   5.365   8.820  1.4771 -2.6664 -1.4395
   17SAPC  C216 2204   2.825   5.456   8.950 -0.3500 -0.2116  0.1939
   17SAPC  H16R 2205   2.892   5.427   9.035 -1.3301 -0.8319  0.7599
   17SAPC  H16S 2206   2.762   5.537   8.993 -0.4011  1.0906 -2.2888
   17SAPC  C217 2207   2.916   5.515   8.840 -0.1169 -0.3921 -0.7745
   17SAPC  H17R 2208   2.961   5.433   8.780  2.6569 -1.7156  2.9098
   17SAPC  H17S 2209   3.004   5.567   8.884 -0.5334  0.1949 -0.6410
   17SAPC  C218 2210   2.845   5.607   8.733 -0.3708 -0.9983 -0.3466
   17SAPC  H18R 2211   2.801   5.695   8.786 -1.1325 -2.2832  1.1899
   17SAPC  H18S 2212   2.764   5.553   8.681  0.6734 -2.1469 -0.7964
   17SAPC  C219 2213   2.943   5.659   8.625 -0.0794 -0.7474  0.2167
   17SAPC  H19R 2214   2.963   5.569   8.563  0.1728 -0.3149 -0.3351
   17SAPC  H19S 2215   3.036   5.703   8.669 -1.0661  2.1951 -0.5237
   17SAPC  C220 2216   2.876   5.764   8.535 -0.7796  1.1998  0.2777
   17SAPC  H20R 2217   2.950   5.829   8.484  1.0526 -1.2813 -0.3132
   17SAPC  H20S 2218   2.812   5.829   8.599 -2.2545 -0.3539  0.4283
   17SAPC  H20T 2219   2.816   5.710   8.458 -1.5081  2.7529 -0.2677
   17SAPC   C33 2220   3.208   5.365   9.668 -0.2524  0.4889  0.4749
   17SAPC   H3X 2221   3.242   5.263   9.640 -0.5606  0.2675  0.9050
   17SAPC   H3Y 2222   3.278   5.423   9.732 -1.7669  1.7273  1.0297
   17SAPC   C34 2223   3.185   5.447   9.534  0.2536 -0.1344  0.2662
   17SAPC   H4X 2224   3.282   5.484   9.494  1.0018  0.6837  2.7236
   17SAPC   H4Y 2225   3.127   5.541   9.551 -2.1492 -1.1585 -1.9702
   17SAPC   C35 2226   3.109   5.360   9.429 -0.2297 -0.6863  0.3547
   17SAPC   H5X 2227   3.002   5.363   9.455 -0.0057  1.2064  1.1007
   17SAPC   H5Y 2228   3.134   5.252   9.424 -0.0083 -0.6631  0.9914
   17SAPC   C36 2229   3.108   5.424   9.285  0.2839  0.1712 -0.8751
   17SAPC   H6X 2230   3.086   5.532   9.291  1.3394  0.4751 -2.3795
   17SAPC   H6Y 2231   3.019   5.378   9.237 -0.8818  1.5729 -0.0760
   17SAPC   C37 2232   3.226   5.408   9.193  0.1463  0.8802  0.2204
   17SAPC   H7X 2233   3.257   5.304   9.171  2.3173  1.5686 -0.1123
   17SAPC   H7Y 2234   3.321   5.446   9.238  2.0335 -1.9779 -1.2038
   17SAPC   C38 2235   3.186   5.465   9.052  0.7189  0.2243 -0.0225
   17SAPC   H8X 2236   3.134   5.561   9.070  0.4959  0.0101  0.4723
   17SAPC   H8Y 2237   3.125   5.382   9.010  1.2763  0.6687 -1.7503
   17SAPC   C39 2238   3.296   5.496   8.957  0.1856  0.1778  0.1000
   17SAPC   H9X 2239   3.387   5.513   9.020  1.8341 -0.1167 -2.1456
   17SAPC   H9Y 2240   3.270   5.588   8.900  3.1351 -0.1911 -1.9650
   17SAPC  C310 2241   3.324   5.383   8.864 -0.0219  0.1511  0.3778
   17SAPC  H10X 2242   3.251   5.382   8.780 -0.9242  0.8560  1.1329
   17SAPC  H10Y 2243   3.304   5.288   8.918 -2.5859  0.5889  0.2830
   17SAPC  C311 2244   3.473   5.391   8.813  0.2910  0.6045  0.0376
   17SAPC  H11X 2245   3.536   5.381   8.903  0.0553  1.5343  0.3083
   17SAPC  H11Y 2246   3.486   5.489   8.762 -1.4532  0.2132 -1.2361
   17SAPC  C312 2247   3.504   5.286   8.698 -0.1921 -0.1929 -0.2150
   17SAPC  H12X 2248   3.609   5.302   8.667 -0.2777 -0.5925 -0.7169
   17SAPC  H12Y 2249   3.440   5.291   8.608 -0.7400 -1.8300  0.0623
   17SAPC  C313 2250   3.495   5.140   8.749 -0.2293  0.4633  0.1582
   17SAPC  H13X 2251   3.487   5.066   8.667  1.4696  1.5391 -1.0047
   17SAPC  H13Y 2252   3.405   5.136   8.815 -1.0420  0.8721 -0.8981
   17SAPC  C314 2253   3.610   5.103   8.834 -0.3106  0.9510  0.1394
   17SAPC  H14X 2254   3.648   5.193   8.888  1.5304 -0.1448  0.7438
   17SAPC  H14Y 2255   3.698   5.062   8.780  0.0990 -0.3865  1.7478
   17SAPC  C315 2256   3.566   5.007   8.939  0.4191  0.3016 -0.4824
   17SAPC  H15X 2257   3.512   4.927   8.883 -1.2208  1.5557 -0.7318
   17SAPC  H15Y 2258   3.496   5.036   9.021  0.4137 -1.7382  0.2657
   17SAPC  C316 2259   3.680   4.931   9.017 -0.6426 -0.2240 -0.1978
   17SAPC  H16X 2260   3.631   4.863   9.091  0.2087  0.1519  0.7209
   17SAPC  H16Y 2261   3.744   5.008   9.065 -1.8246  1.1841 -0.8309
   17SAPC  C317 2262   3.772   4.844   8.928 -0.0082  0.2935  0.1898
   17SAPC  H17X 2263   3.857   4.808   8.990 -0.2949 -1.1912 -0.2502
   17SAPC  H17Y 2264   3.817   4.898   8.841  2.3467  0.2683  1.3610
   17SAPC  C318 2265   3.708   4.713   8.859 -0.2680  0.0033 -0.2091
   17SAPC  H18X 2266   3.780   4.658   8.795 -0.0644  1.1448 -0.9763
   17SAPC  H18Y 2267   3.662   4.647   8.936  0.1332 -0.1396 -0.0904
   17SAPC  H18Z 2268   3.635   4.756   8.787 -1.7904 -3.3052 -0.7199
   18SAPC     N 2269   3.577   4.728  10.545  0.4605 -0.1431 -0.2499
   18SAPC   C12 2270   3.658   4.597  10.522  0.1621 -0.7362  0.0299
   18SAPC  H12A 2271   3.585   4.522  10.500  0.3590 -0.3676 -1.9599
   18SAPC  H12B 2272   3.702   4.576  10.618 -2.8656 -2.9650  0.9791
   18SAPC   C13 2273   3.506   4.714  10.682 -0.3315  0.0849  0.2908
   18SAPC  H13A 2274   3.433   4.793  10.689 -0.8054 -0.0948 -2.1706
   18SAPC  H13B 2275   3.455   4.619  10.693  1.7112 -1.2017 -0.9314
   18SAPC  H13C 2276   3.576   4.720  10.764  0.0845  2.1727 -0.1998
   18SAPC   C14 2277   3.655   4.853  10.543  0.0204 -0.0881  0.0024
   18SAPC  H14A 2278   3.704   4.874  10.637  1.3155 -2.9258  0.0337
   18SAPC  H14B 2279   3.723   4.842  10.459 -0.8706 -3.6657 -0.3256
   18SAPC  H14C 2280   3.589   4.935  10.522  1.1430  0.7192 -0.4218
   18SAPC   C15 2281   3.485   4.728  10.426 -0.0936  0.5739  0.0819
   18SAPC  H15A 2282   3.544   4.725  10.336 -1.2101  0.6565 -0.6678
   18SAPC  H15B 2283   3.414   4.648  10.440  2.4476 -1.2558  2.9800
   18SAPC  H15C 2284   3.424   4.817  10.419 -0.9948 -0.1883 -2.3196
   18SAPC   C11 2285   3.767   4.602  10.411  0.2902  0.3133 -0.4921
   18SAPC  H11A 2286   3.723   4.631  10.313 -1.4161 -1.2944 -0.2286
   18SAPC  H11B 2287   3.795   4.498  10.385 -2.2973 -0.0631 -2.0424
   18SAPC     P 2288   4.002   4.631  10.529 -0.1311 -0.4122  0.4302
   18SAPC   O13 2289   4.082   4.750  10.556 -0.0471  0.4680 -0.3122
   18SAPC   O14 2290   3.948   4.556  10.650  0.5005 -0.0560 -0.0360
   18SAPC   O12 2291   3.884   4.676  10.437  0.2545  0.6877 -0.0017
   18SAPC   O11 2292   4.090   4.535  10.441  1.0245  0.8896  0.3964
   18SAPC    C1 2293   4.152   4.589  10.320  0.7033 -0.2444 -0.3165
   18SAPC    HA 2294   4.128   4.696  10.303  2.8553  0.6088  1.8702
   18SAPC    HB 2295   4.262   4.576  10.327  0.8168  0.7559 -0.1686
   18SAPC    C2 2296   4.111   4.499  10.208  0.3833  0.0644  0.4867
   18SAPC    HS 2297   4.192   4.503  10.132  1.1799 -0.4069  1.2938
   18SAPC   O21 2298   3.982   4.553  10.163 -0.3929 -0.0100 -0.4339
   18SAPC   C21 2299   3.955   4.531  10.040 -0.3998 -0.3888  0.1994
   18SAPC   O22 2300   4.034   4.490   9.955 -0.6297 -0.6487 -0.0204
   18SAPC   C22 2301   3.805   4.562  10.015  0.2072  0.3396  0.1665
   18SAPC   H2R 2302   3.754   4.533  10.109  2.3832 -0.3314  1.1702
   18SAPC   H2S 2303   3.784   4.671  10.008 -0.5688  0.0774 -1.7883
   18SAPC    C3 2304   4.110   4.342  10.246  0.4506  0.1279 -0.4873
   18SAPC    HX 2305   4.032   4.334  10.325  1.3350  0.5191  0.4435
   18SAPC    HY 2306   4.205   4.326  10.300  0.7962 -0.8341 -1.3615
   18SAPC   O31 2307   4.095   4.247  10.137  0.1712  0.6067  0.5074
   18SAPC   C31 2308   3.976   4.189  10.118  0.1676 -0.4062  0.2651
   18SAPC   O32 2309   3.882   4.191  10.191  0.1722  0.2484 -0.1277
   18SAPC   C32 2310   3.995   4.109   9.985 -0.0092 -0.6844  0.0095
   18SAPC   H2X 2311   4.034   4.009  10.013 -0.1420 -0.7020  0.1389
   18SAPC   H2Y 2312   4.067   4.161   9.919  0.0514 -0.6646  0.0932
   18SAPC   C23 2313   3.738   4.491   9.894 -0.4560  0.5073 -0.4285
   18SAPC   H3R 2314   3.630   4.499   9.918 -0.6798 -2.0691 -0.5217
   18SAPC   H3S 2315   3.756   4.382   9.886  0.5225  0.7962 -2.5227
   18SAPC   C24 2316   3.756   4.559   9.761 -0.2333 -0.6543  0.3168
   18SAPC   H4R 2317   3.797   4.661   9.780  1.4906 -1.0044 -1.3797
   18SAPC   H4S 2318   3.665   4.567   9.698  0.4237 -2.0094 -0.8152
   18SAPC   C25 2319   3.872   4.500   9.679  0.0868  0.0369  0.1862
   18SAPC   H5R 2320   3.973   4.494   9.722  0.3786 -0.2322 -0.5376
   18SAPC   C26 2321   3.867   4.465   9.550  0.3537 -0.2663 -0.4233
   18SAPC   H6R 2322   3.964   4.437   9.506  0.3488 -0.4283 -0.3304
   18SAPC   C27 2323   3.760   4.473   9.450 -0.2420  0.7661 -0.1973
   18SAPC   H7R 2324   3.693   4.554   9.487 -0.2949 -0.5627  2.7831
   18SAPC   H7S 2325   3.701   4.379   9.441  0.7160  0.2778 -1.5627
   18SAPC   C28 2326   3.814   4.511   9.317  0.2179 -1.0581  0.7286
   18SAPC   H8R 2327   3.912   4.561   9.310  0.8571 -2.2215  1.2532
   18SAPC   C29 2328   3.737   4.547   9.215 -0.6209  0.2042  0.7350
   18SAPC   H9R 2329   3.784   4.555   9.116 -1.4016 -0.5405  0.2987
   18SAPC  C210 2330   3.582   4.533   9.202 -0.9723 -0.3100 -0.0380
   18SAPC  H10R 2331   3.552   4.618   9.138  2.0715 -0.7582 -2.2003
   18SAPC  H10S 2332   3.534   4.565   9.296 -0.5857  0.8046 -0.2142
   18SAPC  C211 2333   3.516   4.399   9.174 -0.1033 -0.1224  0.4054
   18SAPC  H11R 2334   3.565   4.316   9.229  1.3023  1.4113  1.5152
   18SAPC  C212 2335   3.404   4.389   9.102  0.3069  0.2990 -0.4457
   18SAPC  H12R 2336   3.357   4.291   9.088 -0.2714  0.6780 -1.1863
   18SAPC  C213 2337   3.336   4.493   9.021 -0.2527 -1.1206 -0.0335
   18SAPC  H13R 2338   3.258   4.450   8.955 -0.0405  0.3865 -1.2824
   18SAPC  H13S 2339   3.419   4.541   8.964 -0.0659 -0.8235  0.4796
   18SAPC  C214 2340   3.281   4.605   9.104 -0.6058 -0.1807 -0.8609
   18SAPC  H14R 2341   3.306   4.608   9.211 -0.9843  0.9045 -0.7957
   18SAPC  C215 2342   3.183   4.688   9.067  0.0212 -0.8317  0.0707
   18SAPC  H15R 2343   3.151   4.762   9.141  0.7653  1.1290 -1.5077
   18SAPC  C216 2344   3.102   4.707   8.941 -0.8005  0.5454 -0.8617
   18SAPC  H16R 2345   2.999   4.671   8.960 -1.1269  1.5366 -0.7371
   18SAPC  H16S 2346   3.139   4.649   8.854 -0.3330  1.5250 -1.3229
   18SAPC  C217 2347   3.079   4.853   8.892  0.8636 -0.0892  0.0425
   18SAPC  H17R 2348   3.077   4.926   8.976  2.5914  0.0656 -0.0242
   18SAPC  H17S 2349   2.976   4.855   8.850  1.2034 -0.7084 -0.8465
   18SAPC  C218 2350   3.177   4.901   8.790  0.8672 -0.6409 -0.1223
   18SAPC  H18R 2351   3.212   4.813   8.733 -0.4356 -0.8047 -0.6944
   18SAPC  H18S 2352   3.270   4.927   8.846  0.0194 -3.1170  2.5720
   18SAPC  C219 2353   3.127   4.998   8.687 -0.1588 -0.9914  0.0728
   18SAPC  H19R 2354   3.057   4.949   8.615 -0.2080 -1.3344  0.3525
   18SAPC  H19S 2355   3.220   5.021   8.630  1.9497 -2.5869  2.7614
   18SAPC  C220 2356   3.051   5.122   8.744  0.9619  0.0610 -0.0641
   18SAPC  H20R 2357   3.095   5.152   8.841  0.3148  1.1704 -0.1161
   18SAPC  H20S 2358   2.947   5.090   8.765  1.0862 -0.7578 -0.6379
   18SAPC  H20T 2359   3.060   5.201   8.666  0.4247  0.1891  0.0020
   18SAPC   C33 2360   3.859   4.095   9.914 -0.2301  0.0137  0.2800
   18SAPC   H3X 2361   3.783   4.165   9.956 -0.3277  0.4109 -0.5502
   18SAPC   H3Y 2362   3.820   3.991   9.913 -0.2136  0.0199 -1.3512
   18SAPC   C34 2363   3.876   4.134   9.766  0.1173 -0.7770  0.0879
   18SAPC   H4X 2364   3.961   4.083   9.715  1.4295  1.0990  0.3364
   18SAPC   H4Y 2365   3.915   4.238   9.760  0.4825 -1.0346 -2.6440
   18SAPC   C35 2366   3.750   4.125   9.687 -0.3191  0.4011 -0.1247
   18SAPC   H5X 2367   3.761   4.212   9.618  0.6394 -1.1291 -1.9744
   18SAPC   H5Y 2368   3.663   4.118   9.756 -0.7629 -0.7765 -0.7961
   18SAPC   C36 2369   3.737   4.003   9.588 -0.7528  0.3725  0.2195
   18SAPC   H6X 2370   3.642   4.022   9.535  0.6949  0.1465 -2.5453
   18SAPC   H6Y 2371   3.733   3.911   9.651  4.3945 -1.0503 -1.2534
   18SAPC   C37 2372   3.857   3.989   9.489  0.6659 -0.4993  0.4193
   18SAPC   H7X 2373   3.951   3.952   9.535  1.2650 -0.1175 -0.4806
   18SAPC   H7Y 2374   3.881   4.088   9.444  1.3409 -0.4955  0.7731
   18SAPC   C38 2375   3.822   3.889   9.378 -0.4416 -0.1831 -0.3678
   18SAPC   H8X 2376   3.798   3.790   9.424 -2.7038  0.1277 -0.8076
   18SAPC   H8Y 2377   3.909   3.866   9.314 -2.2563 -2.4738 -2.0915
   18SAPC   C39 2378   3.708   3.918   9.285  1.0312 -0.2134 -0.0895
   18SAPC   H9X 2379   3.618   3.961   9.333  0.2096 -1.7564 -0.2003
   18SAPC   H9Y 2380   3.680   3.819   9.243 -1.4606  0.2362  0.4437
   18SAPC  C310 2381   3.740   4.013   9.168 -0.4124  0.1493 -0.0704
   18SAPC  H10X 2382   3.841   4.015   9.122 -0.6134  0.6811 -0.4883
   18SAPC  H10Y 2383   3.737   4.114   9.213 -3.3360 -0.3596  0.9392
   18SAPC  C311 2384   3.638   4.020   9.049 -0.2001 -0.1369  0.0904
   18SAPC  H11X 2385   3.533   4.026   9.082 -0.6117  0.8639 -1.3582
   18SAPC  H11Y 2386   3.641   3.921   8.998  1.9376  0.8834 -1.8509
   18SAPC  C312 2387   3.666   4.121   8.937 -0.4260  0.4119 -0.1203
   18SAPC  H12X 2388   3.767   4.093   8.900 -0.3196  1.0575 -0.3282
   18SAPC  H12Y 2389   3.666   4.226   8.976 -0.9474  0.3354  0.0912
   18SAPC  C313 2390   3.577   4.123   8.811  0.5015  0.2020 -0.6407
   18SAPC  H13X 2391   3.570   4.223   8.763 -1.1762  0.5518  0.3001
   18SAPC  H13Y 2392   3.473   4.115   8.850  0.2037 -0.7192 -1.6035
   18SAPC  C314 2393   3.588   4.015   8.699  0.7364  0.2638 -0.0084
   18SAPC  H14X 2394   3.601   3.912   8.739  1.4407  0.8582  1.3264
   18SAPC  H14Y 2395   3.680   4.020   8.636  1.6587 -0.4883  1.2432
   18SAPC  C315 2396   3.463   4.038   8.604 -0.3064  0.6426 -0.2166
   18SAPC  H15X 2397   3.472   4.135   8.551 -1.0855  0.1719 -1.2169
   18SAPC  H15Y 2398   3.375   4.043   8.672  0.3654 -0.2786  0.7403
   18SAPC  C316 2399   3.437   3.921   8.504  0.3597  0.6902  0.6184
   18SAPC  H16X 2400   3.334   3.929   8.462  0.4532 -0.0048  0.2424
   18SAPC  H16Y 2401   3.457   3.828   8.562 -0.4749 -1.9264 -3.0550
   18SAPC  C317 2402   3.549   3.936   8.386 -0.4203  0.2112 -0.4032
   18SAPC  H17X 2403   3.648   3.930   8.436 -0.7693 -2.3180  0.0408
   18SAPC  H17Y 2404   3.543   4.040   8.349 -0.5074 -0.0405 -1.0983
   18SAPC  C318 2405   3.536   3.833   8.274  0.1320 -0.0003 -0.0365
   18SAPC  H18X 2406   3.553   3.728   8.308 -0.0245  0.5550  1.8554
   18SAPC  H18Y 2407   3.590   3.848   8.178 -0.0734 -0.8864 -0.2907
   18SAPC  H18Z 2408   3.429   3.834   8.242 -0.1011  3.5560  0.6224
   19SAPC     N 2409   3.217   6.144  10.494 -0.2422 -0.2626 -0.4272
   19SAPC   C12 2410   3.238   6.159  10.346  0.5613 -0.9581  0.4869
   19SAPC  H12A 2411   3.225   6.065  10.295 -1.0953 -0.6839  0.3716
   19SAPC  H12B 2412   3.341   6.188  10.331 -0.1698  1.2911 -0.5234
   19SAPC   C13 2413   3.237   6.264  10.576  0.1221 -0.2041  0.2218
   19SAPC  H13A 2414   3.218   6.245  10.680  1.0030  3.9815  1.2691
   19SAPC  H13B 2415   3.337   6.304  10.566  0.2496 -0.5933 -0.0703
   19SAPC  H13C 2416   3.166   6.336  10.538  0.3381 -1.3572 -2.4913
   19SAPC   C14 2417   3.085   6.092  10.529  0.4074  0.3712  0.0287
   19SAPC  H14A 2418   3.011   6.148  10.473  0.0242 -1.4998 -1.3942
   19SAPC  H14B 2419   3.073   5.987  10.504  2.0747  0.1534  0.0998
   19SAPC  H14C 2420   3.050   6.100  10.630  1.4680 -1.0427  0.5225
   19SAPC   C15 2421   3.320   6.048  10.554  0.0768 -0.9321  0.3555
   19SAPC  H15A 2422   3.299   5.944  10.530  0.9361 -0.5835 -2.1360
   19SAPC  H15B 2423   3.420   6.064  10.516  0.6491 -0.7533  1.9148
   19SAPC  H15C 2424   3.317   6.057  10.661  1.9271  1.4927  0.2299
   19SAPC   C11 2425   3.153   6.263  10.269  0.2814 -0.4062 -0.3004
   19SAPC  H11A 2426   3.163   6.244  10.160 -2.1911  1.7885 -0.9545
   19SAPC  H11B 2427   3.208   6.359  10.283  1.3952 -1.3152  1.7138
   19SAPC     P 2428   2.960   6.431  10.313 -0.3893 -0.1749  0.0306
   19SAPC   O13 2429   2.819   6.419  10.333  0.3147  0.2766 -0.1689
   19SAPC   O14 2430   3.044   6.517  10.395  0.3917 -0.0570 -0.7704
   19SAPC   O12 2431   3.018   6.282  10.309 -0.0066 -0.3149  0.0591
   19SAPC   O11 2432   2.981   6.471  10.162  0.1559 -0.0068  0.4968
   19SAPC    C1 2433   2.981   6.608  10.123 -0.2527  0.2252  1.1397
   19SAPC    HA 2434   2.886   6.663  10.141  0.3130  0.7632  2.5582
   19SAPC    HB 2435   3.059   6.667  10.176  0.5641 -0.4663  0.7151
   19SAPC    C2 2436   3.011   6.608   9.968 -0.3884  0.9183  0.1845
   19SAPC    HS 2437   3.031   6.709   9.926  0.3101  0.8140  0.2687
   19SAPC   O21 2438   2.892   6.560   9.897  0.3498 -0.0987 -0.1503
   19SAPC   C21 2439   2.782   6.642   9.904  0.3121  0.0102  0.2377
   19SAPC   O22 2440   2.786   6.755   9.950  0.2330 -0.3627  0.5083
   19SAPC   C22 2441   2.662   6.589   9.839 -0.4027  0.1817 -0.0503
   19SAPC   H2R 2442   2.669   6.483   9.808  1.6618  0.7351 -1.5636
   19SAPC   H2S 2443   2.586   6.594   9.920 -0.2895 -0.4620  0.0932
   19SAPC    C3 2444   3.127   6.511   9.914 -0.5823 -0.5309  0.2851
   19SAPC    HX 2445   3.113   6.412   9.961 -1.2073 -0.4852  0.1981
   19SAPC    HY 2446   3.222   6.551   9.955  0.2466 -0.8032 -1.3326
   19SAPC   O31 2447   3.140   6.512   9.769  0.0354 -0.3091  0.4179
   19SAPC   C31 2448   3.088   6.419   9.699 -0.3621 -0.2140  1.1835
   19SAPC   O32 2449   3.022   6.324   9.737  0.4493  0.6401  0.2961
   19SAPC   C32 2450   3.096   6.461   9.541  0.5105  0.5288  0.5423
   19SAPC   H2X 2451   2.997   6.431   9.500 -0.2622 -0.8022  3.2997
   19SAPC   H2Y 2452   3.176   6.393   9.505 -1.2430 -0.2506 -2.0341
   19SAPC   C23 2453   2.619   6.669   9.718 -0.0337 -0.3869  0.1769
   19SAPC   H3R 2454   2.623   6.776   9.748  0.2634 -0.6664  1.1346
   19SAPC   H3S 2455   2.518   6.642   9.681  0.2047 -3.9744  1.9133
   19SAPC   C24 2456   2.725   6.659   9.604 -0.3504 -0.4810  0.3378
   19SAPC   H4R 2457   2.821   6.697   9.646 -0.6577 -0.1026  0.7052
   19SAPC   H4S 2458   2.709   6.727   9.517  1.2058  1.2064  1.3280
   19SAPC   C25 2459   2.750   6.518   9.560  0.4890 -0.6788 -0.0277
   19SAPC   H5R 2460   2.821   6.460   9.621  0.6845 -3.2190 -2.5930
   19SAPC   C26 2461   2.697   6.473   9.444  0.0257 -0.2736  0.3820
   19SAPC   H6R 2462   2.714   6.365   9.431 -1.2308 -0.5383  0.8433
   19SAPC   C27 2463   2.610   6.538   9.341  0.2331 -0.1072  0.2362
   19SAPC   H7R 2464   2.524   6.585   9.392  0.5368  2.3694 -1.4639
   19SAPC   H7S 2465   2.552   6.457   9.291  0.2052  0.1109 -0.0901
   19SAPC   C28 2466   2.670   6.634   9.246  0.1851 -0.1740  0.2516
   19SAPC   H8R 2467   2.736   6.702   9.302  1.6543 -2.4521  1.3351
   19SAPC   C29 2468   2.665   6.654   9.113  0.0644  0.0518 -0.2569
   19SAPC   H9R 2469   2.724   6.739   9.073 -0.8337  0.3361 -0.9890
   19SAPC  C210 2470   2.596   6.568   9.008  0.7366 -0.0999  0.2916
   19SAPC  H10R 2471   2.517   6.505   9.053 -0.4357  3.1641  2.9426
   19SAPC  H10S 2472   2.673   6.503   8.960 -0.5723  1.5742 -4.3986
   19SAPC  C211 2473   2.538   6.645   8.896  0.0388 -0.6337 -0.1840
   19SAPC  H11R 2474   2.437   6.690   8.907 -0.7333 -2.1195 -1.1182
   19SAPC  C212 2475   2.585   6.649   8.770  0.2263  0.4889 -0.4465
   19SAPC  H12R 2476   2.520   6.699   8.696 -1.7195  1.9836  2.1463
   19SAPC  C213 2477   2.706   6.580   8.713  0.4283  0.1981 -0.1942
   19SAPC  H13R 2478   2.751   6.513   8.790  2.3284  2.0766  0.3525
   19SAPC  H13S 2479   2.786   6.655   8.699  1.6349 -1.1279 -0.5247
   19SAPC  C214 2480   2.682   6.505   8.583 -0.3370  0.1028  0.7151
   19SAPC  H14R 2481   2.647   6.402   8.598  1.5343 -0.7434 -0.4689
   19SAPC  C215 2482   2.704   6.551   8.454 -0.1823 -0.5802  0.3790
   19SAPC  H15R 2483   2.707   6.485   8.367  0.1783  1.0946 -0.9077
   19SAPC  C216 2484   2.752   6.694   8.421  0.4111 -0.2981  0.4433
   19SAPC  H16R 2485   2.818   6.741   8.498 -0.3095  0.7970  0.4056
   19SAPC  H16S 2486   2.664   6.762   8.410 -0.0838 -1.2022 -1.2552
   19SAPC  C217 2487   2.835   6.708   8.290  0.4779  0.2608  0.0881
   19SAPC  H17R 2488   2.872   6.812   8.278  1.1693 -0.0473 -0.5457
   19SAPC  H17S 2489   2.770   6.684   8.203  0.3658  0.9500 -0.0152
   19SAPC  C218 2490   2.963   6.617   8.287 -0.3800 -0.1519  0.3640
   19SAPC  H18R 2491   2.939   6.509   8.288  2.6511 -0.8614  1.1484
   19SAPC  H18S 2492   3.030   6.628   8.375 -2.4749 -1.6518  2.2211
   19SAPC  C219 2493   3.038   6.629   8.158 -0.7462 -0.5362  0.2770
   19SAPC  H19R 2494   3.093   6.725   8.169  0.1977 -1.0805  0.3769
   19SAPC  H19S 2495   2.977   6.633   8.065  1.0602  2.0724 -0.8418
   19SAPC  C220 2496   3.135   6.516   8.138 -0.2189 -0.8201 -0.3735
   19SAPC  H20R 2497   3.180   6.496   8.237 -0.5800  0.3109  0.0303
   19SAPC  H20S 2498   3.221   6.552   8.076  1.0975 -1.0545  1.3029
   19SAPC  H20T 2499   3.082   6.428   8.096 -1.5304 -0.2039 -0.0319
   19SAPC   C33 2500   3.126   6.608   9.528  0.0642  0.2954 -0.2466
   19SAPC   H3X 2501   3.218   6.639   9.581 -1.0949  0.7892  1.5147
   19SAPC   H3Y 2502   3.053   6.681   9.569  2.3038  2.0825  0.6827
   19SAPC   C34 2503   3.151   6.650   9.376  0.2194  0.8277 -0.8378
   19SAPC   H4X 2504   3.248   6.606   9.348 -1.6822 -2.2537 -2.8016
   19SAPC   H4Y 2505   3.157   6.760   9.362 -0.3454  1.1118  0.9695
   19SAPC   C35 2506   3.033   6.611   9.284 -0.0668  0.6414  0.0277
   19SAPC   H5X 2507   2.949   6.663   9.335 -1.5255 -0.8606 -0.7818
   19SAPC   H5Y 2508   3.012   6.502   9.295 -1.6684  0.9829  0.5572
   19SAPC   C36 2509   3.049   6.655   9.136 -0.3718 -0.1441  0.3963
   19SAPC   H6X 2510   3.062   6.765   9.130 -0.6908 -0.0508  1.4413
   19SAPC   H6Y 2511   2.956   6.627   9.082 -0.6043  0.6891  0.3542
   19SAPC   C37 2512   3.160   6.587   9.061 -0.7441  0.1058 -0.4852
   19SAPC   H7X 2513   3.149   6.477   9.071  0.8345 -0.1919 -1.8502
   19SAPC   H7Y 2514   3.258   6.615   9.105 -1.0479  1.0946 -0.4274
   19SAPC   C38 2515   3.159   6.642   8.916 -0.4252  0.3802 -1.4315
   19SAPC   H8X 2516   3.173   6.752   8.909  0.4611  0.4652  1.0930
   19SAPC   H8Y 2517   3.055   6.641   8.875 -0.4053 -1.0099 -1.4549
   19SAPC   C39 2518   3.274   6.591   8.822  0.2498  0.2287 -0.2519
   19SAPC   H9X 2519   3.270   6.481   8.840 -0.5083  0.4339  0.9176
   19SAPC   H9Y 2520   3.374   6.621   8.861 -0.8508  2.1502  1.1972
   19SAPC  C310 2521   3.264   6.617   8.674 -0.1528 -0.3651  0.0221
   19SAPC  H10X 2522   3.173   6.575   8.625 -0.7542  2.6170 -1.5026
   19SAPC  H10Y 2523   3.357   6.577   8.628 -0.3925 -0.8207 -0.0708
   19SAPC  C311 2524   3.284   6.761   8.639 -0.0171 -0.1175  0.5306
   19SAPC  H11X 2525   3.385   6.791   8.672 -1.0142  1.4324  2.3213
   19SAPC  H11Y 2526   3.204   6.827   8.678 -0.7397 -0.3042 -0.6109
   19SAPC  C312 2527   3.281   6.787   8.483 -0.0652  0.3315 -0.3780
   19SAPC  H12X 2528   3.279   6.896   8.461  0.8493  0.2465 -0.9229
   19SAPC  H12Y 2529   3.189   6.749   8.433 -0.5012  2.2498 -1.0754
   19SAPC  C313 2530   3.404   6.744   8.402 -0.4661  0.3414  0.3107
   19SAPC  H13X 2531   3.408   6.634   8.393 -1.3352  0.4904 -2.4667
   19SAPC  H13Y 2532   3.500   6.783   8.443 -1.1045  2.5736 -0.2379
   19SAPC  C314 2533   3.405   6.799   8.255  0.4636  0.0155 -0.6581
   19SAPC  H14X 2534   3.403   6.910   8.258 -0.0479 -0.0188  0.8876
   19SAPC  H14Y 2535   3.311   6.763   8.210  1.5052 -3.8516  0.0163
   19SAPC  C315 2536   3.525   6.744   8.175 -0.3351  0.9200  0.1096
   19SAPC  H15X 2537   3.509   6.634   8.171 -2.7401  1.2612 -0.4789
   19SAPC  H15Y 2538   3.614   6.774   8.234  0.5615 -0.8632 -0.2919
   19SAPC  C316 2539   3.537   6.793   8.028  0.6447 -0.5937  0.6600
   19SAPC  H16X 2540   3.633   6.770   7.977 -0.3042 -1.6552 -0.6924
   19SAPC  H16Y 2541   3.514   6.901   8.031 -2.1097 -1.0592 -1.5942
   19SAPC  C317 2542   3.435   6.728   7.935  0.0093  0.1816 -0.2674
   19SAPC  H17X 2543   3.335   6.766   7.964  0.0704  1.6856 -1.9264
   19SAPC  H17Y 2544   3.444   6.619   7.957  0.5685  0.3786  0.4963
   19SAPC  C318 2545   3.467   6.759   7.787 -0.2257  0.2038 -0.6994
   19SAPC  H18X 2546   3.380   6.723   7.728 -1.4560  1.5238  0.2531
   19SAPC  H18Y 2547   3.544   6.690   7.748  0.0113  0.0624  0.0168
   19SAPC  H18Z 2548   3.483   6.867   7.764  0.5182  0.2108 -0.1483
   20SAPC     N 2549   2.893   3.260  11.045  0.3948  0.0681  0.3838
   20SAPC   C12 2550   2.776   3.337  11.111 -0.0623  1.0484  0.3425
   20SAPC  H12A 2551   2.804   3.344  11.216  0.7325  1.4688  0.1062
   20SAPC  H12B 2552   2.684   3.282  11.099 -0.4536  1.8896 -0.5630
   20SAPC   C13 2553   3.018   3.332  11.040 -0.2405  0.5078  0.4769
   20SAPC  H13A 2554   3.099   3.283  10.989 -0.9004  0.0901 -0.1746
   20SAPC  H13B 2555   3.019   3.434  11.006 -1.1894  0.8483  1.4126
   20SAPC  H13C 2556   3.063   3.338  11.138 -1.2820  0.8371  0.9392
   20SAPC   C14 2557   2.924   3.130  11.124 -0.1659  0.1359 -0.6150
   20SAPC  H14A 2558   2.831   3.075  11.131 -0.2158  0.0079 -2.1097
   20SAPC  H14B 2559   3.006   3.071  11.085 -0.8255 -2.3922  1.7241
   20SAPC  H14C 2560   2.966   3.156  11.220 -2.3852 -2.2871  1.0812
   20SAPC   C15 2561   2.856   3.224  10.911  0.4316 -0.2054  0.4554
   20SAPC  H15A 2562   2.769   3.159  10.910  0.1825  0.0848  2.0815
   20SAPC  H15B 2563   2.821   3.311  10.857  0.1923 -0.9655 -0.6477
   20SAPC  H15C 2564   2.934   3.171  10.858 -1.0351  0.6900 -2.7002
   20SAPC   C11 2565   2.758   3.483  11.057 -0.2869 -0.0067  0.2205
   20SAPC  H11A 2566   2.860   3.525  11.069  1.0506 -2.8747 -0.6962
   20SAPC  H11B 2567   2.691   3.544  11.120 -1.1798 -1.1688  0.4231
   20SAPC     P 2568   2.576   3.476  10.880  0.0377 -0.2720  0.5290
   20SAPC   O13 2569   2.505   3.408  10.989  0.1490  0.6427 -0.3961
   20SAPC   O14 2570   2.516   3.608  10.837  0.4461 -0.9457  0.2987
   20SAPC   O12 2571   2.725   3.505  10.921  0.3086 -0.0631  0.5952
   20SAPC   O11 2572   2.585   3.381  10.754 -0.2200 -0.4371 -0.6994
   20SAPC    C1 2573   2.681   3.410  10.651  0.1162 -0.0152  0.3927
   20SAPC    HA 2574   2.771   3.457  10.697 -0.2543  1.7910 -0.6712
   20SAPC    HB 2575   2.717   3.326  10.587 -1.0805  0.4089 -0.8623
   20SAPC    C2 2576   2.621   3.502  10.541  0.3085 -0.0520 -0.5470
   20SAPC    HS 2577   2.570   3.589  10.587  0.5387 -0.0219 -0.3550
   20SAPC   O21 2578   2.542   3.416  10.466 -0.1177 -0.0454 -0.3407
   20SAPC   C21 2579   2.424   3.466  10.423 -0.0287 -0.1602 -0.2869
   20SAPC   O22 2580   2.370   3.567  10.462 -0.2200 -0.5628 -0.4062
   20SAPC   C22 2581   2.378   3.368  10.315 -0.0734  0.5092  0.5188
   20SAPC   H2R 2582   2.463   3.359  10.245 -2.2522  0.4149 -2.2276
   20SAPC   H2S 2583   2.342   3.277  10.367  2.3364 -0.0957  1.1829
   20SAPC    C3 2584   2.731   3.562  10.442 -0.3936  0.0782  0.0839
   20SAPC    HX 2585   2.782   3.467  10.412 -1.0767 -0.3011  0.1046
   20SAPC    HY 2586   2.790   3.634  10.502  2.1117 -0.6425 -1.4309
   20SAPC   O31 2587   2.682   3.630  10.325 -0.6298  0.0172 -0.1018
   20SAPC   C31 2588   2.620   3.742  10.335 -0.2262 -0.3597 -0.3313
   20SAPC   O32 2589   2.593   3.799  10.441  0.1279 -0.1413  0.0894
   20SAPC   C32 2590   2.569   3.787  10.196  0.2047  0.4979  0.1956
   20SAPC   H2X 2591   2.641   3.860  10.153  0.7799 -0.0854  0.1501
   20SAPC   H2Y 2592   2.473   3.841  10.212  0.5236  1.7477 -1.8646
   20SAPC   C23 2593   2.259   3.427  10.242 -0.5162 -0.3429 -0.6988
   20SAPC   H3R 2594   2.288   3.520  10.188 -0.6190  1.6566  2.5816
   20SAPC   H3S 2595   2.182   3.465  10.313 -0.5110 -0.4319 -0.6455
   20SAPC   C24 2596   2.196   3.329  10.148  0.3158 -0.2009 -0.0810
   20SAPC   H4R 2597   2.109   3.389  10.115  0.1480 -0.6992 -0.5585
   20SAPC   H4S 2598   2.165   3.237  10.204  0.0673  0.3886  0.7569
   20SAPC   C25 2599   2.274   3.282  10.024 -0.3409 -0.2409  0.5754
   20SAPC   H5R 2600   2.371   3.235  10.045  0.2153  2.0159  3.3249
   20SAPC   C26 2601   2.233   3.296   9.889  0.5416  0.8943  0.4651
   20SAPC   H6R 2602   2.304   3.268   9.810 -0.1308  2.0734 -0.5657
   20SAPC   C27 2603   2.107   3.357   9.846 -0.1838 -0.2499  0.4276
   20SAPC   H7R 2604   2.115   3.467   9.859 -0.6761 -0.0183 -1.0707
   20SAPC   H7S 2605   2.032   3.318   9.918  0.4536  1.0937  1.8465
   20SAPC   C28 2606   2.065   3.319   9.704 -0.5664 -0.0454  0.2834
   20SAPC   H8R 2607   2.122   3.238   9.656  2.3094  2.3568 -0.4952
   20SAPC   C29 2608   1.985   3.386   9.624  0.7935 -0.1588 -1.0089
   20SAPC   H9R 2609   1.969   3.350   9.521 -0.7664  0.4954 -1.0096
   20SAPC  C210 2610   1.914   3.520   9.657 -0.1727 -0.2265 -0.1925
   20SAPC  H10R 2611   1.958   3.600   9.593 -0.4540 -0.1073 -0.2396
   20SAPC  H10S 2612   1.939   3.558   9.758  3.0194  0.2167 -1.1137
   20SAPC  C211 2613   1.765   3.510   9.642 -0.6564  0.1069 -0.8580
   20SAPC  H11R 2614   1.716   3.488   9.738 -0.2288 -3.4750 -1.3575
   20SAPC  C212 2615   1.702   3.505   9.526 -0.3617 -0.0370 -0.1747
   20SAPC  H12R 2616   1.598   3.471   9.535 -0.9512  1.9780  1.0033
   20SAPC  C213 2617   1.765   3.535   9.393  1.1014 -0.2240 -0.3304
   20SAPC  H13R 2618   1.815   3.443   9.355 -1.7116 -2.4250  1.0846
   20SAPC  H13S 2619   1.841   3.616   9.395 -0.5416  1.3196  2.6120
   20SAPC  C214 2620   1.658   3.581   9.301  0.3821 -0.6018 -0.5696
   20SAPC  H14R 2621   1.560   3.606   9.343  1.2480 -0.2789  1.2920
   20SAPC  C215 2622   1.671   3.576   9.164  0.5872  0.0760  0.3052
   20SAPC  H15R 2623   1.578   3.601   9.109  0.9285 -1.4978 -1.0033
   20SAPC  C216 2624   1.794   3.536   9.086 -0.0934 -0.3197 -0.1195
   20SAPC  H16R 2625   1.858   3.455   9.127 -0.2962 -1.3493 -1.7935
   20SAPC  H16S 2626   1.849   3.628   9.058 -0.0623 -0.0942  0.6550
   20SAPC  C217 2627   1.746   3.492   8.946 -0.0928  0.0292  0.1298
   20SAPC  H17R 2628   1.839   3.470   8.889 -1.3719 -1.0107 -1.6026
   20SAPC  H17S 2629   1.698   3.579   8.896  2.7034  2.0569  0.8610
   20SAPC  C218 2630   1.645   3.366   8.950 -0.2687 -0.2813  0.0969
   20SAPC  H18R 2631   1.541   3.396   8.922 -0.1206 -0.8560 -1.1258
   20SAPC  H18S 2632   1.640   3.332   9.055  1.4329  0.8110  0.5485
   20SAPC  C219 2633   1.679   3.239   8.873 -0.6003  0.2799  0.3883
   20SAPC  H19R 2634   1.604   3.160   8.897 -2.7594  2.5039  1.2392
   20SAPC  H19S 2635   1.778   3.205   8.908 -1.0450  0.2208  1.6234
   20SAPC  C220 2636   1.672   3.247   8.715  0.8796 -0.5827 -0.1670
   20SAPC  H20R 2637   1.566   3.270   8.689 -0.0230 -0.0728  3.6086
   20SAPC  H20S 2638   1.704   3.145   8.685  1.2978 -0.7673  0.8998
   20SAPC  H20T 2639   1.743   3.322   8.674  1.0358 -0.0388  1.0827
   20SAPC   C33 2640   2.536   3.666  10.104  0.2213  0.7830  0.0315
   20SAPC   H3X 2641   2.463   3.591  10.143  0.2417  1.1129  0.7101
   20SAPC   H3Y 2642   2.631   3.614  10.082 -0.5429 -0.7743  0.3120
   20SAPC   C34 2643   2.474   3.713   9.973 -0.2436 -0.2639  0.0856
   20SAPC   H4X 2644   2.548   3.765   9.910 -1.7656  0.6160 -1.0091
   20SAPC   H4Y 2645   2.384   3.774   9.995  0.4106  0.4569  0.8071
   20SAPC   C35 2646   2.427   3.589   9.901 -0.0657  0.1428 -1.2853
   20SAPC   H5X 2647   2.341   3.541   9.953  0.8539 -0.3235 -0.1689
   20SAPC   H5Y 2648   2.509   3.515   9.905 -0.6640 -0.4667 -0.0894
   20SAPC   C36 2649   2.388   3.616   9.757 -0.2347  0.1887  0.1065
   20SAPC   H6X 2650   2.316   3.700   9.761  1.0337  1.2740  0.6290
   20SAPC   H6Y 2651   2.335   3.527   9.717  0.1651  0.2032 -0.4573
   20SAPC   C37 2652   2.512   3.634   9.667  1.0821 -0.1039  0.6814
   20SAPC   H7X 2653   2.563   3.536   9.666 -0.5160 -0.9700  1.7298
   20SAPC   H7Y 2654   2.580   3.712   9.710 -0.1439  1.1032  0.4783
   20SAPC   C38 2655   2.478   3.664   9.519 -0.4658  0.3703  0.4288
   20SAPC   H8X 2656   2.564   3.656   9.449 -1.2617 -1.6309 -0.3427
   20SAPC   H8Y 2657   2.453   3.773   9.519  0.8643  0.6969 -0.9429
   20SAPC   C39 2658   2.358   3.589   9.451 -0.0541 -0.2725  0.1068
   20SAPC   H9X 2659   2.271   3.588   9.521 -0.4694  2.6690 -0.2756
   20SAPC   H9Y 2660   2.390   3.487   9.423  0.6204  0.4392 -1.7359
   20SAPC  C310 2661   2.307   3.658   9.331 -0.8639  0.4515 -0.8259
   20SAPC  H10X 2662   2.292   3.593   9.242 -2.3369 -0.0876 -0.1982
   20SAPC  H10Y 2663   2.383   3.734   9.306  0.5611 -0.8965 -0.6730
   20SAPC  C311 2664   2.164   3.709   9.357 -1.0240 -0.8962 -0.4610
   20SAPC  H11X 2665   2.174   3.804   9.413 -2.6844 -0.0319 -1.6050
   20SAPC  H11Y 2666   2.110   3.644   9.429  0.3564  1.3746  2.7664
   20SAPC  C312 2667   2.089   3.720   9.233 -0.0444  0.3559  0.5817
   20SAPC  H12X 2668   1.990   3.767   9.246 -0.0727  0.5775 -0.3877
   20SAPC  H12Y 2669   2.054   3.622   9.193  0.4796 -0.2639  1.6022
   20SAPC  C313 2670   2.159   3.794   9.114  0.0299  0.3634 -0.0809
   20SAPC  H13X 2671   2.255   3.749   9.082 -0.0467  0.7283 -0.8460
   20SAPC  H13Y 2672   2.182   3.900   9.137  2.6160 -0.3750  0.9379
   20SAPC  C314 2673   2.071   3.793   8.992  0.0978 -0.2110  0.0932
   20SAPC  H14X 2674   1.962   3.810   9.008 -0.0489  2.0362 -2.7980
   20SAPC  H14Y 2675   2.081   3.696   8.939 -2.0651 -0.5847  0.3486
   20SAPC  C315 2676   2.118   3.901   8.890 -0.2553 -0.0117 -0.5265
   20SAPC  H15X 2677   2.218   3.871   8.852  0.4812  1.8819 -0.1594
   20SAPC  H15Y 2678   2.132   4.001   8.937 -0.0624  0.0607 -0.7336
   20SAPC  C316 2679   2.010   3.897   8.775  0.4810 -0.4512  0.7117
   20SAPC  H16X 2680   1.923   3.941   8.828  0.8020  0.7000  0.2888
   20SAPC  H16Y 2681   1.986   3.789   8.765 -0.1883 -0.0787 -1.9860
   20SAPC  C317 2682   2.039   3.969   8.644 -0.1159  0.2239  0.5263
   20SAPC  H17X 2683   2.096   4.062   8.667 -0.6825  1.0706 -1.4309
   20SAPC  H17Y 2684   1.940   3.995   8.601  1.4162  0.3530 -3.0846
   20SAPC  C318 2685   2.135   3.900   8.549 -0.0355  0.2862  0.1182
   20SAPC  H18X 2686   2.232   3.875   8.598 -0.0626 -0.8331 -0.3960
   20SAPC  H18Y 2687   2.166   3.954   8.457 -3.1434  0.9604 -0.5900
   20SAPC  H18Z 2688   2.093   3.800   8.526 -0.1381 -0.1649  2.1168
   21SAPC     N 2689   2.237   2.199  10.933  0.4753 -0.2391 -0.6403
   21SAPC   C12 2690   2.343   2.275  10.854 -0.0519  0.3489 -0.3490
   21SAPC  H12A 2691   2.434   2.275  10.912  1.3258  2.4093 -2.4361
   21SAPC  H12B 2692   2.303   2.374  10.840  0.0749  0.3750 -0.5284
   21SAPC   C13 2693   2.208   2.282  11.053 -0.4429  0.0900 -0.0606
   21SAPC  H13A 2694   2.291   2.298  11.120 -1.2123  0.4953  0.7976
   21SAPC  H13B 2695   2.185   2.382  11.019  3.7727  1.6853  1.5016
   21SAPC  H13C 2696   2.118   2.252  11.104 -0.9217  1.5215 -0.0299
   21SAPC   C14 2697   2.107   2.194  10.852  0.4433 -0.3103  0.1721
   21SAPC  H14A 2698   2.126   2.159  10.752 -0.6027  0.2962 -0.2503
   21SAPC  H14B 2699   2.035   2.127  10.898  0.6544  0.2527  1.3229
   21SAPC  H14C 2700   2.057   2.289  10.853 -0.3918 -0.7391 -0.0737
   21SAPC   C15 2701   2.286   2.060  10.972 -0.0213 -0.2013  0.2723
   21SAPC  H15A 2702   2.210   2.004  11.025 -0.2718 -1.0510 -0.9498
   21SAPC  H15B 2703   2.299   1.999  10.883 -0.6195  0.8991 -0.5826
   21SAPC  H15C 2704   2.377   2.064  11.029  1.0450  2.2493 -1.5107
   21SAPC   C11 2705   2.393   2.212  10.716  0.1897  0.3489 -0.3453
   21SAPC  H11A 2706   2.448   2.291  10.661 -2.6534  2.0077 -0.9601
   21SAPC  H11B 2707   2.302   2.212  10.652  1.5217 -1.2299 -2.2907
   21SAPC     P 2708   2.625   2.101  10.769 -0.2753 -0.1130  0.3491
   21SAPC   O13 2709   2.646   2.134  10.910  0.4714  0.1583  0.0239
   21SAPC   O14 2710   2.689   1.979  10.725  0.1090 -0.1551  0.1419
   21SAPC   O12 2711   2.468   2.090  10.739 -0.0250 -0.0181 -0.1950
   21SAPC   O11 2712   2.673   2.216  10.671 -0.2181 -0.7989 -0.2753
   21SAPC    C1 2713   2.728   2.349  10.711  0.6328 -0.2540 -0.3208
   21SAPC    HA 2714   2.668   2.391  10.794  0.1303  2.3128 -1.9166
   21SAPC    HB 2715   2.833   2.336  10.745  0.7317 -0.7726 -0.8200
   21SAPC    C2 2716   2.733   2.447  10.594  0.2208  0.3578 -0.2402
   21SAPC    HS 2717   2.629   2.480  10.572 -1.1061 -2.2460  1.8455
   21SAPC   O21 2718   2.788   2.389  10.472 -0.3348  0.1063 -0.4513
   21SAPC   C21 2719   2.705   2.351  10.375 -0.1021  0.4800  0.8124
   21SAPC   O22 2720   2.586   2.351  10.386 -0.2114  0.1254 -0.0306
   21SAPC   C22 2721   2.785   2.330  10.241  0.2221  0.2086 -0.7323
   21SAPC   H2R 2722   2.862   2.410  10.233  0.0392  0.2914 -1.6796
   21SAPC   H2S 2723   2.836   2.231  10.246  2.1634  1.2038 -0.3590
   21SAPC    C3 2724   2.810   2.581  10.633  0.0523 -0.4901  0.0586
   21SAPC    HX 2725   2.917   2.554  10.645  0.2875  0.8863  1.1798
   21SAPC    HY 2726   2.782   2.614  10.735 -0.0032 -0.5273  0.0548
   21SAPC   O31 2727   2.776   2.679  10.533 -0.0030 -0.1021 -0.2954
   21SAPC   C31 2728   2.854   2.783  10.541  0.3036  0.2089 -1.1089
   21SAPC   O32 2729   2.951   2.802  10.607 -0.5783 -0.9192 -1.1547
   21SAPC   C32 2730   2.782   2.895  10.457  0.5265 -0.0953 -0.1244
   21SAPC   H2X 2731   2.682   2.919  10.499  0.6188 -1.1250  0.7199
   21SAPC   H2Y 2732   2.762   2.863  10.353 -0.6031 -1.1390  0.3971
   21SAPC   C23 2733   2.698   2.346  10.115 -0.0899  0.7364 -0.0302
   21SAPC   H3R 2734   2.615   2.271  10.112  0.2509  0.3769 -0.6458
   21SAPC   H3S 2735   2.761   2.328  10.025 -0.3807  0.9886 -0.2873
   21SAPC   C24 2736   2.648   2.488  10.081  0.4346 -0.1861  0.9133
   21SAPC   H4R 2737   2.563   2.513  10.149  0.9359 -0.7580  1.7694
   21SAPC   H4S 2738   2.611   2.474   9.977  0.6289  1.1040  0.6693
   21SAPC   C25 2739   2.748   2.594  10.076  0.3905  0.4678  0.6707
   21SAPC   H5R 2740   2.778   2.618  10.178  0.7936  0.7943  0.4770
   21SAPC   C26 2741   2.778   2.670   9.968 -0.5383  0.0509  0.0921
   21SAPC   H6R 2742   2.845   2.757   9.973  0.6976 -0.9551  1.4083
   21SAPC   C27 2743   2.717   2.653   9.832 -0.0874 -0.1838 -0.1553
   21SAPC   H7R 2744   2.720   2.754   9.787 -0.0880 -0.3340 -0.4923
   21SAPC   H7S 2745   2.607   2.643   9.838 -0.0184 -1.1829 -0.3861
   21SAPC   C28 2746   2.768   2.549   9.740  0.8170 -0.7166 -0.0057
   21SAPC   H8R 2747   2.782   2.449   9.782  2.4840 -1.6081 -2.5787
   21SAPC   C29 2748   2.801   2.563   9.608 -0.2058 -0.1705 -0.8717
   21SAPC   H9R 2749   2.841   2.471   9.562  2.4147 -0.2781  1.4910
   21SAPC  C210 2750   2.785   2.684   9.526  0.0816  0.2165  0.4259
   21SAPC  H10R 2751   2.855   2.677   9.440  0.5413 -1.2760  0.9144
   21SAPC  H10S 2752   2.819   2.773   9.583 -3.2015  2.2702 -0.6794
   21SAPC  C211 2753   2.645   2.714   9.489 -0.1342 -0.4857  0.1472
   21SAPC  H11R 2754   2.606   2.789   9.559 -1.4407  0.2505 -1.3235
   21SAPC  C212 2755   2.572   2.653   9.393 -0.6767  0.0265 -0.0393
   21SAPC  H12R 2756   2.468   2.687   9.382 -0.1463  1.2346 -1.5453
   21SAPC  C213 2757   2.610   2.548   9.289  0.2503 -0.2343 -0.2829
   21SAPC  H13R 2758   2.552   2.454   9.289  3.0669 -2.0398 -1.3382
   21SAPC  H13S 2759   2.714   2.515   9.307 -0.2195 -0.4730  2.1631
   21SAPC  C214 2760   2.613   2.628   9.161 -0.0990  0.0221 -0.1105
   21SAPC  H14R 2761   2.650   2.732   9.164  1.4958 -0.4926 -1.2400
   21SAPC  C215 2762   2.613   2.578   9.035 -0.0721 -0.4441  0.3012
   21SAPC  H15R 2763   2.616   2.650   8.952  2.8854 -0.2809  0.4759
   21SAPC  C216 2764   2.604   2.430   8.990  0.6252 -0.5319 -0.0283
   21SAPC  H16R 2765   2.552   2.362   9.060  0.6382 -0.1516  0.3531
   21SAPC  H16S 2766   2.706   2.387   8.978 -0.1338 -2.7948  1.4226
   21SAPC  C217 2767   2.537   2.413   8.847 -0.4660  0.2063  1.0729
   21SAPC  H17R 2768   2.523   2.304   8.828  1.6438 -0.1606  1.4625
   21SAPC  H17S 2769   2.620   2.443   8.779 -0.4556 -0.1954  0.9069
   21SAPC  C218 2770   2.405   2.487   8.832 -0.0132 -0.1684  0.1103
   21SAPC  H18R 2771   2.390   2.511   8.724  0.2847  0.3442  0.1817
   21SAPC  H18S 2772   2.388   2.580   8.889 -0.4962 -2.2811  3.5266
   21SAPC  C219 2773   2.274   2.407   8.858  0.3133 -0.1350 -0.5269
   21SAPC  H19R 2774   2.189   2.474   8.882  0.0086 -1.0270  0.9870
   21SAPC  H19S 2775   2.301   2.371   8.960 -0.7658 -1.9728 -0.8921
   21SAPC  C220 2776   2.228   2.278   8.777 -0.1230 -0.0008  0.2354
   21SAPC  H20R 2777   2.160   2.215   8.838  0.4397  0.6192  1.5207
   21SAPC  H20S 2778   2.324   2.226   8.757 -1.0345 -1.2679 -0.9733
   21SAPC  H20T 2779   2.185   2.306   8.678 -1.9103 -1.1664  0.6657
   21SAPC   C33 2780   2.869   3.026  10.452 -0.4197 -0.3226 -0.2217
   21SAPC   H3X 2781   2.967   3.003  10.404  0.8576  1.9963  1.2267
   21SAPC   H3Y 2782   2.884   3.052  10.559 -0.4457  0.1715 -0.3408
   21SAPC   C34 2783   2.799   3.148  10.393 -0.0442  0.1748  0.0296
   21SAPC   H4X 2784   2.846   3.246  10.416 -0.4276  0.7076 -1.4008
   21SAPC   H4Y 2785   2.696   3.144  10.434 -0.0701 -0.5462 -0.0983
   21SAPC   C35 2786   2.797   3.127  10.236  0.8442  0.4347  0.0457
   21SAPC   H5X 2787   2.779   3.022  10.204  1.0036  0.1016  1.0480
   21SAPC   H5Y 2788   2.900   3.149  10.199  1.9121 -0.7853  2.1932
   21SAPC   C36 2789   2.707   3.226  10.174 -0.1030  0.3538  0.5981
   21SAPC   H6X 2790   2.717   3.327  10.220 -0.8954  0.4066  0.6727
   21SAPC   H6Y 2791   2.600   3.198  10.184  0.2171 -1.6859 -1.2375
   21SAPC   C37 2792   2.736   3.242  10.023  0.4129 -0.1773 -0.5032
   21SAPC   H7X 2793   2.839   3.281  10.011  0.2240  0.6814  0.5706
   21SAPC   H7Y 2794   2.663   3.320   9.990 -0.3807 -1.0446 -0.8194
   21SAPC   C38 2795   2.735   3.113   9.936 -0.1231 -0.7388  0.1056
   21SAPC   H8X 2796   2.629   3.079   9.932 -0.5183  0.3470  1.1769
   21SAPC   H8Y 2797   2.795   3.032   9.984  0.2304 -1.3407 -1.2944
   21SAPC   C39 2798   2.776   3.133   9.786  0.1088 -0.3587 -0.1864
   21SAPC   H9X 2799   2.773   3.033   9.739 -3.4501 -0.7892  0.8022
   21SAPC   H9Y 2800   2.883   3.160   9.770 -1.0458  2.8264 -3.2113
   21SAPC  C310 2801   2.676   3.221   9.713 -0.3542 -0.5046  0.7681
   21SAPC  H10X 2802   2.662   3.319   9.764 -1.6436  0.0420 -0.6026
   21SAPC  H10Y 2803   2.573   3.180   9.707 -0.3438 -0.8564  2.7598
   21SAPC  C311 2804   2.708   3.250   9.565 -0.1177  0.3004 -0.0065
   21SAPC  H11X 2805   2.814   3.270   9.535 -0.2667 -1.5536 -1.8539
   21SAPC  H11Y 2806   2.658   3.344   9.534  0.8699  0.9575  0.3514
   21SAPC  C312 2807   2.651   3.144   9.473 -0.4624  0.0079 -0.0831
   21SAPC  H12X 2808   2.543   3.139   9.497 -0.4616 -1.1744 -0.2847
   21SAPC  H12Y 2809   2.685   3.043   9.507  1.8170 -0.3423 -3.1429
   21SAPC  C313 2810   2.678   3.159   9.325 -0.2027 -0.2670 -0.5598
   21SAPC  H13X 2811   2.787   3.156   9.301 -0.2715 -1.9181 -0.7825
   21SAPC  H13Y 2812   2.637   3.256   9.291  0.6471  0.0650 -0.6546
   21SAPC  C314 2813   2.607   3.044   9.240 -0.3746 -0.1538 -0.2781
   21SAPC  H14X 2814   2.499   3.035   9.263 -0.7477  0.1192 -1.9216
   21SAPC  H14Y 2815   2.662   2.949   9.257  2.9123  1.9458  1.2557
   21SAPC  C315 2816   2.627   3.073   9.093  0.4622 -0.4131 -0.0356
   21SAPC  H15X 2817   2.734   3.088   9.068 -0.0602 -1.1204 -2.9824
   21SAPC  H15Y 2818   2.568   3.163   9.065 -2.5806 -2.2279  0.4096
   21SAPC  C316 2819   2.574   2.959   9.003  0.4563  0.8295 -0.3941
   21SAPC  H16X 2820   2.491   2.908   9.057  0.9155  1.7385  1.1829
   21SAPC  H16Y 2821   2.649   2.878   8.991 -0.2607 -0.0755  1.1232
   21SAPC  C317 2822   2.522   2.998   8.862  0.5142  0.9538  0.6576
   21SAPC  H17X 2823   2.601   3.061   8.815 -1.1789  2.1747 -0.6037
   21SAPC  H17Y 2824   2.432   3.062   8.863 -0.9608 -1.0111 -1.2159
   21SAPC  C318 2825   2.496   2.888   8.754  0.4011 -0.6830 -0.4815
   21SAPC  H18X 2826   2.591   2.842   8.716  0.0860 -0.2341 -1.8377
   21SAPC  H18Y 2827   2.458   2.937   8.662  2.0656  2.1211  0.2799
   21SAPC  H18Z 2828   2.432   2.798   8.768  0.6943 -0.9883 -1.0679
   22SAPC     N 2829   1.838   6.683  11.205  0.4012  0.0964  0.2895
   22SAPC   C12 2830   1.896   6.614  11.087  0.3099 -0.1323  0.9519
   22SAPC  H12A 2831   1.827   6.536  11.057 -0.6992  0.2178  2.3123
   22SAPC  H12B 2832   1.979   6.556  11.126 -0.5251 -2.2036 -0.2525
   22SAPC   C13 2833   1.824   6.580  11.312  0.4596  0.2301  0.1917
   22SAPC  H13A 2834   1.924   6.543  11.332  0.2067 -0.8892 -0.5508
   22SAPC  H13B 2835   1.796   6.622  11.407  3.5383  0.9201  0.8639
   22SAPC  H13C 2836   1.771   6.493  11.276  3.6161 -1.1467 -1.4158
   22SAPC   C14 2837   1.933   6.782  11.268  0.4204 -0.4019 -0.6774
   22SAPC  H14A 2838   2.037   6.754  11.261  0.6943  0.3403  0.2998
   22SAPC  H14B 2839   1.921   6.879  11.222 -0.2174  1.1235  2.5591
   22SAPC  H14C 2840   1.899   6.808  11.367 -0.4503  0.4826 -1.2021
   22SAPC   C15 2841   1.711   6.759  11.189  0.1645  0.5142  0.2849
   22SAPC  H15A 2842   1.637   6.693  11.147  0.3331  0.3739  0.2114
   22SAPC  H15B 2843   1.683   6.805  11.283 -0.1960 -0.4699  0.6663
   22SAPC  H15C 2844   1.727   6.837  11.116 -0.4252  1.3020  0.9766
   22SAPC   C11 2845   1.942   6.696  10.966 -0.5612 -0.6544  0.3771
   22SAPC  H11A 2846   1.994   6.636  10.888 -0.2001 -2.6101  2.0528
   22SAPC  H11B 2847   2.028   6.759  10.997 -0.2331 -1.3894  0.9938
   22SAPC     P 2848   1.760   6.738  10.785 -0.3121 -0.0303  0.2026
   22SAPC   O13 2849   1.705   6.604  10.812 -0.1849 -0.5545  0.0139
   22SAPC   O14 2850   1.666   6.848  10.747  0.6908 -0.6812 -0.6853
   22SAPC   O12 2851   1.840   6.781  10.918  0.3003 -0.2274  0.6041
   22SAPC   O11 2852   1.879   6.727  10.669  0.7989 -0.4878 -0.5175
   22SAPC    C1 2853   1.966   6.841  10.667  0.8910  0.9634 -0.3689
   22SAPC    HA 2854   1.909   6.934  10.688  1.2373  1.2925 -0.8835
   22SAPC    HB 2855   2.052   6.833  10.737  0.2077  1.9805  0.5900
   22SAPC    C2 2856   2.039   6.877  10.531 -0.1512  0.3503 -0.1973
   22SAPC    HS 2857   2.063   6.985  10.526 -3.2368  1.0566 -0.6880
   22SAPC   O21 2858   1.958   6.842  10.420 -0.0722  0.6470  0.2188
   22SAPC   C21 2859   1.869   6.930  10.370  0.4394 -0.5455 -0.8274
   22SAPC   O22 2860   1.846   7.039  10.425  0.8849  0.9080 -0.1955
   22SAPC   C22 2861   1.836   6.871  10.240 -0.4361 -0.4694  0.8113
   22SAPC   H2R 2862   1.929   6.826  10.198 -0.3755 -1.1422  1.6486
   22SAPC   H2S 2863   1.751   6.802  10.264 -0.3686 -1.2585 -1.0935
   22SAPC    C3 2864   2.173   6.806  10.519  0.5792  0.1690  0.1156
   22SAPC    HX 2865   2.152   6.698  10.534 -2.1845  0.5939 -0.4260
   22SAPC    HY 2866   2.237   6.840  10.603  1.4632  1.6935 -1.1603
   22SAPC   O31 2867   2.224   6.833  10.387  0.5515  0.1007 -0.5106
   22SAPC   C31 2868   2.285   6.948  10.372 -0.2327 -0.1832 -0.1470
   22SAPC   O32 2869   2.308   7.032  10.460 -0.3083  0.2131 -0.3221
   22SAPC   C32 2870   2.347   6.953  10.232  0.3958  0.2705 -0.5146
   22SAPC   H2X 2871   2.428   6.879  10.217 -0.3824 -0.5674 -0.6006
   22SAPC   H2Y 2872   2.392   7.052  10.210  0.2101  0.3729 -0.4392
   22SAPC   C23 2873   1.793   6.981  10.141  0.4939  0.6992 -0.3113
   22SAPC   H3R 2874   1.882   7.047  10.143  1.4310 -0.5077 -1.6340
   22SAPC   H3S 2875   1.701   7.031  10.178 -1.0774 -2.0062 -0.4390
   22SAPC   C24 2876   1.751   6.938   9.997  0.4063  0.1027  0.0189
   22SAPC   H4R 2877   1.706   7.031   9.957  1.1772  0.7971  0.7597
   22SAPC   H4S 2878   1.669   6.864  10.006  2.0698 -1.5097  2.4047
   22SAPC   C25 2879   1.870   6.894   9.916 -0.2056  0.3339  0.1269
   22SAPC   H5R 2880   1.964   6.881   9.972 -0.3419  2.1183  0.7947
   22SAPC   C26 2881   1.865   6.848   9.793  0.0377  0.2321 -0.4938
   22SAPC   H6R 2882   1.960   6.837   9.738 -0.0385 -0.5844 -0.4737
   22SAPC   C27 2883   1.742   6.845   9.707 -0.2510  0.4891  0.0132
   22SAPC   H7R 2884   1.649   6.840   9.767  0.6773 -1.1871  1.3613
   22SAPC   H7S 2885   1.721   6.752   9.649 -0.1597  0.2686  0.3309
   22SAPC   C28 2886   1.726   6.953   9.598  0.1490 -0.0425  0.1269
   22SAPC   H8R 2887   1.691   7.051   9.633  0.8687  1.8640 -4.1654
   22SAPC   C29 2888   1.774   6.958   9.469  0.4323  0.4976  0.1491
   22SAPC   H9R 2889   1.751   7.041   9.401 -3.1891 -0.7575 -0.2695
   22SAPC  C210 2890   1.854   6.846   9.394  0.2418 -0.4625 -0.2494
   22SAPC  H10R 2891   1.899   6.781   9.472 -0.6439  0.7038  1.2698
   22SAPC  H10S 2892   1.953   6.882   9.360  0.3141 -1.7347 -1.4585
   22SAPC  C211 2893   1.779   6.767   9.291  0.2543 -0.2048  0.6576
   22SAPC  H11R 2894   1.758   6.661   9.312  0.1055 -0.3063  0.0257
   22SAPC  C212 2895   1.735   6.806   9.173  0.4309  0.2150 -0.2387
   22SAPC  H12R 2896   1.673   6.740   9.111  1.8268 -1.5292  0.1952
   22SAPC  C213 2897   1.744   6.949   9.122  0.6155  0.6767 -0.1215
   22SAPC  H13R 2898   1.769   7.019   9.204  2.8127  0.0739 -0.2687
   22SAPC  H13S 2899   1.645   6.991   9.093  0.7688  0.0117 -1.6555
   22SAPC  C214 2900   1.853   6.952   9.018  0.1165  0.2896 -0.3483
   22SAPC  H14R 2901   1.940   6.984   9.078 -0.5727  0.2265  0.6976
   22SAPC  C215 2902   1.852   6.958   8.883 -0.1371 -0.0867 -0.0623
   22SAPC  H15R 2903   1.948   6.973   8.832 -0.1921 -1.6253 -0.6474
   22SAPC  C216 2904   1.729   6.957   8.798  0.0468  0.0770 -0.3029
   22SAPC  H16R 2905   1.749   7.041   8.728  0.4289  0.5620  0.3808
   22SAPC  H16S 2906   1.631   6.990   8.837 -1.5399 -4.1586 -0.4433
   22SAPC  C217 2907   1.712   6.826   8.719  0.4742  0.0571  0.6804
   22SAPC  H17R 2908   1.667   6.753   8.789 -0.5568 -0.2959 -0.3447
   22SAPC  H17S 2909   1.809   6.780   8.691  0.9835 -0.1078  2.6631
   22SAPC  C218 2910   1.626   6.859   8.597  1.0639 -0.4220 -0.3520
   22SAPC  H18R 2911   1.659   6.950   8.543  1.3251 -0.6699 -0.6120
   22SAPC  H18S 2912   1.529   6.893   8.640 -0.9690 -3.9902 -1.9089
   22SAPC  C219 2913   1.599   6.728   8.519  0.2872 -0.2022  0.2816
   22SAPC  H19R 2914   1.491   6.702   8.518  0.2651 -0.0777 -0.6692
   22SAPC  H19S 2915   1.658   6.645   8.565 -1.1405 -1.3611  0.0549
   22SAPC  C220 2916   1.630   6.734   8.373  0.8702 -0.1207 -0.4334
   22SAPC  H20R 2917   1.590   6.648   8.316  0.5725 -1.3031  1.4944
   22SAPC  H20S 2918   1.738   6.721   8.352  0.6264 -1.4843 -0.8592
   22SAPC  H20T 2919   1.597   6.834   8.337  0.5464  1.0276  2.8574
   22SAPC   C33 2920   2.239   6.939  10.123 -0.2804  0.2758 -0.2586
   22SAPC   H3X 2921   2.159   7.014  10.142 -0.1061  0.7579 -1.3596
   22SAPC   H3Y 2922   2.182   6.844  10.132  0.6793 -0.1126  1.9554
   22SAPC   C34 2923   2.314   6.933   9.990  0.5153 -0.3938 -0.5725
   22SAPC   H4X 2924   2.383   6.848  10.004  1.3395  0.4491  0.5600
   22SAPC   H4Y 2925   2.372   7.025   9.968  0.8623 -0.2927  0.7230
   22SAPC   C35 2926   2.223   6.911   9.875 -0.1190 -0.2812 -0.3859
   22SAPC   H5X 2927   2.161   7.003   9.863  0.7393  0.7549  2.6840
   22SAPC   H5Y 2928   2.160   6.825   9.905  0.6916 -0.4855  0.7289
   22SAPC   C36 2929   2.308   6.901   9.757 -0.3296 -0.5424  0.7484
   22SAPC   H6X 2930   2.342   6.797   9.739 -1.6331 -0.4497 -2.5121
   22SAPC   H6Y 2931   2.389   6.977   9.759 -0.5353 -0.3227  0.5493
   22SAPC   C37 2932   2.231   6.950   9.630 -0.1329  0.9031 -0.5910
   22SAPC   H7X 2933   2.192   7.052   9.647  0.3342  1.1732 -1.1418
   22SAPC   H7Y 2934   2.146   6.882   9.608 -0.4169 -0.6460  4.6129
   22SAPC   C38 2935   2.321   6.947   9.507  0.2365 -0.2633  0.2490
   22SAPC   H8X 2936   2.398   6.866   9.508  0.3654 -0.1683 -0.8449
   22SAPC   H8Y 2937   2.393   7.031   9.515  0.2699 -0.0029 -2.2004
   22SAPC   C39 2938   2.246   6.958   9.373 -0.2918 -0.3063 -0.0561
   22SAPC   H9X 2939   2.168   7.037   9.383  0.4301  0.6391 -1.6806
   22SAPC   H9Y 2940   2.193   6.862   9.354 -3.5329  1.3975  0.0984
   22SAPC  C310 2941   2.341   6.975   9.257  0.1839  0.1931  0.8120
   22SAPC  H10X 2942   2.403   6.883   9.247  1.1874  0.7493  1.7409
   22SAPC  H10Y 2943   2.409   7.060   9.281 -0.0033  0.2308  1.2133
   22SAPC  C311 2944   2.280   7.001   9.119 -0.4040 -0.3193 -0.7266
   22SAPC  H11X 2945   2.255   7.109   9.118 -1.5761 -0.5899 -1.2149
   22SAPC  H11Y 2946   2.193   6.932   9.112  0.0209 -0.9581  0.0837
   22SAPC  C312 2947   2.381   6.974   9.005 -0.5856  0.1845 -0.2550
   22SAPC  H12X 2948   2.423   6.871   9.016  0.0617  0.5021  0.2928
   22SAPC  H12Y 2949   2.469   7.041   9.016  1.1506 -2.3375  2.0547
   22SAPC  C313 2950   2.316   6.993   8.867 -0.4389  0.7272 -0.4066
   22SAPC  H13X 2951   2.258   7.087   8.864  1.4716  2.0490  1.8180
   22SAPC  H13Y 2952   2.232   6.921   8.856  1.1308 -1.5204  1.6767
   22SAPC  C314 2953   2.424   7.002   8.751 -0.0300  0.0519 -0.0832
   22SAPC  H14X 2954   2.481   6.907   8.745  0.5181  0.1761  2.5883
   22SAPC  H14Y 2955   2.480   7.095   8.775 -0.4034 -0.3829  2.6931
   22SAPC  C315 2956   2.365   7.014   8.615  0.6451 -0.0757 -0.8452
   22SAPC  H15X 2957   2.294   7.099   8.623  2.7287  1.4988  1.2898
   22SAPC  H15Y 2958   2.306   6.922   8.593 -0.4809 -0.2936  2.8084
   22SAPC  C316 2959   2.454   7.036   8.497  0.0477  0.1117 -0.5124
   22SAPC  H16X 2960   2.381   7.062   8.417 -0.2035  0.9094 -0.0281
   22SAPC  H16Y 2961   2.507   6.946   8.460 -0.2960  0.0054 -0.7491
   22SAPC  C317 2962   2.562   7.143   8.509 -0.2561  0.1818 -0.3188
   22SAPC  H17X 2963   2.626   7.120   8.597  1.8647  1.3565 -1.5322
   22SAPC  H17Y 2964   2.514   7.241   8.532 -1.6409 -1.0499  2.1922
   22SAPC  C318 2965   2.636   7.153   8.381 -0.4352 -0.5937 -0.7681
   22SAPC  H18X 2966   2.575   7.172   8.290  0.8183 -1.3908 -1.8005
   22SAPC  H18Y 2967   2.702   7.064   8.370 -0.4574 -0.6281 -0.6201
   22SAPC  H18Z 2968   2.712   7.233   8.396  0.0564 -0.6038 -2.9861
   23SAPC     N 2969   3.976   1.127  10.854 -0.1702 -0.1625  0.3960
   23SAPC   C12 2970   3.892   1.174  10.974 -0.2014  0.3475  0.6856
   23SAPC  H12A 2971   3.949   1.165  11.065  0.9598 -0.6141 -0.1343
   23SAPC  H12B 2972   3.803   1.116  10.994  1.0470 -1.2037  1.7894
   23SAPC   C13 2973   4.105   1.201  10.845  0.4698  0.0710 -0.0381
   23SAPC  H13A 2974   4.093   1.308  10.840 -0.6090 -0.0723 -0.5416
   23SAPC  H13B 2975   4.172   1.179  10.927  2.7784 -0.2352 -1.9275
   23SAPC  H13C 2976   4.165   1.160  10.765 -0.0447 -1.5194  0.3869
   23SAPC   C14 2977   4.017   0.982  10.874 -0.4491  0.1109 -0.1063
   23SAPC  H14A 2978   3.928   0.921  10.882 -0.1748 -0.6979 -2.8490
   23SAPC  H14B 2979   4.076   0.947  10.791  0.7735 -1.0842  1.2275
   23SAPC  H14C 2980   4.073   0.966  10.965  1.7320  1.7851 -1.1276
   23SAPC   C15 2981   3.891   1.150  10.732 -0.8209  0.2397 -0.1719
   23SAPC  H15A 2982   3.803   1.089  10.738 -0.4443 -0.2809  0.0975
   23SAPC  H15B 2983   3.855   1.251  10.724 -0.2957  0.5698  1.4308
   23SAPC  H15C 2984   3.945   1.110  10.647  1.0153 -1.1680  1.6001
   23SAPC   C11 2985   3.835   1.318  10.980  0.2302  0.4123  0.1484
   23SAPC  H11A 2986   3.915   1.386  10.943  0.0774  0.2814 -0.4240
   23SAPC  H11B 2987   3.801   1.330  11.085 -1.4181  3.6631 -0.6956
   23SAPC     P 2988   3.652   1.435  10.833  0.1374 -0.2020  0.0454
   23SAPC   O13 2989   3.525   1.389  10.774  0.0568  0.4370 -0.1141
   23SAPC   O14 2990   3.647   1.545  10.930  0.3707  0.0808  0.0915
   23SAPC   O12 2991   3.720   1.311  10.891  0.0019  0.1496 -0.1780
   23SAPC   O11 2992   3.740   1.492  10.715  0.2388 -0.0089  0.2449
   23SAPC    C1 2993   3.697   1.599  10.628 -0.5555 -0.4474  0.2666
   23SAPC    HA 2994   3.592   1.629  10.645  0.2040  0.3344  3.9508
   23SAPC    HB 2995   3.754   1.692  10.650 -0.4761 -0.4354  0.0218
   23SAPC    C2 2996   3.707   1.567  10.478 -0.2384  0.2273  0.3804
   23SAPC    HS 2997   3.666   1.657  10.427 -1.8223  0.1803  1.5188
   23SAPC   O21 2998   3.636   1.448  10.445 -0.3013 -0.0077  0.0635
   23SAPC   C21 2999   3.506   1.453  10.437 -0.4167  0.4774  0.3086
   23SAPC   O22 3000   3.438   1.554  10.430 -0.0269 -0.5029  0.3378
   23SAPC   C22 3001   3.447   1.312  10.455 -0.0888  0.4737  0.0634
   23SAPC   H2R 3002   3.528   1.248  10.413 -3.2202 -2.3222 -2.0322
   23SAPC   H2S 3003   3.442   1.282  10.562 -1.5305 -2.0208 -0.6553
   23SAPC    C3 3004   3.863   1.554  10.447 -0.3758  0.1826  0.1901
   23SAPC    HX 3005   3.912   1.492  10.525  1.5609  0.0973 -1.0603
   23SAPC    HY 3006   3.910   1.651  10.476 -0.0131 -0.2036  0.9090
   23SAPC   O31 3007   3.896   1.527  10.310  0.8271 -0.8723  0.5765
   23SAPC   C31 3008   3.912   1.405  10.277 -0.2474 -0.1667 -0.0851
   23SAPC   O32 3009   3.894   1.313  10.352 -0.1497  0.2813 -0.5847
   23SAPC   C32 3010   3.940   1.393  10.125  0.3480 -0.7740  0.2620
   23SAPC   H2X 3011   3.927   1.284  10.107  0.9277 -0.9547  0.9124
   23SAPC   H2Y 3012   4.046   1.414  10.103  0.0992  1.1341  0.8234
   23SAPC   C23 3013   3.311   1.307  10.383  0.1159  0.7600 -0.0578
   23SAPC   H3R 3014   3.303   1.197  10.366 -0.4747  0.6783  0.7192
   23SAPC   H3S 3015   3.309   1.360  10.285 -0.1359 -2.2574 -1.7547
   23SAPC   C24 3016   3.193   1.358  10.471 -0.3133  0.5471  0.3520
   23SAPC   H4R 3017   3.198   1.469  10.472 -1.1291  0.5931  2.9080
   23SAPC   H4S 3018   3.214   1.315  10.572 -3.7828 -0.7708  0.5671
   23SAPC   C25 3019   3.052   1.303  10.452 -0.3825  0.0247  0.8011
   23SAPC   H5R 3020   3.035   1.204  10.497 -1.9047 -0.1485 -0.1325
   23SAPC   C26 3021   2.959   1.357  10.373 -0.1535 -0.1013 -0.2007
   23SAPC   H6R 3022   2.864   1.301  10.373  0.1243 -0.6088 -1.7672
   23SAPC   C27 3023   2.975   1.484  10.288 -0.3811  0.2364  0.0437
   23SAPC   H7R 3024   3.045   1.565  10.320  0.3880 -0.8340  1.1378
   23SAPC   H7S 3025   2.883   1.546  10.293  0.0812  0.9035  0.4463
   23SAPC   C28 3026   3.011   1.437  10.152 -0.1101 -0.5838 -0.5259
   23SAPC   H8R 3027   3.118   1.417  10.134  0.6425  4.5751 -2.4859
   23SAPC   C29 3028   2.924   1.432  10.053  0.2469  1.0612 -0.1925
   23SAPC   H9R 3029   2.955   1.386   9.958  0.6783  2.7786 -0.9104
   23SAPC  C210 3030   2.778   1.453  10.063 -0.5471  0.5666  0.0718
   23SAPC  H10R 3031   2.731   1.510   9.980 -0.6685  0.3135 -0.0366
   23SAPC  H10S 3032   2.742   1.513  10.149 -0.8357  0.7970 -0.2104
   23SAPC  C211 3033   2.712   1.318  10.079  0.2431  0.0997  0.6774
   23SAPC  H11R 3034   2.711   1.281  10.183  1.6191  0.4555  0.8315
   23SAPC  C212 3035   2.645   1.248   9.984 -0.9408  0.1333 -0.3515
   23SAPC  H12R 3036   2.587   1.161  10.018 -1.4222  0.5277 -0.1648
   23SAPC  C213 3037   2.637   1.277   9.833  1.0356 -0.6904 -0.0032
   23SAPC  H13R 3038   2.626   1.183   9.774 -0.9581 -0.1875 -0.4722
   23SAPC  H13S 3039   2.736   1.322   9.811  1.0137 -1.6376 -2.1745
   23SAPC  C214 3040   2.525   1.368   9.794  0.2193  0.1765 -0.3671
   23SAPC  H14R 3041   2.479   1.404   9.887 -0.2836 -0.1128 -0.5036
   23SAPC  C215 3042   2.499   1.404   9.667 -0.0189 -0.7173  0.4516
   23SAPC  H15R 3043   2.419   1.473   9.635 -0.2331 -0.2271  1.9768
   23SAPC  C216 3044   2.579   1.350   9.544 -0.6576 -0.1295  0.2975
   23SAPC  H16R 3045   2.525   1.265   9.496  3.1554 -2.7495  0.4079
   23SAPC  H16S 3046   2.682   1.315   9.564  0.5040  3.5854  1.1294
   23SAPC  C217 3047   2.606   1.467   9.443 -0.5645 -0.8044  0.1381
   23SAPC  H17R 3048   2.687   1.437   9.372 -0.1007  0.2023  0.2358
   23SAPC  H17S 3049   2.640   1.553   9.505 -1.2796 -0.4809  0.0763
   23SAPC  C218 3050   2.479   1.487   9.360 -0.5826  0.2906 -0.3841
   23SAPC  H18R 3051   2.484   1.588   9.315 -0.4865  0.3133 -0.3217
   23SAPC  H18S 3052   2.389   1.483   9.424  0.7456 -0.0964  1.5007
   23SAPC  C219 3053   2.466   1.372   9.252 -0.0053 -0.5640  0.0998
   23SAPC  H19R 3054   2.419   1.289   9.308  2.5110 -1.6313  0.6954
   23SAPC  H19S 3055   2.557   1.320   9.215 -0.2378 -1.3026  0.5742
   23SAPC  C220 3056   2.381   1.406   9.130 -0.4349 -0.5898  0.0876
   23SAPC  H20R 3057   2.451   1.451   9.056 -1.8346  0.8364 -0.3684
   23SAPC  H20S 3058   2.302   1.479   9.156 -0.0605 -0.2965  0.4179
   23SAPC  H20T 3059   2.338   1.314   9.084 -0.2915 -0.6777  0.1242
   23SAPC   C33 3060   3.863   1.490  10.034 -0.4679 -0.3005  0.4775
   23SAPC   H3X 3061   3.886   1.595  10.063 -0.9429 -0.1653  0.3681
   23SAPC   H3Y 3062   3.753   1.474  10.043 -0.9263  1.4224 -1.6231
   23SAPC   C34 3063   3.893   1.479   9.883 -0.9819 -0.4034 -0.4843
   23SAPC   H4X 3064   4.003   1.495   9.873 -1.1789  0.2837 -1.6513
   23SAPC   H4Y 3065   3.851   1.573   9.842  1.8825  0.7901 -0.8296
   23SAPC   C35 3066   3.851   1.349   9.808  0.1452 -0.0702 -0.0048
   23SAPC   H5X 3067   3.744   1.333   9.833 -0.1336 -1.3650 -1.8639
   23SAPC   H5Y 3068   3.912   1.265   9.848  3.0838  2.3081  0.6938
   23SAPC   C36 3069   3.871   1.350   9.657 -0.0956 -0.0299 -0.4123
   23SAPC   H6X 3070   3.800   1.417   9.604  0.8042  1.9139  0.7843
   23SAPC   H6Y 3071   3.854   1.248   9.615  0.3228 -0.6392  0.8821
   23SAPC   C37 3072   4.021   1.384   9.612  0.0150  0.4419  0.2239
   23SAPC   H7X 3073   4.089   1.325   9.677 -0.6766 -0.1088  0.4501
   23SAPC   H7Y 3074   4.039   1.493   9.621 -1.4349  0.7935 -0.9389
   23SAPC   C38 3075   4.057   1.361   9.463  0.0667 -0.2483  0.5285
   23SAPC   H8X 3076   4.052   1.253   9.438  0.4941 -0.1303 -0.0950
   23SAPC   H8Y 3077   4.153   1.411   9.437 -1.1297  1.5102 -0.6876
   23SAPC   C39 3078   3.959   1.437   9.368  0.4742  0.3902 -0.1192
   23SAPC   H9X 3079   3.969   1.547   9.377  2.7883  0.1514  0.5396
   23SAPC   H9Y 3080   3.857   1.394   9.374  0.4253  0.3012 -1.3445
   23SAPC  C310 3081   3.990   1.408   9.217 -0.0479 -0.3189 -0.8647
   23SAPC  H10X 3082   3.977   1.298   9.204  0.9546 -0.6870  1.0099
   23SAPC  H10Y 3083   4.089   1.447   9.185 -0.8879  2.0895 -0.5995
   23SAPC  C311 3084   3.897   1.485   9.125 -0.0569 -0.0705  0.1899
   23SAPC  H11X 3085   3.880   1.595   9.136 -2.3616 -0.3388 -0.4336
   23SAPC  H11Y 3086   3.800   1.438   9.150  0.0651 -0.8613 -0.7768
   23SAPC  C312 3087   3.936   1.452   8.978  0.4336 -0.3386 -0.0222
   23SAPC  H12X 3088   3.939   1.341   8.988  1.0895 -0.5086 -1.8257
   23SAPC  H12Y 3089   4.033   1.489   8.937  0.6596  0.0530  0.8612
   23SAPC  C313 3090   3.820   1.469   8.868 -0.5033 -0.2437 -0.2067
   23SAPC  H13X 3091   3.801   1.578   8.879  0.5479 -0.0469 -0.3257
   23SAPC  H13Y 3092   3.725   1.415   8.887 -0.5402  0.6440  2.4405
   23SAPC  C314 3093   3.869   1.441   8.725 -0.3063 -0.2581  0.6310
   23SAPC  H14X 3094   3.978   1.459   8.722 -0.0018 -1.9340  1.1309
   23SAPC  H14Y 3095   3.822   1.504   8.646  0.5108  1.6214  1.6088
   23SAPC  C315 3096   3.851   1.292   8.698  0.6596 -0.0368 -0.1862
   23SAPC  H15X 3097   3.745   1.265   8.715 -0.4202  3.5104 -0.7434
   23SAPC  H15Y 3098   3.926   1.235   8.758  0.0372 -0.9601 -0.2814
   23SAPC  C316 3099   3.866   1.264   8.549  0.4027  0.2277  0.1219
   23SAPC  H16X 3100   3.964   1.311   8.527  0.5921 -0.2954 -0.1709
   23SAPC  H16Y 3101   3.775   1.295   8.494  1.3353  1.6066 -0.6581
   23SAPC  C317 3102   3.894   1.118   8.515 -0.5332 -0.3569  0.0481
   23SAPC  H17X 3103   3.807   1.055   8.543  0.0018 -1.1573 -0.0630
   23SAPC  H17Y 3104   3.989   1.082   8.561  1.0613  1.9365 -1.3508
   23SAPC  C318 3105   3.918   1.096   8.364  0.1989 -0.7054  0.0231
   23SAPC  H18X 3106   3.822   1.112   8.311  0.2038  0.3317  0.2989
   23SAPC  H18Y 3107   3.952   0.992   8.344  1.1472 -0.2096 -1.0728
   23SAPC  H18Z 3108   4.001   1.156   8.320  1.2465 -1.4143  1.0162
   24SAPC     N 3109   5.978   0.987  11.314 -0.2533  0.2961  0.0241
   24SAPC   C12 3110   6.057   1.035  11.192  0.8556  0.6531  0.1523
   24SAPC  H12A 3111   6.143   0.973  11.173 -0.5776 -1.6846  0.9898
   24SAPC  H12B 3112   6.098   1.133  11.213  0.1921  0.7044  1.2328
   24SAPC   C13 3113   6.068   0.951  11.426 -0.2489 -0.1714  0.1402
   24SAPC  H13A 3114   6.132   0.868  11.400  0.8066  0.3960  0.9178
   24SAPC  H13B 3115   6.137   1.032  11.445  0.1925 -0.7998  1.2432
   24SAPC  H13C 3116   6.011   0.934  11.516 -0.6756 -2.0327 -0.4495
   24SAPC   C14 3117   5.870   1.084  11.353 -0.9799 -0.2468  0.1210
   24SAPC  H14A 3118   5.915   1.169  11.402  0.8108 -0.8369 -0.4728
   24SAPC  H14B 3119   5.809   1.117  11.270 -0.4462  1.4805  0.3923
   24SAPC  H14C 3120   5.808   1.043  11.432 -1.4120 -1.4596 -0.8433
   24SAPC   C15 3121   5.902   0.866  11.275  0.4172  0.5750  0.6476
   24SAPC  H15A 3122   5.967   0.805  11.214  1.8714  2.1969  0.5538
   24SAPC  H15B 3123   5.867   0.809  11.360  0.8600 -2.5630 -1.2232
   24SAPC  H15C 3124   5.824   0.902  11.210  0.3115 -2.5270 -0.9997
   24SAPC   C11 3125   5.984   1.058  11.054  0.1910 -0.0037 -0.5910
   24SAPC  H11A 3126   5.936   0.960  11.032 -0.7051  0.2935 -0.0119
   24SAPC  H11B 3127   6.060   1.085  10.978  1.4679 -1.1013  0.2644
   24SAPC     P 3128   5.758   1.156  10.985  0.1661 -0.2776  0.2599
   24SAPC   O13 3129   5.736   1.025  10.920 -0.2693 -0.1057  0.3427
   24SAPC   O14 3130   5.656   1.210  11.084 -0.4623  0.2886  0.4404
   24SAPC   O12 3131   5.895   1.165  11.062 -0.6459  0.2689  0.0855
   24SAPC   O11 3132   5.779   1.260  10.870 -0.5429  0.5500  0.5938
   24SAPC    C1 3133   5.856   1.228  10.750 -0.7239 -0.4090 -0.3715
   24SAPC    HA 3134   5.867   1.118  10.734 -2.3034 -0.8844  1.6796
   24SAPC    HB 3135   5.807   1.269  10.659 -0.2086 -0.5306 -0.7091
   24SAPC    C2 3136   5.997   1.287  10.748  0.0846  1.0982  0.3387
   24SAPC    HS 3137   6.053   1.269  10.842 -1.1679 -0.8169  0.7334
   24SAPC   O21 3138   5.973   1.431  10.731 -0.4564  0.4355 -0.0075
   24SAPC   C21 3139   6.093   1.500  10.745 -0.3350  0.7340  0.1511
   24SAPC   O22 3140   6.191   1.443  10.786  0.3776  0.2068  0.2347
   24SAPC   C22 3141   6.079   1.642  10.727  0.6287  0.2587  0.5678
   24SAPC   H2R 3142   5.973   1.673  10.742  1.0381  1.6231  0.7826
   24SAPC   H2S 3143   6.136   1.700  10.804  4.2549 -0.9220 -1.1298
   24SAPC    C3 3144   6.071   1.208  10.638  0.5467 -0.5233 -0.1495
   24SAPC    HX 3145   6.090   1.106  10.677 -2.0882 -1.4039 -1.0451
   24SAPC    HY 3146   6.166   1.264  10.626  0.1266  0.8632  2.6262
   24SAPC   O31 3147   5.989   1.188  10.517  0.2599  0.0198 -0.6501
   24SAPC   C31 3148   6.029   1.256  10.411 -0.3355  0.0909 -0.3026
   24SAPC   O32 3149   6.119   1.337  10.413  0.1405  0.2159 -0.2699
   24SAPC   C32 3150   5.968   1.200  10.281  0.2149 -0.7405  0.6972
   24SAPC   H2X 3151   5.917   1.103  10.297 -1.5825  0.3474  1.7527
   24SAPC   H2Y 3152   6.053   1.179  10.211 -0.9334  1.1652 -1.3377
   24SAPC   C23 3153   6.116   1.683  10.581  0.2014 -0.7109 -0.4514
   24SAPC   H3R 3154   6.048   1.627  10.514 -0.7228  1.1391 -1.0895
   24SAPC   H3S 3155   6.222   1.654  10.567  0.3130 -0.5856  0.0905
   24SAPC   C24 3156   6.088   1.835  10.556 -0.8338 -0.0812 -0.4430
   24SAPC   H4R 3157   5.989   1.859  10.601 -0.5237 -1.2332  0.8838
   24SAPC   H4S 3158   6.074   1.842  10.447  0.7139 -1.6370 -0.7686
   24SAPC   C25 3159   6.197   1.934  10.600 -0.4160 -0.0739 -0.6331
   24SAPC   H5R 3160   6.224   1.933  10.706 -0.5177  2.5106 -0.5529
   24SAPC   C26 3161   6.266   2.023  10.526 -0.8531 -0.1848 -0.1704
   24SAPC   H6R 3162   6.344   2.081  10.578 -1.1816  0.1559 -0.0470
   24SAPC   C27 3163   6.263   2.049  10.374 -0.2572 -0.4483  0.6876
   24SAPC   H7R 3164   6.173   2.006  10.326 -1.6001 -0.5341  3.1704
   24SAPC   H7S 3165   6.343   1.994  10.320  1.0953  1.0739  1.0969
   24SAPC   C28 3166   6.287   2.191  10.334 -0.3625 -0.2679 -0.0806
   24SAPC   H8R 3167   6.370   2.243  10.384  0.5313 -0.6495 -1.1497
   24SAPC   C29 3168   6.211   2.265  10.248  0.2437  0.0737  0.1485
   24SAPC   H9R 3169   6.239   2.370  10.237 -0.9012  0.5130  1.3295
   24SAPC  C210 3170   6.082   2.218  10.175  1.1439  0.1889  0.5263
   24SAPC  H10R 3171   6.029   2.303  10.128  1.0218 -0.4135 -0.4313
   24SAPC  H10S 3172   6.013   2.176  10.252  1.1818 -0.1137  0.3947
   24SAPC  C211 3173   6.104   2.119  10.069 -0.5674 -0.0627  0.2053
   24SAPC  H11R 3174   6.091   2.014  10.101 -0.8880  0.4678  1.8617
   24SAPC  C212 3175   6.109   2.147   9.938 -0.0914 -0.0081 -0.6185
   24SAPC  H12R 3176   6.118   2.062   9.870  1.1517 -0.0894 -0.3644
   24SAPC  C213 3177   6.114   2.290   9.886  0.1727  0.3745 -0.6879
   24SAPC  H13R 3178   6.080   2.363   9.962  1.5829  0.3956 -0.0821
   24SAPC  H13S 3179   6.023   2.295   9.821 -1.4782  0.8507  1.5911
   24SAPC  C214 3180   6.248   2.328   9.825  0.8748 -0.1097 -0.3863
   24SAPC  H14R 3181   6.322   2.367   9.897 -0.7245  1.7439  0.3048
   24SAPC  C215 3182   6.268   2.337   9.696 -0.4056  0.0436 -0.2111
   24SAPC  H15R 3183   6.367   2.367   9.658  0.0250 -0.3830  0.5674
   24SAPC  C216 3184   6.177   2.280   9.585  0.3803 -0.3439 -0.4338
   24SAPC  H16R 3185   6.072   2.272   9.621  0.7330  2.9129  1.5195
   24SAPC  H16S 3186   6.216   2.186   9.539  1.2762  0.0804 -0.5416
   24SAPC  C217 3187   6.166   2.394   9.475 -1.0265  0.5962 -1.0283
   24SAPC  H17R 3188   6.264   2.406   9.424 -0.6596  0.9726 -0.2452
   24SAPC  H17S 3189   6.139   2.492   9.521 -0.8555 -0.3079  1.0829
   24SAPC  C218 3190   6.068   2.352   9.364  1.0004 -0.4104  0.4117
   24SAPC  H18R 3191   5.974   2.316   9.410 -0.6779 -0.4274 -2.9151
   24SAPC  H18S 3192   6.106   2.271   9.298 -0.7154  0.3184 -1.5149
   24SAPC  C219 3193   6.039   2.483   9.282 -0.6728  0.2310  0.6324
   24SAPC  H19R 3194   6.132   2.524   9.238 -0.1618 -1.6859 -0.1096
   24SAPC  H19S 3195   6.013   2.566   9.351 -2.3268  0.3936 -0.1439
   24SAPC  C220 3196   5.941   2.473   9.171 -0.3136 -0.7089  0.3267
   24SAPC  H20R 3197   5.996   2.430   9.084 -0.7610  0.9584 -0.8150
   24SAPC  H20S 3198   5.917   2.573   9.130  2.1940 -0.4497 -0.5656
   24SAPC  H20T 3199   5.863   2.397   9.195 -0.3460 -1.2030 -1.2683
   24SAPC   C33 3200   5.870   1.299  10.205 -0.0490 -0.6508  0.1793
   24SAPC   H3X 3201   5.781   1.300  10.272  0.1804  1.8877  0.4722
   24SAPC   H3Y 3202   5.843   1.259  10.105  0.5441  1.6051 -0.9034
   24SAPC   C34 3203   5.926   1.446  10.206 -0.1861 -0.2729 -0.1642
   24SAPC   H4X 3204   6.035   1.453  10.185 -0.1605  0.1475  0.0875
   24SAPC   H4Y 3205   5.920   1.484  10.310  0.7637 -0.8612  0.1101
   24SAPC   C35 3206   5.838   1.540  10.118  0.2966  0.1558 -0.4369
   24SAPC   H5X 3207   5.872   1.641  10.151  0.2042  0.0784 -0.0979
   24SAPC   H5Y 3208   5.731   1.530  10.147  0.6166  0.0492  0.7312
   24SAPC   C36 3209   5.868   1.516   9.969 -0.1585 -0.5804  0.6876
   24SAPC   H6X 3210   5.873   1.409   9.937  0.0392  0.1108 -1.6816
   24SAPC   H6Y 3211   5.966   1.562   9.946 -0.6676 -0.4243 -1.2545
   24SAPC   C37 3212   5.767   1.578   9.875  0.1678 -0.1282 -0.7499
   24SAPC   H7X 3213   5.743   1.684   9.899  0.2661  0.0665 -1.4966
   24SAPC   H7Y 3214   5.678   1.512   9.872  0.2254 -0.1993 -0.9462
   24SAPC   C38 3215   5.819   1.579   9.729  0.2292 -0.5868 -0.7071
   24SAPC   H8X 3216   5.843   1.473   9.707 -1.8956 -1.2392 -0.0363
   24SAPC   H8Y 3217   5.917   1.630   9.719 -0.0237 -0.0752 -0.6025
   24SAPC   C39 3218   5.715   1.640   9.628  0.1278  0.3995 -0.4211
   24SAPC   H9X 3219   5.694   1.745   9.656 -2.8112 -0.3093  0.2383
   24SAPC   H9Y 3220   5.624   1.576   9.637  1.7769 -1.6795  2.2270
   24SAPC  C310 3221   5.759   1.659   9.483  0.0482 -0.2154 -0.0050
   24SAPC  H10X 3222   5.852   1.718   9.492  0.5069 -0.5582 -2.2582
   24SAPC  H10Y 3223   5.680   1.717   9.429 -1.1853 -0.4526  1.4962
   24SAPC  C311 3224   5.767   1.519   9.417  0.2283 -0.0494 -0.2645
   24SAPC  H11X 3225   5.662   1.484   9.410  0.1647 -0.1444  0.9668
   24SAPC  H11Y 3226   5.824   1.446   9.479 -1.0853 -0.7915  0.0689
   24SAPC  C312 3227   5.831   1.536   9.278  0.2571 -0.4517  0.2191
   24SAPC  H12X 3228   5.802   1.633   9.231  1.8068 -1.3672 -2.7871
   24SAPC  H12Y 3229   5.790   1.449   9.223  0.5809 -0.5761  0.1765
   24SAPC  C313 3230   5.979   1.523   9.275  0.1018 -0.4139  0.1727
   24SAPC  H13X 3231   6.011   1.430   9.327  0.2455  0.3324  1.4524
   24SAPC  H13Y 3232   6.023   1.591   9.350 -2.1787 -2.0681  3.1283
   24SAPC  C314 3233   6.034   1.535   9.129  0.1496 -0.3636  0.4956
   24SAPC  H14X 3234   6.144   1.549   9.126 -0.0733  1.1922 -1.6534
   24SAPC  H14Y 3235   5.987   1.613   9.065  0.7407 -0.3955  0.0153
   24SAPC  C315 3236   6.016   1.410   9.046  0.3591 -0.2186 -0.0094
   24SAPC  H15X 3237   5.922   1.411   8.988 -0.1614 -0.1637  0.8172
   24SAPC  H15Y 3238   6.024   1.312   9.098  0.6938  0.2479  0.8374
   24SAPC  C316 3239   6.116   1.403   8.925  0.1168 -0.6243 -0.0226
   24SAPC  H16X 3240   6.117   1.508   8.888  3.1463 -0.1201  1.3803
   24SAPC  H16Y 3241   6.072   1.331   8.853 -1.0133  0.2991 -0.2815
   24SAPC  C317 3242   6.264   1.371   8.957  0.6451  0.4809  0.1666
   24SAPC  H17X 3243   6.283   1.269   8.995 -0.8025  0.7827  1.7426
   24SAPC  H17Y 3244   6.301   1.447   9.029  0.9712  0.9132 -0.4457
   24SAPC  C318 3245   6.340   1.384   8.828 -0.2830  0.2866  0.2284
   24SAPC  H18X 3246   6.420   1.308   8.824  0.5267  0.8219  4.1378
   24SAPC  H18Y 3247   6.386   1.486   8.832 -0.1519  0.2667 -0.6683
   24SAPC  H18Z 3248   6.282   1.363   8.736 -0.9577  1.7176  0.3051
   25SAPC     N 3249   1.504   6.469   5.975  0.6314 -0.0898  0.0427
   25SAPC   C12 3250   1.505   6.625   5.987  0.3547  0.7142 -0.4470
   25SAPC  H12A 3251   1.447   6.671   5.908 -1.1694 -0.2113  0.1055
   25SAPC  H12B 3252   1.606   6.655   5.965  0.2677  2.1999  1.0649
   25SAPC   C13 3253   1.624   6.423   6.052  0.3783 -0.6242 -0.2240
   25SAPC  H13A 3254   1.638   6.317   6.042 -1.0975 -1.1733  2.8935
   25SAPC  H13B 3255   1.715   6.475   6.025  0.9655 -1.2605  0.5017
   25SAPC  H13C 3256   1.618   6.455   6.155  0.2593 -1.5404  0.0533
   25SAPC   C14 3257   1.374   6.396   6.010 -0.0463 -0.3722 -0.1169
   25SAPC  H14A 3258   1.375   6.295   5.973  0.1567 -0.2002 -0.5936
   25SAPC  H14B 3259   1.355   6.390   6.116 -1.3866  0.2528 -0.3139
   25SAPC  H14C 3260   1.294   6.447   5.959  0.8476 -0.1666 -1.3221
   25SAPC   C15 3261   1.529   6.445   5.830 -0.3998  0.8002  0.5940
   25SAPC  H15A 3262   1.623   6.488   5.801 -0.5151  1.4089  1.1132
   25SAPC  H15B 3263   1.549   6.339   5.816  2.8838  1.3631  0.5497
   25SAPC  H15C 3264   1.445   6.473   5.768  0.0282 -0.3862 -0.5687
   25SAPC   C11 3265   1.480   6.677   6.130  0.3458 -0.1818 -0.4271
   25SAPC  H11A 3266   1.542   6.631   6.210  1.2196 -2.5771 -2.4198
   25SAPC  H11B 3267   1.374   6.655   6.155  0.5894 -1.4620 -0.4895
   25SAPC     P 3268   1.663   6.862   6.117  0.1902 -0.0361  0.5594
   25SAPC   O13 3269   1.720   6.832   5.985  0.6245 -0.3238 -0.6169
   25SAPC   O14 3270   1.660   7.007   6.152  0.4796  0.0389 -0.3624
   25SAPC   O12 3271   1.505   6.818   6.124  0.0243  0.1514  0.2957
   25SAPC   O11 3272   1.747   6.784   6.231 -0.3293  0.4390 -0.3021
   25SAPC    C1 3273   1.702   6.795   6.368  0.0173 -1.0747 -0.2165
   25SAPC    HA 3274   1.591   6.793   6.372 -0.0393 -3.6076 -1.8976
   25SAPC    HB 3275   1.732   6.702   6.422 -0.5087 -1.0520  0.1126
   25SAPC    C2 3276   1.753   6.920   6.447 -0.0096  0.0450 -0.4577
   25SAPC    HS 3277   1.740   7.013   6.387 -0.8281 -1.0492 -2.0225
   25SAPC   O21 3278   1.891   6.894   6.495  0.5370 -0.4146 -0.6882
   25SAPC   C21 3279   1.966   7.003   6.504  0.4092  0.1670  0.3305
   25SAPC   O22 3280   1.945   7.111   6.453 -0.5041 -0.3009 -0.4603
   25SAPC   C22 3281   2.095   6.965   6.582  0.4357  0.0799  0.5956
   25SAPC   H2R 3282   2.122   6.865   6.543 -0.5372 -0.1201  0.4204
   25SAPC   H2S 3283   2.173   7.044   6.578  0.8509 -0.3286  0.5288
   25SAPC    C3 3284   1.664   6.947   6.577  0.9316 -0.0147 -0.4948
   25SAPC    HX 3285   1.670   6.865   6.651  0.3215  3.0615  3.1244
   25SAPC    HY 3286   1.556   6.955   6.551  1.4604  0.4029 -2.7188
   25SAPC   O31 3287   1.712   7.062   6.650  0.0292  0.4812 -0.2395
   25SAPC   C31 3288   1.671   7.183   6.614  0.5418 -0.6542  0.7574
   25SAPC   O32 3289   1.588   7.194   6.522  0.4322  0.0099 -0.4366
   25SAPC   C32 3290   1.728   7.295   6.705 -0.1709 -0.1592  1.0849
   25SAPC   H2X 3291   1.694   7.394   6.666  1.2182 -0.7288 -1.6731
   25SAPC   H2Y 3292   1.836   7.282   6.683 -0.1120  1.8905 -0.0390
   25SAPC   C23 3293   2.062   6.952   6.736  0.2195  0.3583  0.3066
   25SAPC   H3R 3294   2.149   6.916   6.795  0.2234 -1.6088 -0.8690
   25SAPC   H3S 3295   1.978   6.880   6.747  0.1925  0.3515  0.0490
   25SAPC   C24 3296   2.024   7.084   6.803  0.4269 -0.3852  0.1924
   25SAPC   H4R 3297   1.967   7.056   6.894 -0.3749 -2.0077 -0.7922
   25SAPC   H4S 3298   1.957   7.140   6.735  1.0042  1.2963  0.9697
   25SAPC   C25 3299   2.149   7.165   6.830  0.2162  0.5080 -0.4034
   25SAPC   H5R 3300   2.177   7.233   6.748 -0.6092  0.5738 -0.6419
   25SAPC   C26 3301   2.212   7.185   6.948  0.1798  0.6945 -0.2266
   25SAPC   H6R 3302   2.316   7.218   6.940  0.3640 -0.0077 -0.7132
   25SAPC   C27 3303   2.190   7.139   7.087  1.5976  0.1801 -0.5894
   25SAPC   H7R 3304   2.270   7.071   7.124 -0.2457 -0.6279  1.9891
   25SAPC   H7S 3305   2.091   7.089   7.092  2.5674 -1.7441 -0.2011
   25SAPC   C28 3306   2.173   7.270   7.171 -0.0798 -0.5174 -0.7032
   25SAPC   H8R 3307   2.170   7.366   7.116 -0.6409 -0.4722 -0.5928
   25SAPC   C29 3308   2.170   7.283   7.305  0.4194 -0.4309 -0.5718
   25SAPC   H9R 3309   2.147   7.378   7.355 -0.7385 -1.4527  0.8968
   25SAPC  C210 3310   2.192   7.167   7.406 -0.1356 -0.5956  0.7584
   25SAPC  H10R 3311   2.275   7.198   7.474  0.3833 -0.7656  0.2083
   25SAPC  H10S 3312   2.229   7.073   7.361 -0.4070  0.2937 -1.3704
   25SAPC  C211 3313   2.067   7.146   7.486 -0.1936  0.1691 -0.1070
   25SAPC  H11R 3314   2.004   7.079   7.426 -3.3677  0.4537  2.7581
   25SAPC  C212 3315   2.035   7.193   7.609 -1.0273  0.4034  0.5080
   25SAPC  H12R 3316   1.939   7.167   7.657 -0.9592  1.0652  1.0046
   25SAPC  C213 3317   2.124   7.279   7.692  0.4999 -0.2926  0.2619
   25SAPC  H13R 3318   2.124   7.378   7.643  0.3600  0.3844  1.6129
   25SAPC  H13S 3319   2.231   7.250   7.684  0.7403  0.4561  0.7340
   25SAPC  C214 3320   2.084   7.287   7.836 -0.3638  0.8283  1.0127
   25SAPC  H14R 3321   2.082   7.190   7.889 -0.5795 -1.3159 -2.7530
   25SAPC  C215 3322   2.083   7.403   7.906  0.3495  0.6114  0.4097
   25SAPC  H15R 3323   2.055   7.392   8.012 -0.2357 -1.7997  0.0264
   25SAPC  C216 3324   2.103   7.543   7.864  0.1997 -0.0853 -0.2663
   25SAPC  H16R 3325   2.097   7.559   7.754 -0.9777 -1.5478 -0.4187
   25SAPC  H16S 3326   2.203   7.580   7.898  1.4144 -3.8000  0.4229
   25SAPC  C217 3327   2.002   7.637   7.929  0.5408  0.6853  0.2883
   25SAPC  H17R 3328   1.899   7.595   7.925 -0.2219  2.6576 -1.3516
   25SAPC  H17S 3329   2.000   7.736   7.879  1.2039 -0.2915 -1.6895
   25SAPC  C218 3330   2.006   7.647   8.085  0.0711 -0.0937  0.3892
   25SAPC  H18R 3331   2.099   7.700   8.115  0.1723  1.4820 -2.4595
   25SAPC  H18S 3332   1.995   7.548   8.135  3.4352 -0.8033 -0.1239
   25SAPC  C219 3333   1.884   7.731   8.139  0.0339  0.2121  0.5829
   25SAPC  H19R 3334   1.884   7.834   8.098 -0.7633 -0.4786 -1.2310
   25SAPC  H19S 3335   1.893   7.741   8.249 -0.5075 -1.8826  0.8513
   25SAPC  C220 3336   1.737   7.683   8.126  1.2801 -0.2178  0.4583
   25SAPC  H20R 3337   1.722   7.574   8.143  0.9771 -0.7002 -2.5993
   25SAPC  H20S 3338   1.703   7.694   8.021  2.1051 -2.4767 -0.0728
   25SAPC  H20T 3339   1.668   7.735   8.195 -2.2996  1.5491 -4.1374
   25SAPC   C33 3340   1.693   7.282   6.853 -0.8106  0.2639  0.2471
   25SAPC   H3X 3341   1.722   7.181   6.890  0.6528  1.0089  1.1699
   25SAPC   H3Y 3342   1.582   7.285   6.853 -0.7792  2.3263  0.7318
   25SAPC   C34 3343   1.755   7.378   6.950  0.4455  0.1656 -0.3311
   25SAPC   H4X 3344   1.739   7.483   6.917  0.0316  0.4539  0.7768
   25SAPC   H4Y 3345   1.866   7.370   6.947  0.3721 -1.7695  1.1863
   25SAPC   C35 3346   1.701   7.349   7.094 -0.3682 -0.1486  0.5565
   25SAPC   H5X 3347   1.739   7.248   7.118 -0.0465 -1.0561 -3.3670
   25SAPC   H5Y 3348   1.591   7.345   7.083 -0.2846  1.1171 -1.1577
   25SAPC   C36 3349   1.752   7.457   7.195  0.2634  0.3389 -0.3134
   25SAPC   H6X 3350   1.721   7.549   7.140  0.3009  0.4326 -0.1775
   25SAPC   H6Y 3351   1.861   7.447   7.214 -0.3540  0.2872  3.8625
   25SAPC   C37 3352   1.692   7.459   7.332 -0.4235 -0.4872 -0.0316
   25SAPC   H7X 3353   1.682   7.353   7.364 -0.7352 -0.9394 -1.6162
   25SAPC   H7Y 3354   1.601   7.523   7.335  1.9137  2.9078  2.7961
   25SAPC   C38 3355   1.787   7.524   7.432  0.4898  0.0293 -0.1627
   25SAPC   H8X 3356   1.821   7.621   7.390  0.9358 -0.2457 -0.4486
   25SAPC   H8Y 3357   1.885   7.470   7.428 -0.1916 -1.1199 -2.4392
   25SAPC   C39 3358   1.740   7.538   7.576 -0.3646  0.6708 -0.2935
   25SAPC   H9X 3359   1.630   7.547   7.587 -0.4613 -0.8688  0.1286
   25SAPC   H9Y 3360   1.787   7.621   7.632 -1.9437  2.8731 -2.1513
   25SAPC  C310 3361   1.764   7.413   7.661  0.2289  0.2291  0.2216
   25SAPC  H10X 3362   1.872   7.411   7.687  0.6552 -0.5086 -1.5493
   25SAPC  H10Y 3363   1.744   7.334   7.586 -0.1050  1.3501 -0.8791
   25SAPC  C311 3364   1.672   7.389   7.790  0.1769 -0.2036 -0.3871
   25SAPC  H11X 3365   1.563   7.397   7.770  0.0620  1.1229  0.6952
   25SAPC  H11Y 3366   1.696   7.468   7.864 -2.3009  0.7833 -0.5959
   25SAPC  C312 3367   1.702   7.260   7.872 -1.0088  0.4981  0.4513
   25SAPC  H12X 3368   1.811   7.243   7.856 -0.7789  0.5356  1.8474
   25SAPC  H12Y 3369   1.656   7.173   7.821  2.5200 -0.9424 -0.4559
   25SAPC  C313 3370   1.678   7.285   8.017  0.4037 -0.8094 -0.2399
   25SAPC  H13X 3371   1.569   7.287   8.040  0.6177  0.0904  0.7756
   25SAPC  H13Y 3372   1.719   7.384   8.046  1.8360 -1.4230 -0.1480
   25SAPC  C314 3373   1.748   7.194   8.119  0.3167 -0.8051  0.0410
   25SAPC  H14X 3374   1.855   7.182   8.090  0.5840  1.3987 -0.0460
   25SAPC  H14Y 3375   1.679   7.109   8.102 -1.3063  0.3615  0.5829
   25SAPC  C315 3376   1.742   7.248   8.265 -0.6220  0.3286  0.4050
   25SAPC  H15X 3377   1.637   7.278   8.288 -0.5116  2.3686 -1.5305
   25SAPC  H15Y 3378   1.801   7.342   8.268  0.5721 -0.3763 -0.5397
   25SAPC  C316 3379   1.782   7.152   8.363 -0.9241 -0.0631 -0.0443
   25SAPC  H16X 3380   1.760   7.047   8.333  0.7699 -1.1061  2.1927
   25SAPC  H16Y 3381   1.716   7.168   8.451  1.0942 -1.1010  1.7145
   25SAPC  C317 3382   1.934   7.161   8.387 -0.0953  0.1641 -0.0793
   25SAPC  H17X 3383   1.955   7.261   8.429  0.2325 -0.2376  0.7388
   25SAPC  H17Y 3384   1.971   7.146   8.284  1.2741 -0.7003  0.5235
   25SAPC  C318 3385   2.002   7.046   8.475 -0.3125 -0.0186 -0.1460
   25SAPC  H18X 3386   1.981   6.942   8.443  0.7566 -0.8429  1.7404
   25SAPC  H18Y 3387   1.939   7.044   8.566 -1.7788  0.4733 -1.1322
   25SAPC  H18Z 3388   2.108   7.073   8.495 -0.7184  0.6723  1.1292
   26SAPC     N 3389   1.368   2.608   5.903  0.2548  0.4808  0.0141
   26SAPC   C12 3390   1.373   2.696   6.023 -0.5095 -0.7766  0.4129
   26SAPC  H12A 3391   1.284   2.757   6.031  1.1606  1.4887  2.4398
   26SAPC  H12B 3392   1.442   2.778   6.009 -0.5547 -0.7610  0.2796
   26SAPC   C13 3393   1.258   2.512   5.925  0.3490 -0.0533 -0.1166
   26SAPC  H13A 3394   1.283   2.437   5.999 -2.0767 -1.2333 -0.4416
   26SAPC  H13B 3395   1.171   2.566   5.958  0.5080 -0.4405  0.9657
   26SAPC  H13C 3396   1.223   2.467   5.834 -0.7283  0.9077 -0.1764
   26SAPC   C14 3397   1.333   2.693   5.786  0.0631  0.2699 -0.2622
   26SAPC  H14A 3398   1.229   2.723   5.792 -0.4809 -1.7440  0.5238
   26SAPC  H14B 3399   1.392   2.783   5.782 -0.1470  0.6056  2.9437
   26SAPC  H14C 3400   1.341   2.644   5.691  0.7257  1.7355 -0.9780
   26SAPC   C15 3401   1.499   2.545   5.875 -0.6468 -0.0626  0.8493
   26SAPC  H15A 3402   1.575   2.615   5.846  0.0404 -1.1570 -0.0713
   26SAPC  H15B 3403   1.530   2.511   5.972 -1.3048  1.3822  1.5761
   26SAPC  H15C 3404   1.488   2.459   5.810 -1.1697  1.1514 -0.7024
   26SAPC   C11 3405   1.389   2.629   6.166 -0.1966  0.6555 -0.4122
   26SAPC  H11A 3406   1.290   2.590   6.198  0.4020  0.0304  0.7175
   26SAPC  H11B 3407   1.414   2.702   6.246 -0.3319  0.4204 -0.1557
   26SAPC     P 3408   1.469   2.394   6.231 -0.1818  0.1377 -0.1507
   26SAPC   O13 3409   1.359   2.327   6.164  0.3759  0.1338 -1.1056
   26SAPC   O14 3410   1.600   2.319   6.223  0.7227 -0.8454  0.3032
   26SAPC   O12 3411   1.494   2.532   6.174 -0.2798 -0.7936  0.4854
   26SAPC   O11 3412   1.436   2.415   6.388  0.0693 -0.1031 -0.0017
   26SAPC    C1 3413   1.515   2.497   6.475 -0.0789 -0.0888  0.3690
   26SAPC    HA 3414   1.623   2.487   6.451 -0.0231  1.2169  0.0578
   26SAPC    HB 3415   1.490   2.602   6.450  1.8889  0.3141 -0.0435
   26SAPC    C2 3416   1.497   2.477   6.631  0.4267 -0.1571 -0.1299
   26SAPC    HS 3417   1.530   2.565   6.689  1.6929 -0.4452 -0.3814
   26SAPC   O21 3418   1.551   2.354   6.677 -0.1693 -0.6505  0.5812
   26SAPC   C21 3419   1.679   2.334   6.672  0.8608 -0.2750 -0.6585
   26SAPC   O22 3420   1.768   2.415   6.658  0.5028 -0.3116 -0.2144
   26SAPC   C22 3421   1.709   2.188   6.697 -0.1288 -0.5179  0.5858
   26SAPC   H2R 3422   1.787   2.168   6.620  0.7919  0.2694  1.2975
   26SAPC   H2S 3423   1.763   2.202   6.793  1.0404  1.1275 -0.2872
   26SAPC    C3 3424   1.350   2.470   6.670  0.4467 -0.5640 -0.9499
   26SAPC    HX 3425   1.298   2.403   6.598 -0.5594  1.6940 -2.4058
   26SAPC    HY 3426   1.297   2.567   6.653 -1.1342 -1.3165 -0.4552
   26SAPC   O31 3427   1.339   2.437   6.810  0.7316 -0.3664 -0.1307
   26SAPC   C31 3428   1.286   2.324   6.839 -0.9389 -0.3670 -0.9936
   26SAPC   O32 3429   1.237   2.246   6.757 -0.6597  0.3934 -0.0318
   26SAPC   C32 3430   1.274   2.311   6.992  0.5531  0.4409 -0.4606
   26SAPC   H2X 3431   1.175   2.351   7.023  0.3146 -0.5323  0.0654
   26SAPC   H2Y 3432   1.343   2.387   7.034  0.8814  0.2461 -0.6530
   26SAPC   C23 3433   1.586   2.096   6.706 -0.6316  0.9297 -0.2196
   26SAPC   H3R 3434   1.524   2.091   6.613 -0.8346  0.8689 -0.0801
   26SAPC   H3S 3435   1.517   2.135   6.783  0.1783  1.2241  0.3663
   26SAPC   C24 3436   1.620   1.952   6.748  0.3902  0.0647 -0.3288
   26SAPC   H4R 3437   1.662   1.960   6.851 -0.0815 -1.9690  0.0469
   26SAPC   H4S 3438   1.703   1.920   6.681  1.5187 -0.0834  1.0861
   26SAPC   C25 3439   1.511   1.855   6.734 -0.1002  0.0767  0.2283
   26SAPC   H5R 3440   1.492   1.823   6.630  1.9358  1.8905 -0.7327
   26SAPC   C26 3441   1.452   1.777   6.823 -1.1106  0.2412  0.3982
   26SAPC   H6R 3442   1.375   1.705   6.791 -0.7237  0.7443 -1.7047
   26SAPC   C27 3443   1.487   1.769   6.965 -0.3014 -0.0151 -0.0103
   26SAPC   H7R 3444   1.419   1.836   7.022 -0.5114 -0.1798 -0.0689
   26SAPC   H7S 3445   1.593   1.798   6.983  0.1323 -0.7622 -1.3260
   26SAPC   C28 3446   1.472   1.622   7.002 -0.1048  0.2526  0.8525
   26SAPC   H8R 3447   1.485   1.557   6.914  0.4358  2.3169 -0.6068
   26SAPC   C29 3448   1.463   1.567   7.131  0.0354 -0.1611  0.1821
   26SAPC   H9R 3449   1.460   1.458   7.139  0.9609 -0.2389 -0.4145
   26SAPC  C210 3450   1.473   1.639   7.265  0.7671  0.6190 -0.3592
   26SAPC  H10R 3451   1.387   1.597   7.321  0.9034  0.0599 -0.5633
   26SAPC  H10S 3452   1.451   1.747   7.259 -0.3753  0.5414  1.9819
   26SAPC  C211 3453   1.607   1.625   7.323 -0.3423  1.1042 -0.5147
   26SAPC  H11R 3454   1.691   1.610   7.254  1.8033 -0.4351  2.3519
   26SAPC  C212 3455   1.627   1.639   7.458  0.0293  0.1385 -0.7771
   26SAPC  H12R 3456   1.719   1.601   7.506  0.1673  0.2928 -0.9168
   26SAPC  C213 3457   1.517   1.676   7.563 -0.6244 -0.4802 -0.4137
   26SAPC  H13R 3458   1.520   1.583   7.624 -0.2367  0.2696  0.7233
   26SAPC  H13S 3459   1.412   1.692   7.528 -1.0105 -1.8221  0.0878
   26SAPC  C214 3460   1.570   1.799   7.642 -0.2800 -0.0713 -0.5507
   26SAPC  H14R 3461   1.585   1.888   7.579 -2.0789  1.5528  1.2299
   26SAPC  C215 3462   1.613   1.809   7.766 -0.1056 -0.3366  0.0378
   26SAPC  H15R 3463   1.649   1.907   7.800  1.7332 -0.2861 -1.9204
   26SAPC  C216 3464   1.602   1.689   7.868  0.2832  0.1229 -0.4279
   26SAPC  H16R 3465   1.697   1.690   7.926 -1.0151  0.6383  1.7425
   26SAPC  H16S 3466   1.599   1.586   7.827  0.0125 -0.4409  0.9773
   26SAPC  C217 3467   1.485   1.713   7.969  0.2798  0.6894 -0.9572
   26SAPC  H17R 3468   1.479   1.629   8.041 -0.6055 -0.2402 -2.1014
   26SAPC  H17S 3469   1.388   1.708   7.915  0.7729  0.5390 -1.8284
   26SAPC  C218 3470   1.495   1.838   8.058  0.1791  0.1012 -0.0212
   26SAPC  H18R 3471   1.491   1.935   8.003 -2.5054 -0.8066 -1.5368
   26SAPC  H18S 3472   1.582   1.830   8.126 -0.0747 -1.4349  0.1328
   26SAPC  C219 3473   1.365   1.856   8.142 -0.4596  0.8530 -0.0626
   26SAPC  H19R 3474   1.284   1.865   8.068 -0.3999 -0.3461 -0.2859
   26SAPC  H19S 3475   1.367   1.955   8.193  0.1318  1.1181 -0.5939
   26SAPC  C220 3476   1.347   1.743   8.248 -0.0393  0.1163 -0.6784
   26SAPC  H20R 3477   1.259   1.769   8.312 -0.6438 -0.1840 -1.3789
   26SAPC  H20S 3478   1.439   1.754   8.310 -0.0997 -0.5485 -0.4688
   26SAPC  H20T 3479   1.323   1.655   8.186 -0.8255 -0.3949  0.3283
   26SAPC   C33 3480   1.292   2.170   7.047  0.0332  0.1452 -0.4779
   26SAPC   H3X 3481   1.239   2.092   6.988 -1.7513  0.7439  0.2913
   26SAPC   H3Y 3482   1.248   2.174   7.149 -1.3693 -0.7520 -1.0214
   26SAPC   C34 3483   1.442   2.139   7.057  0.3489  0.2003  0.5552
   26SAPC   H4X 3484   1.503   2.230   7.037 -3.3123  2.6664  0.2013
   26SAPC   H4Y 3485   1.478   2.065   6.982  0.0458  1.0391 -0.4292
   26SAPC   C35 3486   1.471   2.080   7.190  0.1078  0.1755 -0.5316
   26SAPC   H5X 3487   1.569   2.029   7.193 -1.2364 -2.4318  0.2275
   26SAPC   H5Y 3488   1.389   2.014   7.226 -2.3186  2.7644 -1.0680
   26SAPC   C36 3489   1.487   2.178   7.301 -0.0178 -0.0595  0.3418
   26SAPC   H6X 3490   1.401   2.248   7.305 -0.5552 -0.7988  2.3990
   26SAPC   H6Y 3491   1.577   2.242   7.287 -0.6832  0.9587  0.6594
   26SAPC   C37 3492   1.501   2.118   7.439  0.5813 -0.8437  0.3638
   26SAPC   H7X 3493   1.595   2.061   7.453  2.7887  2.3558 -0.8444
   26SAPC   H7Y 3494   1.415   2.053   7.465  0.4384 -1.3022 -1.1653
   26SAPC   C38 3495   1.506   2.222   7.547  0.3050  0.6123  0.2164
   26SAPC   H8X 3496   1.425   2.296   7.534 -0.0510  0.0524 -0.8120
   26SAPC   H8Y 3497   1.597   2.285   7.534  0.7091  0.2691  1.2992
   26SAPC   C39 3498   1.505   2.164   7.687  0.4074  0.2100  0.0935
   26SAPC   H9X 3499   1.593   2.099   7.702  1.2043  0.7153 -2.1632
   26SAPC   H9Y 3500   1.423   2.089   7.679  0.6611  0.0254 -0.8476
   26SAPC  C310 3501   1.460   2.265   7.793 -0.4273  0.5485 -0.2922
   26SAPC  H10X 3502   1.382   2.334   7.755  0.1523  1.0701 -0.5269
   26SAPC  H10Y 3503   1.540   2.340   7.809  1.4008 -0.6752 -3.2660
   26SAPC  C311 3504   1.396   2.207   7.926  0.4798 -0.5294 -0.1400
   26SAPC  H11X 3505   1.482   2.153   7.971  0.4764 -1.0803 -0.7826
   26SAPC  H11Y 3506   1.312   2.137   7.906 -1.1912  1.2750  0.4291
   26SAPC  C312 3507   1.339   2.305   8.030 -0.0624 -0.0324 -0.1612
   26SAPC  H12X 3508   1.249   2.354   7.987 -1.2774 -0.2505  2.0628
   26SAPC  H12Y 3509   1.405   2.393   8.044 -1.7518  1.6447 -2.1822
   26SAPC  C313 3510   1.314   2.249   8.172 -0.1031 -0.6462  0.0704
   26SAPC  H13X 3511   1.411   2.215   8.212  0.5959 -0.8571 -1.7413
   26SAPC  H13Y 3512   1.238   2.168   8.170 -2.1000  1.1892 -0.0912
   26SAPC  C314 3513   1.258   2.352   8.266  0.5391 -0.2924  0.0863
   26SAPC  H14X 3514   1.162   2.399   8.237  0.0621 -1.2908 -0.0022
   26SAPC  H14Y 3515   1.328   2.433   8.237  0.5264 -0.9432 -1.8522
   26SAPC  C315 3516   1.270   2.313   8.411 -0.8252  0.3463 -0.5580
   26SAPC  H15X 3517   1.367   2.263   8.430 -0.0097  1.9928 -0.2958
   26SAPC  H15Y 3518   1.199   2.235   8.446 -0.5478  0.3067 -0.0754
   26SAPC  C316 3519   1.289   2.429   8.513  0.4722  0.1042  1.0417
   26SAPC  H16X 3520   1.204   2.487   8.555  0.8048 -0.6733  2.8430
   26SAPC  H16Y 3521   1.341   2.514   8.462 -0.6868  0.5391  0.5619
   26SAPC  C317 3522   1.371   2.390   8.637 -0.1838  0.1563 -0.7538
   26SAPC  H17X 3523   1.380   2.483   8.697  1.5261 -0.2553 -0.3655
   26SAPC  H17Y 3524   1.472   2.365   8.599 -0.2834 -0.7278 -0.4311
   26SAPC  C318 3525   1.324   2.273   8.718  1.1665  0.4004  0.3245
   26SAPC  H18X 3526   1.406   2.227   8.777 -1.5073 -0.5292  3.5389
   26SAPC  H18Y 3527   1.280   2.194   8.653 -1.4938  1.1142  1.1732
   26SAPC  H18Z 3528   1.256   2.291   8.804 -1.0391 -0.8647 -1.0860
   27SAPC     N 3529   5.727   2.370   6.442 -0.2223 -0.0708  0.0014
   27SAPC   C12 3530   5.728   2.479   6.556 -0.4895 -0.0180 -0.3643
   27SAPC  H12A 3531   5.691   2.429   6.644  1.7550 -1.7688 -0.3637
   27SAPC  H12B 3532   5.664   2.554   6.512  0.4571  1.7827  1.2781
   27SAPC   C13 3533   5.597   2.287   6.457  0.3520  0.0389  0.0168
   27SAPC  H13A 3534   5.584   2.236   6.551 -0.6560  0.8417  0.3198
   27SAPC  H13B 3535   5.518   2.359   6.441 -1.0199 -0.6887  3.1180
   27SAPC  H13C 3536   5.584   2.208   6.385  1.2685  0.2635 -0.3949
   27SAPC   C14 3537   5.731   2.432   6.311  0.6154 -0.3181  0.2224
   27SAPC  H14A 3538   5.713   2.351   6.242  1.4349  0.1050 -0.4898
   27SAPC  H14B 3539   5.645   2.496   6.301  2.2361  1.9450  0.4156
   27SAPC  H14C 3540   5.823   2.480   6.280  1.3345 -1.4632  0.5428
   27SAPC   C15 3541   5.848   2.279   6.454 -0.1416 -0.8157  0.3291
   27SAPC  H15A 3542   5.857   2.213   6.368  0.1408  0.1210 -0.3703
   27SAPC  H15B 3543   5.937   2.340   6.457 -0.6699  0.1523 -2.4928
   27SAPC  H15C 3544   5.851   2.224   6.547 -1.4828 -0.6428  0.4832
   27SAPC   C11 3545   5.866   2.541   6.589 -0.5347 -0.8409  0.0520
   27SAPC  H11A 3546   5.847   2.645   6.621 -0.2287 -0.3077 -1.4987
   27SAPC  H11B 3547   5.924   2.562   6.497  0.0760 -1.0796  0.3729
   27SAPC     P 3548   6.031   2.517   6.786 -0.1533 -0.8252  0.0727
   27SAPC   O13 3549   6.155   2.523   6.710  0.8675 -0.2583 -0.1074
   27SAPC   O14 3550   5.983   2.640   6.853 -0.0934 -0.1477 -0.1322
   27SAPC   O12 3551   5.924   2.450   6.682 -0.8423  0.8699 -0.0355
   27SAPC   O11 3552   6.043   2.394   6.891 -0.2421 -0.0048 -0.1066
   27SAPC    C1 3553   6.041   2.261   6.832 -0.4597  0.4659 -0.2317
   27SAPC    HA 3554   6.076   2.260   6.727  1.4427 -1.4333  0.3860
   27SAPC    HB 3555   6.111   2.192   6.884 -0.3991  0.3995 -0.4012
   27SAPC    C2 3556   5.904   2.187   6.845 -0.5935  0.7654 -0.3442
   27SAPC    HS 3557   5.836   2.253   6.787 -0.8519  1.2592  0.4986
   27SAPC   O21 3558   5.875   2.189   6.982  0.2769 -0.3910  0.1439
   27SAPC   C21 3559   5.751   2.143   7.016  0.7382  0.4148  0.0703
   27SAPC   O22 3560   5.662   2.125   6.929  0.4080  0.2105 -0.3358
   27SAPC   C22 3561   5.743   2.125   7.168  0.4722  0.1151 -0.7693
   27SAPC   H2R 3562   5.810   2.038   7.187  0.3064 -0.0590 -0.9864
   27SAPC   H2S 3563   5.792   2.210   7.221  0.5434 -0.6671  0.4453
   27SAPC    C3 3564   5.915   2.046   6.781  0.2557  0.6436 -0.4606
   27SAPC    HX 3565   5.997   2.052   6.706  2.5270 -2.6855  1.5967
   27SAPC    HY 3566   5.817   2.013   6.742 -1.2669  2.4147  1.7364
   27SAPC   O31 3567   5.977   1.956   6.882 -0.5450  0.1165  0.5449
   27SAPC   C31 3568   5.901   1.861   6.932  0.0336 -0.5561 -0.3857
   27SAPC   O32 3569   5.781   1.847   6.908 -0.1671 -0.3935 -0.2973
   27SAPC   C32 3570   5.974   1.779   7.032 -0.8949  0.1538 -0.0938
   27SAPC   H2X 3571   5.951   1.815   7.134  0.6300 -1.0075  0.6826
   27SAPC   H2Y 3572   6.083   1.799   7.021 -0.5180 -0.8517  1.5744
   27SAPC   C23 3573   5.608   2.087   7.210  0.5058  0.1652  0.4200
   27SAPC   H3R 3574   5.574   1.990   7.166 -1.8437  2.1673 -2.3635
   27SAPC   H3S 3575   5.538   2.167   7.179  0.4442  0.2410  0.7484
   27SAPC   C24 3576   5.590   2.067   7.362 -0.5488  0.2126 -0.3947
   27SAPC   H4R 3577   5.666   1.995   7.399 -1.8826 -0.8596  0.3192
   27SAPC   H4S 3578   5.492   2.018   7.383 -0.2813 -0.1375  0.0606
   27SAPC   C25 3579   5.602   2.196   7.449  0.2277 -0.2688  0.9470
   27SAPC   H5R 3580   5.662   2.280   7.410  0.7490 -0.3958  1.4627
   27SAPC   C26 3581   5.553   2.219   7.573 -0.1621 -0.2160  0.2064
   27SAPC   H6R 3582   5.566   2.320   7.613 -2.0729  0.1053  0.0255
   27SAPC   C27 3583   5.477   2.118   7.657  0.1028 -0.0105 -0.3508
   27SAPC   H7R 3584   5.536   2.031   7.694  1.0809  0.7657 -0.0447
   27SAPC   H7S 3585   5.403   2.071   7.590  0.9716 -1.7786 -0.0923
   27SAPC   C28 3586   5.389   2.193   7.758  0.1664  0.0273  0.2015
   27SAPC   H8R 3587   5.317   2.263   7.713  1.3175  1.0720 -0.0456
   27SAPC   C29 3588   5.395   2.186   7.892  0.5560  0.8437  0.3976
   27SAPC   H9R 3589   5.319   2.240   7.950 -1.8108 -1.5965 -0.3136
   27SAPC  C210 3590   5.483   2.101   7.983  0.5929  0.2205 -0.2713
   27SAPC  H10R 3591   5.583   2.095   7.935  0.9224  0.1084  0.4194
   27SAPC  H10S 3592   5.454   1.994   7.986  0.1232  0.3682  1.5878
   27SAPC  C211 3593   5.491   2.150   8.125 -0.1062  0.4265 -0.2557
   27SAPC  H11R 3594   5.582   2.211   8.139  0.2311  0.0828 -0.9620
   27SAPC  C212 3595   5.403   2.138   8.231 -0.2937 -0.5401  0.6883
   27SAPC  H12R 3596   5.441   2.175   8.327 -2.1921 -0.1694  1.3216
   27SAPC  C213 3597   5.280   2.048   8.223  0.0337  1.2398  0.1861
   27SAPC  H13R 3598   5.231   2.043   8.123  1.3368  1.2023 -0.4632
   27SAPC  H13S 3599   5.197   2.081   8.290 -0.2592  0.2662  0.3179
   27SAPC  C214 3600   5.321   1.915   8.279 -0.5378 -0.1003 -0.9323
   27SAPC  H14R 3601   5.398   1.864   8.220  0.8851 -0.4961  1.1802
   27SAPC  C215 3602   5.267   1.841   8.381 -0.2590  0.2022 -0.1192
   27SAPC  H15R 3603   5.318   1.749   8.414  0.1962  1.6158  3.3259
   27SAPC  C216 3604   5.159   1.881   8.473 -0.2557 -0.1776  0.1424
   27SAPC  H16R 3605   5.077   1.806   8.476  0.9654 -1.4963  0.9740
   27SAPC  H16S 3606   5.104   1.971   8.436  0.1600  0.1545  0.3326
   27SAPC  C217 3607   5.206   1.918   8.611 -0.8684  0.1200  0.5024
   27SAPC  H17R 3608   5.289   1.991   8.608  0.0573 -0.9849 -1.4145
   27SAPC  H17S 3609   5.241   1.829   8.668  0.3374  1.6563  2.2311
   27SAPC  C218 3610   5.098   1.977   8.696 -0.5016 -0.2012 -1.2294
   27SAPC  H18R 3611   5.005   1.917   8.703 -0.8549  0.3233 -1.3986
   27SAPC  H18S 3612   5.064   2.073   8.653  0.6315  0.4184 -0.7786
   27SAPC  C219 3613   5.151   1.992   8.845 -0.3499  0.4589  0.3786
   27SAPC  H19R 3614   5.251   2.034   8.821 -0.1955 -1.7157 -3.1391
   27SAPC  H19S 3615   5.151   1.893   8.897 -2.1804  0.5096  0.4929
   27SAPC  C220 3616   5.070   2.094   8.921 -0.2184  0.2364 -0.5462
   27SAPC  H20R 3617   5.076   2.192   8.869  0.2833  0.8186  0.5786
   27SAPC  H20S 3618   5.108   2.097   9.026 -0.4896  2.0880 -0.4881
   27SAPC  H20T 3619   4.967   2.055   8.912  0.4342 -0.8388 -3.8311
   27SAPC   C33 3620   5.940   1.633   7.013 -0.2313 -0.4958  0.9602
   27SAPC   H3X 3621   5.987   1.604   6.916 -0.3444  1.3098  0.3605
   27SAPC   H3Y 3622   5.832   1.615   6.997  0.0663  0.3501 -2.3286
   27SAPC   C34 3623   5.985   1.531   7.116 -0.1448  0.4144  0.1593
   27SAPC   H4X 3624   6.093   1.539   7.141 -0.3535 -1.1462  1.5959
   27SAPC   H4Y 3625   5.978   1.426   7.081  0.1392 -0.5595  2.9316
   27SAPC   C35 3626   5.901   1.548   7.238 -0.1557 -0.1504 -1.0850
   27SAPC   H5X 3627   5.799   1.507   7.227 -1.4349  2.0634  1.8008
   27SAPC   H5Y 3628   5.884   1.657   7.252 -2.3487 -0.7173  1.0417
   27SAPC   C36 3629   5.978   1.496   7.366 -0.2843 -0.6615 -0.7367
   27SAPC   H6X 3630   6.076   1.549   7.374 -0.8808  0.6476 -1.8563
   27SAPC   H6Y 3631   5.988   1.386   7.352  0.3048 -0.6498 -0.4314
   27SAPC   C37 3632   5.909   1.524   7.503  0.1343  0.2790 -0.5268
   27SAPC   H7X 3633   5.812   1.471   7.497  1.6480 -2.7833  0.5405
   27SAPC   H7Y 3634   5.889   1.631   7.520 -3.5633 -0.5129  0.4918
   27SAPC   C38 3635   6.003   1.465   7.617 -0.8054 -0.1171  0.0311
   27SAPC   H8X 3636   6.092   1.530   7.630  0.9250 -1.8213 -2.6834
   27SAPC   H8Y 3637   6.044   1.369   7.577 -1.5551 -0.2574 -0.4007
   27SAPC   C39 3638   5.924   1.433   7.743 -0.3388 -0.5757  0.2433
   27SAPC   H9X 3639   5.835   1.374   7.712 -0.8971  1.2089 -1.6944
   27SAPC   H9Y 3640   5.886   1.532   7.777 -2.1314 -1.4723  0.9627
   27SAPC  C310 3641   6.013   1.357   7.843  0.3506  0.1950 -0.2682
   27SAPC  H10X 3642   6.103   1.410   7.880  0.7505 -1.4312  1.1744
   27SAPC  H10Y 3643   6.051   1.262   7.800  1.0112  0.3998 -0.1423
   27SAPC  C311 3644   5.937   1.310   7.970 -0.3910 -0.2951 -0.5986
   27SAPC  H11X 3645   5.852   1.255   7.924 -3.0375  1.3801  2.0888
   27SAPC  H11Y 3646   5.898   1.397   8.028 -2.0872  0.1399 -2.3562
   27SAPC  C312 3647   6.008   1.208   8.056  0.0437  0.1338 -0.0962
   27SAPC  H12X 3648   6.098   1.259   8.096  1.0214 -1.3277 -0.3790
   27SAPC  H12Y 3649   6.051   1.120   8.003  1.6060  0.4525  0.6196
   27SAPC  C313 3650   5.931   1.152   8.176 -0.7389  0.1003  0.5006
   27SAPC  H13X 3651   5.994   1.072   8.222  0.5290  0.6693 -0.2246
   27SAPC  H13Y 3652   5.833   1.112   8.142 -0.5124 -0.9046  1.0052
   27SAPC  C314 3653   5.904   1.257   8.286  0.5081  0.4996  0.3996
   27SAPC  H14X 3654   5.857   1.349   8.245 -2.3638 -1.9283 -1.8712
   27SAPC  H14Y 3655   6.005   1.277   8.330  0.6851 -1.4910  0.9161
   27SAPC  C315 3656   5.816   1.183   8.391 -0.6823 -0.2965  0.8792
   27SAPC  H15X 3657   5.728   1.157   8.328  2.3585 -2.6654 -2.6006
   27SAPC  H15Y 3658   5.786   1.263   8.461 -0.8487  1.7192 -1.4359
   27SAPC  C316 3659   5.880   1.061   8.467 -0.2663  0.1134  0.2919
   27SAPC  H16X 3660   5.970   1.108   8.513  0.6869  0.6458 -2.0254
   27SAPC  H16Y 3661   5.905   0.979   8.396  4.5606  0.2023  1.7412
   27SAPC  C317 3662   5.787   1.012   8.579 -0.0638  0.2316  0.6052
   27SAPC  H17X 3663   5.802   0.902   8.592 -0.6297  0.1241  0.3562
   27SAPC  H17Y 3664   5.685   1.012   8.537  1.5394  1.8115 -3.5421
   27SAPC  C318 3665   5.806   1.075   8.717  0.0515 -0.0813  0.3550
   27SAPC  H18X 3666   5.781   1.183   8.715 -1.1070 -0.3573 -0.8526
   27SAPC  H18Y 3667   5.911   1.052   8.745 -0.3250 -1.5573  0.5938
   27SAPC  H18Z 3668   5.736   1.023   8.785  0.7563 -0.7864  0.5542
   28SAPC     N 3669   4.830   5.443   5.757 -0.1972 -0.1544 -0.4747
   28SAPC   C12 3670   4.680   5.430   5.753 -0.8542  0.1966 -0.2364
   28SAPC  H12A 3671   4.654   5.364   5.672  1.1779 -0.3962 -0.4132
   28SAPC  H12B 3672   4.641   5.525   5.719 -0.5259  0.2927 -0.3442
   28SAPC   C13 3673   4.868   5.553   5.849 -0.4943  0.2081  0.3641
   28SAPC  H13A 3674   4.817   5.549   5.944  0.3065 -2.5696  0.7015
   28SAPC  H13B 3675   4.973   5.567   5.866 -0.0664 -1.6943 -0.6285
   28SAPC  H13C 3676   4.835   5.647   5.806  3.9689  1.5538 -0.3760
   28SAPC   C14 3677   4.902   5.320   5.806  0.0635  0.4060 -0.9884
   28SAPC  H14A 3678   4.897   5.233   5.741  2.9758 -1.4832  1.1583
   28SAPC  H14B 3679   5.006   5.333   5.829  0.6848 -1.3677 -2.6058
   28SAPC  H14C 3680   4.857   5.291   5.900  1.8151  0.5332 -0.1010
   28SAPC   C15 3681   4.881   5.456   5.617 -0.0215  0.0885  0.2776
   28SAPC  H15A 3682   4.870   5.364   5.561  0.8439 -0.3934  0.8781
   28SAPC  H15B 3683   4.831   5.534   5.562 -0.3518  1.4850  2.5138
   28SAPC  H15C 3684   4.984   5.488   5.612  0.0955  0.1279  2.5609
   28SAPC   C11 3685   4.607   5.387   5.881 -0.0980  1.2868  0.4014
   28SAPC  H11A 3686   4.630   5.281   5.905 -0.1389  1.2165  0.1296
   28SAPC  H11B 3687   4.501   5.400   5.851 -0.0934  1.0400  0.2752
   28SAPC     P 3688   4.596   5.453   6.135  0.0199 -0.4202  0.1918
   28SAPC   O13 3689   4.457   5.507   6.145 -0.4263  0.2558 -0.0465
   28SAPC   O14 3690   4.610   5.313   6.177  0.1336  0.1876 -0.1623
   28SAPC   O12 3691   4.645   5.478   5.984  0.2323 -0.1726  0.0124
   28SAPC   O11 3692   4.698   5.535   6.230  0.6317 -0.4306  0.6034
   28SAPC    C1 3693   4.835   5.488   6.245  0.6734 -0.0196  0.4685
   28SAPC    HA 3694   4.880   5.419   6.170  1.4109  0.6513  0.2939
   28SAPC    HB 3695   4.891   5.584   6.241  0.0190  0.3195 -1.3791
   28SAPC    C2 3696   4.857   5.425   6.383 -0.5124  0.6770  0.4594
   28SAPC    HS 3697   4.808   5.326   6.387 -0.7798  0.7368 -0.9833
   28SAPC   O21 3698   4.805   5.515   6.484  0.1821  1.0600 -0.1592
   28SAPC   C21 3699   4.710   5.466   6.562 -0.0029 -0.0519 -0.5324
   28SAPC   O22 3700   4.668   5.351   6.556  0.0170 -0.4811  0.1822
   28SAPC   C22 3701   4.664   5.571   6.659 -0.4899  0.2914  0.2676
   28SAPC   H2R 3702   4.621   5.650   6.594  1.6312  0.6585 -0.7145
   28SAPC   H2S 3703   4.592   5.532   6.734 -0.8129  1.0325  0.3512
   28SAPC    C3 3704   5.004   5.391   6.399 -1.0326 -1.0073 -1.0827
   28SAPC    HX 3705   5.054   5.490   6.393 -0.7229 -1.2361 -2.2556
   28SAPC    HY 3706   5.039   5.331   6.313  0.4343  1.2316 -2.0921
   28SAPC   O31 3707   5.027   5.326   6.524 -0.5298 -0.5827 -0.1396
   28SAPC   C31 3708   5.142   5.265   6.542 -0.0914 -0.1777 -0.4537
   28SAPC   O32 3709   5.228   5.256   6.456  0.0100 -0.1254  0.1873
   28SAPC   C32 3710   5.131   5.176   6.664 -0.1973 -0.7721  0.5346
   28SAPC   H2X 3711   5.231   5.147   6.702 -0.2116 -0.9456  0.4381
   28SAPC   H2Y 3712   5.080   5.080   6.645 -4.9612  1.1611  2.6951
   28SAPC   C23 3713   4.774   5.642   6.746  0.3696 -0.0563 -0.5498
   28SAPC   H3R 3714   4.730   5.705   6.826  0.5374  0.5416 -0.9259
   28SAPC   H3S 3715   4.834   5.710   6.681  0.5978  0.3020  0.0338
   28SAPC   C24 3716   4.867   5.547   6.819  0.8438  0.4148 -0.0489
   28SAPC   H4R 3717   4.811   5.478   6.885 -0.4178  0.5315 -0.9834
   28SAPC   H4S 3718   4.910   5.488   6.735  0.5396  0.1856 -0.0462
   28SAPC   C25 3719   4.973   5.625   6.895  1.3043 -0.6652 -0.5805
   28SAPC   H5R 3720   5.048   5.677   6.833  1.5479  0.1392  0.3710
   28SAPC   C26 3721   4.972   5.649   7.032 -0.1140  0.0316 -0.3543
   28SAPC   H6R 3722   5.058   5.700   7.077  0.7229 -1.7230  0.1005
   28SAPC   C27 3723   4.865   5.592   7.125 -0.3080 -0.3402 -0.1099
   28SAPC   H7R 3724   4.894   5.489   7.154  1.2610 -0.6215 -2.5447
   28SAPC   H7S 3725   4.764   5.600   7.079 -0.5967  0.2994  0.6199
   28SAPC   C28 3726   4.849   5.678   7.247 -0.1571 -0.0892  0.0248
   28SAPC   H8R 3727   4.835   5.783   7.218 -0.8394 -0.3057 -0.4330
   28SAPC   C29 3728   4.836   5.630   7.370 -0.5305 -0.1658  0.1104
   28SAPC   H9R 3729   4.828   5.704   7.452  1.7376  0.7697 -0.4824
   28SAPC  C210 3730   4.823   5.492   7.416  0.5874  0.6127 -0.2544
   28SAPC  H10R 3731   4.818   5.416   7.336  0.0634  0.6892 -0.2966
   28SAPC  H10S 3732   4.717   5.476   7.446  1.6931 -1.2789  2.9268
   28SAPC  C211 3733   4.919   5.454   7.524 -0.5562 -0.0629 -0.7846
   28SAPC  H11R 3734   5.003   5.400   7.478  0.2244  0.9759 -0.5932
   28SAPC  C212 3735   4.927   5.470   7.661 -0.0172  0.1482 -0.5166
   28SAPC  H12R 3736   5.014   5.424   7.710 -1.1606 -1.6004 -0.0854
   28SAPC  C213 3737   4.824   5.547   7.743  0.0621 -0.8984  0.1051
   28SAPC  H13R 3738   4.779   5.484   7.822  0.1248 -0.6340  0.3538
   28SAPC  H13S 3739   4.733   5.566   7.683  1.1767  2.1812 -0.7570
   28SAPC  C214 3740   4.868   5.675   7.800  0.2927 -0.5352 -0.0375
   28SAPC  H14R 3741   4.956   5.725   7.755 -0.2530  0.4898  0.0276
   28SAPC  C215 3742   4.830   5.723   7.923  0.6898 -0.1440  0.1982
   28SAPC  H15R 3743   4.861   5.823   7.954 -1.1190  0.1713  1.0727
   28SAPC  C216 3744   4.728   5.651   8.010 -0.2654  0.1314 -0.9353
   28SAPC  H16R 3745   4.662   5.584   7.951  2.4670 -0.4013 -3.5066
   28SAPC  H16S 3746   4.656   5.726   8.050  1.3108  0.9755  0.3870
   28SAPC  C217 3747   4.805   5.577   8.121  0.1233  0.0825  0.0587
   28SAPC  H17R 3748   4.880   5.649   8.161 -2.3732  2.4661  0.6104
   28SAPC  H17S 3749   4.866   5.493   8.082  1.8021  2.2024 -2.0044
   28SAPC  C218 3750   4.711   5.533   8.233 -0.0300  0.0596 -0.1591
   28SAPC  H18R 3751   4.774   5.483   8.309 -1.5624 -0.5601  0.7333
   28SAPC  H18S 3752   4.640   5.459   8.189 -0.7582  0.1753  0.8190
   28SAPC  C219 3753   4.633   5.641   8.306  0.2337 -0.2096 -0.2208
   28SAPC  H19R 3754   4.551   5.682   8.244  0.0688  1.8050  1.2993
   28SAPC  H19S 3755   4.705   5.724   8.323  0.4701 -0.1176 -1.6201
   28SAPC  C220 3756   4.573   5.578   8.436 -0.4996 -0.2648 -0.3838
   28SAPC  H20R 3757   4.482   5.631   8.469 -0.5988  1.1644 -2.8253
   28SAPC  H20S 3758   4.647   5.579   8.519  0.1105  2.6069 -0.9045
   28SAPC  H20T 3759   4.549   5.472   8.412 -0.0090 -0.6124  0.6022
   28SAPC   C33 3760   5.046   5.251   6.779 -0.0039 -0.2702  0.1333
   28SAPC   H3X 3761   4.941   5.265   6.745  0.3722 -0.0268 -0.9650
   28SAPC   H3Y 3762   5.104   5.341   6.808  1.0465 -1.2250  1.0221
   28SAPC   C34 3763   5.046   5.171   6.912  0.4183  0.2028 -0.1072
   28SAPC   H4X 3764   4.999   5.072   6.895 -0.3252  0.5337  0.0206
   28SAPC   H4Y 3765   4.979   5.221   6.986 -0.4082 -0.7860 -0.1796
   28SAPC   C35 3766   5.185   5.166   6.983 -0.1041  0.2858 -0.1547
   28SAPC   H5X 3767   5.219   5.271   6.996  2.9211 -0.7634  0.6723
   28SAPC   H5Y 3768   5.267   5.119   6.926  0.4985  0.9144  0.1910
   28SAPC   C36 3769   5.186   5.109   7.126  0.1707 -0.0373 -0.1952
   28SAPC   H6X 3770   5.283   5.055   7.133  0.5755  0.9809  3.0157
   28SAPC   H6Y 3771   5.098   5.043   7.138 -1.2871  1.7002 -0.9827
   28SAPC   C37 3772   5.172   5.219   7.231  0.1531  0.5379  0.2151
   28SAPC   H7X 3773   5.067   5.252   7.239  0.3842  1.7702 -1.5334
   28SAPC   H7Y 3774   5.238   5.308   7.215 -0.8997  0.9971 -1.7651
   28SAPC   C38 3775   5.195   5.150   7.367 -0.0673 -0.3535 -0.1048
   28SAPC   H8X 3776   5.268   5.067   7.361  2.3106  1.6378  0.4872
   28SAPC   H8Y 3777   5.109   5.094   7.410  2.0753 -2.0063  2.1559
   28SAPC   C39 3778   5.262   5.233   7.484  0.2608 -0.0328  0.2688
   28SAPC   H9X 3779   5.192   5.318   7.500 -1.0197 -0.7578 -1.2677
   28SAPC   H9Y 3780   5.353   5.272   7.434 -0.9607  0.6719 -1.4734
   28SAPC  C310 3781   5.288   5.146   7.601 -0.2238 -0.5539 -0.1930
   28SAPC  H10X 3782   5.376   5.080   7.582  0.5289  0.4950 -0.3828
   28SAPC  H10Y 3783   5.197   5.085   7.617 -2.5474  3.0667  1.0248
   28SAPC  C311 3784   5.338   5.225   7.727  0.6883  0.0565 -0.1142
   28SAPC  H11X 3785   5.432   5.280   7.707  0.6952  0.8327  1.9268
   28SAPC  H11Y 3786   5.367   5.155   7.808 -2.0721 -0.7770  0.1983
   28SAPC  C312 3787   5.234   5.327   7.785  0.3015  0.0000  0.7770
   28SAPC  H12X 3788   5.138   5.273   7.772  0.3593  0.5434 -2.1717
   28SAPC  H12Y 3789   5.250   5.422   7.729  0.1968  1.0169  2.4216
   28SAPC  C313 3790   5.257   5.370   7.935 -0.2485  0.5595 -0.0357
   28SAPC  H13X 3791   5.367   5.373   7.951  0.2510  1.3289 -3.1313
   28SAPC  H13Y 3792   5.221   5.281   7.990 -2.2028 -0.4065 -2.7626
   28SAPC  C314 3793   5.201   5.503   7.984  0.2484 -0.0255  0.8373
   28SAPC  H14X 3794   5.094   5.500   7.955  0.4336  2.2733 -0.1397
   28SAPC  H14Y 3795   5.256   5.585   7.933  0.2415 -0.0600  0.7727
   28SAPC  C315 3796   5.229   5.513   8.139 -0.1678 -0.0916 -0.4807
   28SAPC  H15X 3797   5.200   5.613   8.178 -1.8950  0.2875 -2.6294
   28SAPC  H15Y 3798   5.338   5.497   8.155 -0.4402 -1.7337 -0.1859
   28SAPC  C316 3799   5.150   5.414   8.226 -0.0848  0.2547  0.5333
   28SAPC  H16X 3800   5.203   5.317   8.217  1.3733  1.2508 -2.0609
   28SAPC  H16Y 3801   5.064   5.391   8.160  0.2258 -0.5419  0.4046
   28SAPC  C317 3802   5.110   5.453   8.368  0.3188  0.7828 -0.1786
   28SAPC  H17X 3803   5.047   5.370   8.407  0.4212  0.8666  0.1716
   28SAPC  H17Y 3804   5.045   5.542   8.357  0.3887  0.6824 -1.4360
   28SAPC  C318 3805   5.226   5.486   8.459 -0.0117  0.3046 -0.6007
   28SAPC  H18X 3806   5.187   5.537   8.549  0.4778  0.0416 -0.2389
   28SAPC  H18Y 3807   5.292   5.549   8.395  3.5157 -1.4275  1.1556
   28SAPC  H18Z 3808   5.284   5.398   8.495 -1.1558  0.0115  0.5529
   29SAPC     N 3809   1.205   2.068   6.411  0.1348  0.4641  0.1178
   29SAPC   C12 3810   1.058   2.113   6.433  0.7205 -0.0057 -0.0407
   29SAPC  H12A 3811   1.003   2.028   6.396  0.0930 -0.3109  1.5578
   29SAPC  H12B 3812   1.036   2.197   6.368 -2.3220 -0.2723  0.5841
   29SAPC   C13 3813   1.302   2.164   6.469 -0.3253  0.6393 -0.3007
   29SAPC  H13A 3814   1.272   2.181   6.572 -1.8049 -1.6766 -0.3037
   29SAPC  H13B 3815   1.399   2.116   6.478  0.2075  1.6960 -0.3222
   29SAPC  H13C 3816   1.317   2.256   6.416  1.5466  0.5583  0.0459
   29SAPC   C14 3817   1.218   1.939   6.469  0.0378  0.0385  0.0304
   29SAPC  H14A 3818   1.184   1.941   6.572 -1.6104  1.8952 -0.5295
   29SAPC  H14B 3819   1.148   1.873   6.418 -1.3157  0.7238  0.9697
   29SAPC  H14C 3820   1.316   1.896   6.457 -0.5291 -1.4048  0.4395
   29SAPC   C15 3821   1.233   2.052   6.266 -0.8631  0.0797 -0.5969
   29SAPC  H15A 3822   1.172   1.976   6.219 -0.9374  1.5830 -3.0130
   29SAPC  H15B 3823   1.230   2.137   6.199 -0.5167 -0.2582 -1.0465
   29SAPC  H15C 3824   1.332   2.011   6.250 -1.6572 -0.5589 -4.2210
   29SAPC   C11 3825   1.011   2.140   6.577 -0.0418 -0.3649  0.4205
   29SAPC  H11A 3826   1.058   2.233   6.617 -2.0500  0.4764  0.8571
   29SAPC  H11B 3827   1.040   2.054   6.641 -1.7189 -0.4527  1.0735
   29SAPC     P 3828   0.795   2.269   6.497 -0.1633 -0.3661  0.2165
   29SAPC   O13 3829   0.885   2.358   6.432 -0.1561 -0.1857  0.5746
   29SAPC   O14 3830   0.694   2.211   6.409  0.4141  0.1894  0.0330
   29SAPC   O12 3831   0.871   2.166   6.580 -0.0248  0.1159 -0.4204
   29SAPC   O11 3832   0.718   2.349   6.617 -0.2243  0.0637 -0.3043
   29SAPC    C1 3833   0.780   2.450   6.687  0.5689 -0.6312 -0.9545
   29SAPC    HA 3834   0.885   2.426   6.712  0.4205  1.3309  1.8301
   29SAPC    HB 3835   0.771   2.545   6.630 -0.6738  0.0493  0.3484
   29SAPC    C2 3836   0.713   2.475   6.827 -0.5661  0.6385  0.7544
   29SAPC    HS 3837   0.764   2.561   6.875  4.3163 -1.0572 -1.0171
   29SAPC   O21 3838   0.718   2.354   6.901  0.5729 -0.5032  0.4043
   29SAPC   C21 3839   0.828   2.328   6.956  0.2427 -0.7703  0.1165
   29SAPC   O22 3840   0.914   2.417   6.971 -0.3450  0.2548  0.5645
   29SAPC   C22 3841   0.826   2.193   7.019 -0.0558 -0.7786 -0.7177
   29SAPC   H2R 3842   0.718   2.174   7.038 -0.0467  1.0744  1.2990
   29SAPC   H2S 3843   0.855   2.127   6.934  0.2953  1.1159 -2.0875
   29SAPC    C3 3844   0.572   2.520   6.806  0.2064  0.0478 -0.0947
   29SAPC    HX 3845   0.517   2.460   6.730 -0.2263  0.9708 -0.5185
   29SAPC    HY 3846   0.569   2.619   6.756  0.3075  1.4686  2.6637
   29SAPC   O31 3847   0.503   2.541   6.926  0.0689 -0.2059 -0.6169
   29SAPC   C31 3848   0.425   2.441   6.973 -0.1777  1.0494 -0.8599
   29SAPC   O32 3849   0.408   2.331   6.922  0.0852 -0.0788  0.5360
   29SAPC   C32 3850   0.357   2.484   7.109 -0.7120  0.7048 -0.2122
   29SAPC   H2X 3851   0.262   2.427   7.107 -0.4010  0.1968 -0.5993
   29SAPC   H2Y 3852   0.316   2.585   7.089 -0.2650  0.7902 -0.7020
   29SAPC   C23 3853   0.924   2.169   7.130 -0.0320  0.0328  0.1317
   29SAPC   H3R 3854   1.025   2.210   7.106 -0.4214  2.4086  2.3634
   29SAPC   H3S 3855   0.941   2.060   7.144 -2.3555 -0.4956 -0.9405
   29SAPC   C24 3856   0.873   2.226   7.265 -0.2721 -0.1213  0.3058
   29SAPC   H4R 3857   0.772   2.186   7.285  0.3690 -0.3652  3.2678
   29SAPC   H4S 3858   0.863   2.335   7.249  1.2418  0.1170  0.8416
   29SAPC   C25 3859   0.961   2.180   7.381  0.7846 -0.0386  0.2751
   29SAPC   H5R 3860   0.964   2.071   7.393 -1.6727 -0.1772 -0.0311
   29SAPC   C26 3861   1.042   2.261   7.449  0.3904  0.9242 -0.2256
   29SAPC   H6R 3862   1.106   2.223   7.530 -0.0855 -1.7655 -1.0790
   29SAPC   C27 3863   1.054   2.408   7.434  0.2117  0.4333  0.0455
   29SAPC   H7R 3864   1.032   2.431   7.327  2.3826 -0.2275 -0.5724
   29SAPC   H7S 3865   1.162   2.433   7.443  0.1214  0.7606  0.2288
   29SAPC   C28 3866   0.967   2.495   7.527  0.1280  0.6454 -0.2714
   29SAPC   H8R 3867   0.887   2.554   7.479  0.1360  0.8640 -0.0181
   29SAPC   C29 3868   0.958   2.498   7.661  0.2772 -0.0815  0.0278
   29SAPC   H9R 3869   0.880   2.558   7.712 -0.1852 -0.1272 -0.6194
   29SAPC  C210 3870   1.036   2.435   7.771 -0.0138 -1.0543  0.5284
   29SAPC  H10R 3871   1.067   2.524   7.831  0.5681  0.4034 -1.8474
   29SAPC  H10S 3872   1.128   2.386   7.733  1.7162  1.8553  0.8071
   29SAPC  C211 3873   0.972   2.338   7.865 -0.4350 -0.5205  0.1360
   29SAPC  H11R 3874   0.985   2.235   7.829  1.6335  0.3686 -1.7828
   29SAPC  C212 3875   0.911   2.363   7.980  0.9053  0.2803  0.9654
   29SAPC  H12R 3876   0.871   2.281   8.041 -0.8698 -0.8040 -1.5731
   29SAPC  C213 3877   0.888   2.500   8.028 -0.1984  0.0859  0.7093
   29SAPC  H13R 3878   0.914   2.583   7.959  1.3424 -1.0609 -0.1260
   29SAPC  H13S 3879   0.961   2.510   8.111  1.7308  2.7009 -1.2362
   29SAPC  C214 3880   0.747   2.523   8.077 -0.2123  0.9735  0.0314
   29SAPC  H14R 3881   0.676   2.542   7.995 -1.6776 -0.7897  0.8664
   29SAPC  C215 3882   0.700   2.532   8.203  0.0001  0.5450  0.5114
   29SAPC  H15R 3883   0.590   2.538   8.209  0.0454  2.8540 -0.3858
   29SAPC  C216 3884   0.782   2.516   8.326  0.1242 -0.1990 -0.0499
   29SAPC  H16R 3885   0.865   2.442   8.317 -0.0753 -0.5791  1.2336
   29SAPC  H16S 3886   0.713   2.484   8.407 -1.4977  1.3576 -0.7906
   29SAPC  C217 3887   0.839   2.639   8.401  0.0475 -0.6853 -0.0888
   29SAPC  H17R 3888   0.892   2.711   8.335  3.3963 -0.3458  2.8338
   29SAPC  H17S 3889   0.917   2.608   8.473 -0.7422  0.4081  1.2614
   29SAPC  C218 3890   0.727   2.715   8.487 -0.3609  0.5538  0.5367
   29SAPC  H18R 3891   0.686   2.646   8.563 -0.7032 -0.1771 -0.3078
   29SAPC  H18S 3892   0.639   2.750   8.429  0.8798  1.6504 -0.7369
   29SAPC  C219 3893   0.782   2.831   8.566  0.2377  0.1130  0.1938
   29SAPC  H19R 3894   0.823   2.918   8.511 -2.2503  1.1706 -0.0501
   29SAPC  H19S 3895   0.863   2.793   8.631  0.8245  0.8692 -0.0888
   29SAPC  C220 3896   0.675   2.903   8.653  0.3746  0.5528  0.0648
   29SAPC  H20R 3897   0.711   2.992   8.710 -4.4528  2.4013  0.4577
   29SAPC  H20S 3898   0.643   2.829   8.729  0.2762 -0.3923 -0.8848
   29SAPC  H20T 3899   0.590   2.939   8.592 -1.0640  0.5967  2.0445
   29SAPC   C33 3900   0.447   2.464   7.228 -0.1485 -0.0276 -0.1605
   29SAPC   H3X 3901   0.392   2.503   7.317 -0.1037  0.3405 -0.2957
   29SAPC   H3Y 3902   0.539   2.526   7.222  1.5211 -2.5425 -1.6330
   29SAPC   C34 3903   0.470   2.312   7.248  0.0272  0.9383  0.5405
   29SAPC   H4X 3904   0.532   2.276   7.163 -0.9612  1.0384 -0.2342
   29SAPC   H4Y 3905   0.372   2.260   7.250  1.4465 -1.7782  2.7476
   29SAPC   C35 3906   0.547   2.277   7.386  0.3891  0.2805  0.3172
   29SAPC   H5X 3907   0.636   2.342   7.385  1.0288 -0.5714  1.0694
   29SAPC   H5Y 3908   0.576   2.170   7.392  1.5956  0.6223  0.6644
   29SAPC   C36 3909   0.471   2.316   7.515  0.2484 -0.4653  0.2109
   29SAPC   H6X 3910   0.376   2.258   7.520 -0.5565  0.6560 -1.7269
   29SAPC   H6Y 3911   0.455   2.425   7.516  4.5592  0.2725  1.0830
   29SAPC   C37 3912   0.565   2.300   7.638 -0.0107 -0.2727 -0.6341
   29SAPC   H7X 3913   0.622   2.395   7.649 -0.0614 -0.1435 -1.4786
   29SAPC   H7Y 3914   0.644   2.227   7.612 -0.0219 -0.8210  0.8160
   29SAPC   C38 3915   0.498   2.264   7.771  0.1999  0.3124  0.3246
   29SAPC   H8X 3916   0.460   2.162   7.752 -0.4313  0.2567  1.8173
   29SAPC   H8Y 3917   0.417   2.339   7.784  2.2163  2.5882  0.1545
   29SAPC   C39 3918   0.595   2.250   7.893  0.0087 -0.2477  0.0321
   29SAPC   H9X 3919   0.670   2.332   7.891  0.5772 -0.7267  1.3464
   29SAPC   H9Y 3920   0.652   2.157   7.872  1.1585  1.2844 -4.0738
   29SAPC  C310 3921   0.515   2.239   8.025  0.5141 -0.7068  0.3613
   29SAPC  H10X 3922   0.441   2.321   8.036  1.6971  0.3293  0.8922
   29SAPC  H10Y 3923   0.587   2.252   8.110  0.9111  2.4902 -0.3916
   29SAPC  C311 3924   0.446   2.107   8.049 -0.5528 -0.5484  1.4337
   29SAPC  H11X 3925   0.525   2.031   8.033 -0.5459  0.1692 -2.4575
   29SAPC  H11Y 3926   0.368   2.092   7.970  0.5433 -2.9656  0.7635
   29SAPC  C312 3927   0.396   2.089   8.196 -0.3077  0.2978  0.0307
   29SAPC  H12X 3928   0.333   1.999   8.209  0.4477 -0.5882 -2.1732
   29SAPC  H12Y 3929   0.328   2.171   8.226 -0.1934 -0.2884  1.9461
   29SAPC  C313 3930   0.511   2.074   8.298 -0.2566  0.0288  0.4990
   29SAPC  H13X 3931   0.570   2.166   8.320  1.6367 -0.4753 -2.2062
   29SAPC  H13Y 3932   0.579   2.005   8.244  1.7283  0.9576  1.7484
   29SAPC  C314 3933   0.467   2.000   8.429 -0.7703 -0.6297  0.4039
   29SAPC  H14X 3934   0.559   1.962   8.478  0.0716 -0.8333 -1.2711
   29SAPC  H14Y 3935   0.407   1.909   8.408  0.9512 -1.7877  0.4539
   29SAPC  C315 3936   0.387   2.089   8.529  0.5049  0.1236 -0.7489
   29SAPC  H15X 3937   0.283   2.100   8.490 -0.2778  0.4594  1.3637
   29SAPC  H15Y 3938   0.434   2.190   8.524  1.1170 -0.0945  0.5489
   29SAPC  C316 3939   0.375   2.053   8.676 -0.3687  0.7233  0.3363
   29SAPC  H16X 3940   0.313   2.135   8.716  0.4420  1.7663 -0.5236
   29SAPC  H16Y 3941   0.469   2.052   8.736  1.2028 -2.0969 -2.0331
   29SAPC  C317 3942   0.305   1.914   8.699 -0.1665 -1.1377 -0.6596
   29SAPC  H17X 3943   0.370   1.836   8.655 -0.8103 -1.7824 -0.4727
   29SAPC  H17Y 3944   0.202   1.902   8.659 -0.7045  0.9387  0.0000
   29SAPC  C318 3945   0.277   1.884   8.848 -0.4669  0.2135 -0.7195
   29SAPC  H18X 3946   0.365   1.909   8.911  0.4844 -0.0091 -1.9647
   29SAPC  H18Y 3947   0.243   1.780   8.864  0.3669 -0.1869 -1.5244
   29SAPC  H18Z 3948   0.192   1.947   8.885 -1.4407 -0.0943 -2.3738
   30SAPC     N 3949   1.336   3.270   6.061  0.5087  0.3657 -0.2093
   30SAPC   C12 3950   1.344   3.141   6.152  0.4694  0.2637 -0.1403
   30SAPC  H12A 3951   1.405   3.064   6.107 -0.9365 -1.2123  0.4459
   30SAPC  H12B 3952   1.245   3.103   6.168  1.1528 -1.1168  1.0123
   30SAPC   C13 3953   1.312   3.391   6.142  0.4813 -0.5942 -0.0032
   30SAPC  H13A 3954   1.313   3.473   6.071  2.0874  0.5876  1.3602
   30SAPC  H13B 3955   1.216   3.382   6.191  0.8724 -4.4243  0.2258
   30SAPC  H13C 3956   1.391   3.414   6.212 -0.1762 -2.7714  1.5021
   30SAPC   C14 3957   1.468   3.283   5.990  0.0239  0.2305  0.0211
   30SAPC  H14A 3958   1.455   3.357   5.913 -0.0522 -1.4899 -1.6682
   30SAPC  H14B 3959   1.552   3.314   6.049  0.0171  0.5149 -0.1200
   30SAPC  H14C 3960   1.491   3.187   5.946 -0.6557 -0.0186  0.1982
   30SAPC   C15 3961   1.239   3.251   5.949 -0.6434  0.7638  0.1786
   30SAPC  H15A 3962   1.220   3.337   5.886  2.9505 -0.1958 -2.3190
   30SAPC  H15B 3963   1.269   3.171   5.883  0.0274  0.0830  1.2928
   30SAPC  H15C 3964   1.143   3.222   5.988 -0.5139 -0.3811 -0.3413
   30SAPC   C11 3965   1.424   3.146   6.288  0.1305  0.2256 -0.1223
   30SAPC  H11A 3966   1.436   3.044   6.330 -0.8328 -0.6316 -1.8834
   30SAPC  H11B 3967   1.356   3.198   6.359 -0.9047  0.7423 -1.4742
   30SAPC     P 3968   1.684   3.142   6.268 -0.0792 -0.3449  0.0841
   30SAPC   O13 3969   1.654   2.998   6.251  0.2245 -0.6110  0.3624
   30SAPC   O14 3970   1.783   3.199   6.173  0.0359  0.2086  0.3568
   30SAPC   O12 3971   1.544   3.222   6.285 -0.1454  0.0546  0.4357
   30SAPC   O11 3972   1.752   3.159   6.409  0.5926 -0.3968  0.1957
   30SAPC    C1 3973   1.761   3.292   6.461 -0.3091 -0.5996 -0.3427
   30SAPC    HA 3974   1.870   3.314   6.462 -0.5695  1.2552 -4.2301
   30SAPC    HB 3975   1.695   3.366   6.411 -1.4102 -0.7984  0.8107
   30SAPC    C2 3976   1.712   3.303   6.609 -0.3244 -0.1147 -0.0841
   30SAPC    HS 3977   1.724   3.405   6.649  0.7256  0.2930 -1.4114
   30SAPC   O21 3978   1.786   3.208   6.695  0.3336  0.3088 -0.2749
   30SAPC   C21 3979   1.908   3.246   6.731  0.1017 -0.4744  0.0909
   30SAPC   O22 3980   1.957   3.354   6.702  0.4910  0.2389 -0.4423
   30SAPC   C22 3981   1.969   3.139   6.821 -0.7535 -0.5336  0.4974
   30SAPC   H2R 3982   1.920   3.140   6.921 -1.6207  0.4094  0.0724
   30SAPC   H2S 3983   1.948   3.037   6.785  2.4820 -2.1159  2.8175
   30SAPC    C3 3984   1.563   3.263   6.621 -0.3510 -0.0961 -0.1981
   30SAPC    HX 3985   1.536   3.171   6.564 -0.4103 -1.0146  1.2618
   30SAPC    HY 3986   1.499   3.341   6.575 -0.6465  1.2503  2.4095
   30SAPC   O31 3987   1.524   3.256   6.758  0.0713  0.3159 -0.3003
   30SAPC   C31 3988   1.501   3.130   6.809 -0.7968 -0.0270 -0.1192
   30SAPC   O32 3989   1.502   3.030   6.740  0.1950 -0.4569 -0.3272
   30SAPC   C32 3990   1.491   3.138   6.960 -0.1604  0.3378 -0.3764
   30SAPC   H2X 3991   1.428   3.054   6.998  1.2504 -1.3301 -1.6502
   30SAPC   H2Y 3992   1.434   3.230   6.987 -0.8289 -0.3643  0.6457
   30SAPC   C23 3993   2.116   3.178   6.828 -0.4330  0.0877  0.4502
   30SAPC   H3R 3994   2.137   3.282   6.860 -1.4306 -0.1452  1.9541
   30SAPC   H3S 3995   2.153   3.171   6.724 -0.7726  1.6729  0.2158
   30SAPC   C24 3996   2.198   3.088   6.921  0.1921 -0.2906 -0.1725
   30SAPC   H4R 3997   2.179   3.084   7.030  1.1748 -0.7083 -0.0090
   30SAPC   H4S 3998   2.298   3.136   6.919  0.1159 -0.1553 -2.6363
   30SAPC   C25 3999   2.229   2.951   6.875  0.2157  0.3866 -0.1290
   30SAPC   H5R 4000   2.164   2.923   6.791  1.8140  1.8352 -1.8954
   30SAPC   C26 4001   2.324   2.875   6.932  0.1758 -0.6904  0.2592
   30SAPC   H6R 4002   2.335   2.772   6.894 -1.7375 -0.8043 -0.0292
   30SAPC   C27 4003   2.407   2.917   7.052  0.0161  0.2580 -0.5744
   30SAPC   H7R 4004   2.344   2.963   7.131 -1.3126  1.9618 -2.5631
   30SAPC   H7S 4005   2.476   2.998   7.022 -1.4722  1.2360 -1.4435
   30SAPC   C28 4006   2.493   2.790   7.091  0.3871  0.5783  0.2434
   30SAPC   H8R 4007   2.490   2.713   7.012  0.7375 -0.6834  1.4432
   30SAPC   C29 4008   2.571   2.777   7.201 -0.7751  0.4333  0.3905
   30SAPC   H9R 4009   2.625   2.681   7.209  0.8059  1.4026  1.2809
   30SAPC  C210 4010   2.586   2.889   7.303  0.4251 -0.6154 -0.2291
   30SAPC  H10R 4011   2.500   2.960   7.301  2.9234  2.5509  1.3999
   30SAPC  H10S 4012   2.686   2.938   7.301  1.1391 -1.9197  1.9169
   30SAPC  C211 4013   2.576   2.839   7.441  0.4794 -0.7162  0.2068
   30SAPC  H11R 4014   2.515   2.747   7.438 -0.5716 -0.0629  1.1852
   30SAPC  C212 4015   2.633   2.883   7.555  0.7020 -0.0929  0.2179
   30SAPC  H12R 4016   2.595   2.828   7.642  0.4570 -0.3702 -0.0613
   30SAPC  C213 4017   2.718   3.008   7.574 -0.1600  0.1441 -0.3727
   30SAPC  H13R 4018   2.726   3.057   7.475  0.0161  1.9170  0.4954
   30SAPC  H13S 4019   2.819   2.988   7.617 -0.1170  0.5224 -0.2966
   30SAPC  C214 4020   2.653   3.108   7.662 -0.3772  0.3467  0.4931
   30SAPC  H14R 4021   2.593   3.180   7.605  0.9297  1.2274  0.2052
   30SAPC  C215 4022   2.670   3.124   7.794 -0.3660  0.0715  0.1948
   30SAPC  H15R 4023   2.606   3.189   7.855 -2.1937 -0.6933 -0.8734
   30SAPC  C216 4024   2.744   3.022   7.875  0.1152 -0.2219 -0.2025
   30SAPC  H16R 4025   2.836   3.079   7.902 -0.0318  0.2246 -0.6264
   30SAPC  H16S 4026   2.784   2.939   7.814 -1.1328 -0.0417 -1.2957
   30SAPC  C217 4027   2.671   2.958   7.997 -0.2384 -1.0897 -0.0020
   30SAPC  H17R 4028   2.570   2.919   7.972 -1.9611  3.3893 -0.4950
   30SAPC  H17S 4029   2.655   3.036   8.074  3.2804  0.2529 -0.5521
   30SAPC  C218 4030   2.734   2.836   8.065 -0.5562 -0.3098 -0.0110
   30SAPC  H18R 4031   2.739   2.757   7.987  1.6989  1.6430 -1.9328
   30SAPC  H18S 4032   2.681   2.806   8.158 -1.5120 -0.1507 -0.4936
   30SAPC  C219 4033   2.879   2.865   8.116  0.1456 -0.2864  0.0450
   30SAPC  H19R 4034   2.873   2.934   8.203  2.1985 -2.0087  1.6221
   30SAPC  H19S 4035   2.933   2.920   8.037 -0.4898  0.8266  0.3757
   30SAPC  C220 4036   2.948   2.735   8.157 -0.5230  0.0725 -0.2583
   30SAPC  H20R 4037   2.896   2.686   8.243 -0.0304  3.1777  1.8770
   30SAPC  H20S 4038   3.053   2.751   8.188 -0.6564 -0.3878  0.4573
   30SAPC  H20T 4039   2.944   2.661   8.074 -0.5785 -0.4042  0.1628
   30SAPC   C33 4040   1.631   3.135   7.026 -0.3049  0.1590 -0.1259
   30SAPC   H3X 4041   1.703   3.205   6.980 -0.1154 -0.4145 -0.6990
   30SAPC   H3Y 4042   1.672   3.033   7.011 -0.7147  0.0161 -0.3015
   30SAPC   C34 4043   1.602   3.157   7.170 -0.2260  0.0737 -0.8699
   30SAPC   H4X 4044   1.513   3.096   7.197 -0.0182  0.8361  1.6863
   30SAPC   H4Y 4045   1.568   3.262   7.182 -0.0075  0.1346 -0.7787
   30SAPC   C35 4046   1.726   3.137   7.260  0.1467  0.0312 -0.0660
   30SAPC   H5X 4047   1.803   3.204   7.215  0.0999  0.0459 -0.1240
   30SAPC   H5Y 4048   1.765   3.034   7.268 -1.4400 -0.4767  1.2411
   30SAPC   C36 4049   1.708   3.182   7.401 -0.4557  0.7251 -0.3070
   30SAPC   H6X 4050   1.624   3.130   7.451  1.1413 -0.9157  0.7655
   30SAPC   H6Y 4051   1.688   3.291   7.409 -0.9620  0.5614  0.7210
   30SAPC   C37 4052   1.838   3.149   7.478  1.2243  0.2006  0.1545
   30SAPC   H7X 4053   1.921   3.201   7.424  0.5721  0.0574 -1.0076
   30SAPC   H7Y 4054   1.885   3.050   7.463 -0.1932 -0.0216 -3.1154
   30SAPC   C38 4055   1.836   3.204   7.623 -0.3732  1.1589  0.7373
   30SAPC   H8X 4056   1.814   3.313   7.632  3.4523  2.4763 -3.7299
   30SAPC   H8Y 4057   1.943   3.207   7.654  0.7405 -0.8543 -2.6681
   30SAPC   C39 4058   1.742   3.119   7.707 -0.2034 -0.4757  0.3199
   30SAPC   H9X 4059   1.784   3.017   7.689 -1.3504 -1.7265  4.1127
   30SAPC   H9Y 4060   1.640   3.128   7.664 -0.3100  0.1580  0.6981
   30SAPC  C310 4061   1.747   3.151   7.857  0.0075  0.3042  0.6700
   30SAPC  H10X 4062   1.748   3.260   7.878  0.6971  0.6822 -1.2453
   30SAPC  H10Y 4063   1.843   3.117   7.902  0.8332  1.0390 -0.5180
   30SAPC  C311 4064   1.636   3.081   7.933  0.3594 -0.5902  0.2236
   30SAPC  H11X 4065   1.634   2.974   7.904  0.2417 -0.8704  1.2585
   30SAPC  H11Y 4066   1.544   3.132   7.897  1.0698 -0.9830 -2.2632
   30SAPC  C312 4067   1.639   3.102   8.081 -0.1199 -0.2559 -0.6355
   30SAPC  H12X 4068   1.741   3.070   8.113  0.1763  0.5943 -0.7215
   30SAPC  H12Y 4069   1.566   3.047   8.144  0.1846 -0.7258 -0.6906
   30SAPC  C313 4070   1.654   3.247   8.126  0.0099  0.5391 -0.3327
   30SAPC  H13X 4071   1.566   3.307   8.097 -0.2471  0.1513 -0.3580
   30SAPC  H13Y 4072   1.742   3.308   8.097 -0.1107  0.7322 -0.2841
   30SAPC  C314 4073   1.645   3.246   8.286  0.1048 -0.2759  1.0140
   30SAPC  H14X 4074   1.544   3.205   8.309 -0.2899  1.0100  1.6199
   30SAPC  H14Y 4075   1.648   3.349   8.327  1.5792  0.9899 -2.1353
   30SAPC  C315 4076   1.758   3.170   8.360 -0.1926 -0.1521  0.8557
   30SAPC  H15X 4077   1.755   3.066   8.322  1.9692  0.3122 -0.7373
   30SAPC  H15Y 4078   1.740   3.165   8.469 -1.3707 -0.2324  0.6639
   30SAPC  C316 4079   1.898   3.220   8.330  0.8541 -0.3616 -0.7430
   30SAPC  H16X 4080   1.908   3.306   8.400  1.8794 -0.1424 -1.1448
   30SAPC  H16Y 4081   1.909   3.272   8.233  0.5906 -2.1091 -1.7303
   30SAPC  C317 4082   2.010   3.113   8.348  0.1796 -0.9166 -0.0909
   30SAPC  H17X 4083   1.991   3.042   8.265 -0.3666 -0.3145 -0.4920
   30SAPC  H17Y 4084   1.980   3.066   8.444  0.3961 -1.8789 -0.4935
   30SAPC  C318 4085   2.152   3.164   8.371  0.3718 -0.2020  0.3633
   30SAPC  H18X 4086   2.213   3.087   8.423  0.2802 -1.7187 -1.7463
   30SAPC  H18Y 4087   2.142   3.256   8.433  1.1706  0.1750 -0.0610
   30SAPC  H18Z 4088   2.197   3.195   8.275 -0.1881  2.2082  0.8350
   31SAPC     N 4089   2.785   3.550   6.291 -0.9534 -0.2142  0.3045
   31SAPC   C12 4090   2.901   3.579   6.385  0.3167  0.0970 -1.2095
   31SAPC  H12A 4091   2.894   3.502   6.461 -1.9709  0.6981 -0.7656
   31SAPC  H12B 4092   2.884   3.672   6.436 -1.5432 -0.2518 -1.1427
   31SAPC   C13 4093   2.795   3.418   6.227 -0.2097  0.4512 -0.3330
   31SAPC  H13A 4094   2.808   3.346   6.307 -1.9726  2.0397  1.4324
   31SAPC  H13B 4095   2.705   3.385   6.179  0.0803 -1.8282  0.5951
   31SAPC  H13C 4096   2.877   3.422   6.157 -0.1516  2.8660 -0.1599
   31SAPC   C14 4097   2.661   3.563   6.367 -0.3678 -0.1715  0.1827
   31SAPC  H14A 4098   2.575   3.528   6.312 -0.1788  0.3245 -0.4382
   31SAPC  H14B 4099   2.668   3.500   6.454  1.2036  0.6747  0.6868
   31SAPC  H14C 4100   2.647   3.667   6.391  0.5723  0.1436 -0.5908
   31SAPC   C15 4101   2.787   3.650   6.177  0.0433 -0.3296  0.2120
   31SAPC  H15A 4102   2.877   3.643   6.118 -0.6575  0.6654 -0.9982
   31SAPC  H15B 4103   2.709   3.635   6.105  1.6681 -0.2825 -1.6065
   31SAPC  H15C 4104   2.776   3.749   6.218 -2.0712 -0.7800  0.7576
   31SAPC   C11 4105   3.047   3.585   6.339  0.0563 -0.0222  0.3706
   31SAPC  H11A 4106   3.065   3.505   6.264 -0.7972  1.2386 -1.1998
   31SAPC  H11B 4107   3.118   3.552   6.418  1.3850 -0.6912 -1.0823
   31SAPC     P 4108   3.122   3.833   6.345 -0.1069  0.1825  0.0669
   31SAPC   O13 4109   3.274   3.828   6.326  0.6634 -0.3731  0.5327
   31SAPC   O14 4110   3.051   3.954   6.298 -0.5606  0.0993  0.0547
   31SAPC   O12 4111   3.072   3.705   6.266  0.3602 -1.1799  0.8889
   31SAPC   O11 4112   3.088   3.806   6.497 -0.2122  0.1006  0.2221
   31SAPC    C1 4113   3.177   3.866   6.594 -0.1539  0.1647 -0.4060
   31SAPC    HA 4114   3.232   3.955   6.558 -1.6389  0.7999 -1.1495
   31SAPC    HB 4115   3.122   3.905   6.682  2.0804 -2.6160  2.3714
   31SAPC    C2 4116   3.275   3.762   6.646 -0.0222  0.2685 -0.0095
   31SAPC    HS 4117   3.331   3.710   6.565 -1.1451  0.8723 -1.1841
   31SAPC   O21 4118   3.191   3.667   6.717 -0.2858 -0.3249 -0.2904
   31SAPC   C21 4119   3.265   3.558   6.751 -0.5824 -0.2583 -0.2328
   31SAPC   O22 4120   3.370   3.528   6.698  0.2662 -0.2286  0.1879
   31SAPC   C22 4121   3.200   3.471   6.866  0.3065  0.0875 -0.2608
   31SAPC   H2R 4122   3.272   3.449   6.948 -0.2985 -2.3053 -0.3299
   31SAPC   H2S 4123   3.122   3.533   6.915  0.1004  0.0508 -0.5409
   31SAPC    C3 4124   3.381   3.825   6.741  0.4922  0.6377 -0.7172
   31SAPC    HX 4125   3.441   3.901   6.688 -1.0426  0.9493 -2.0681
   31SAPC    HY 4126   3.463   3.755   6.768 -0.6008 -0.4132 -0.0754
   31SAPC   O31 4127   3.312   3.889   6.855  0.6093 -0.2723 -0.0199
   31SAPC   C31 4128   3.310   3.828   6.976  0.1549 -0.3029  0.0545
   31SAPC   O32 4129   3.348   3.721   7.007  0.6271  0.4766  0.2980
   31SAPC   C32 4130   3.213   3.908   7.066 -0.1124 -0.3152 -0.1308
   31SAPC   H2X 4131   3.119   3.932   7.011  0.5812  2.8939  0.0163
   31SAPC   H2Y 4132   3.253   4.009   7.086 -0.4177 -0.2969  0.3927
   31SAPC   C23 4133   3.159   3.331   6.807 -0.2416 -0.2492  0.2674
   31SAPC   H3R 4134   3.245   3.266   6.779  0.0563  1.5683 -3.4323
   31SAPC   H3S 4135   3.096   3.352   6.718  1.4155  0.1922 -0.8180
   31SAPC   C24 4136   3.078   3.240   6.894  1.2220 -0.2189  0.2822
   31SAPC   H4R 4137   3.027   3.158   6.838 -3.0377  0.6398  2.7106
   31SAPC   H4S 4138   2.990   3.300   6.926  0.1425 -1.0842 -0.9528
   31SAPC   C25 4139   3.154   3.189   7.014  0.3637  0.0392 -0.1246
   31SAPC   H5R 4140   3.227   3.108   6.997  0.0797 -0.5302  1.2841
   31SAPC   C26 4141   3.155   3.237   7.140 -0.4358 -0.4566  0.1978
   31SAPC   H6R 4142   3.225   3.187   7.209  1.1945 -0.1873 -1.2417
   31SAPC   C27 4143   3.080   3.356   7.200 -0.8159 -0.4109  0.2748
   31SAPC   H7R 4144   3.083   3.430   7.118  0.8183  0.0556  0.7493
   31SAPC   H7S 4145   3.141   3.394   7.285  3.9012  1.0920 -3.5887
   31SAPC   C28 4146   2.935   3.312   7.220  0.1582  0.3419  0.0611
   31SAPC   H8R 4147   2.904   3.238   7.145  0.1183 -0.7699  1.1694
   31SAPC   C29 4148   2.849   3.359   7.309  0.4701 -0.0924 -1.1440
   31SAPC   H9R 4149   2.747   3.320   7.314  0.3232 -0.1460 -3.7106
   31SAPC  C210 4150   2.890   3.464   7.413  0.0123  0.4505 -0.0007
   31SAPC  H10R 4151   2.849   3.563   7.383  0.5955  0.5378 -0.5352
   31SAPC  H10S 4152   3.000   3.478   7.416  0.1763 -0.7740  0.1045
   31SAPC  C211 4153   2.830   3.418   7.540 -0.0567  0.5774 -0.3856
   31SAPC  H11R 4154   2.817   3.310   7.550  3.3067  0.1244 -0.1799
   31SAPC  C212 4155   2.825   3.492   7.651  0.6642 -0.0506  1.0235
   31SAPC  H12R 4156   2.800   3.438   7.743  1.9709 -1.1314  0.7554
   31SAPC  C213 4157   2.861   3.634   7.677 -0.3868 -0.0397  0.7102
   31SAPC  H13R 4158   2.765   3.654   7.728 -0.7176 -1.7812  0.7805
   31SAPC  H13S 4159   2.863   3.699   7.587 -0.0975  0.5134  1.1109
   31SAPC  C214 4160   2.984   3.658   7.765 -0.0450 -0.1396 -0.2497
   31SAPC  H14R 4161   3.077   3.666   7.706 -0.5615  1.6007 -0.8652
   31SAPC  C215 4162   2.993   3.686   7.897 -0.4457 -0.0395 -0.6072
   31SAPC  H15R 4163   3.094   3.701   7.937 -0.1440  0.7767 -1.6502
   31SAPC  C216 4164   2.875   3.704   7.990  0.6422 -0.8115 -0.4149
   31SAPC  H16R 4165   2.787   3.731   7.928  0.3896  1.2216  0.7748
   31SAPC  H16S 4166   2.888   3.785   8.065  0.7892  1.1062 -2.4871
   31SAPC  C217 4167   2.840   3.566   8.047 -0.8119 -0.4367  0.6105
   31SAPC  H17R 4168   2.808   3.493   7.970 -1.2733  0.1569  0.2416
   31SAPC  H17S 4169   2.762   3.591   8.122 -0.4624 -2.3383  1.6237
   31SAPC  C218 4170   2.964   3.509   8.121  0.1238 -0.3133  0.5872
   31SAPC  H18R 4171   2.993   3.592   8.189  1.6949 -1.0227  0.8012
   31SAPC  H18S 4172   3.051   3.488   8.055 -0.5576  2.0750 -1.1312
   31SAPC  C219 4173   2.922   3.381   8.200 -0.3702  0.2332 -0.0943
   31SAPC  H19R 4174   2.873   3.399   8.298  0.2848 -1.8933  0.6388
   31SAPC  H19S 4175   3.015   3.327   8.225 -0.2331  0.4100 -0.2181
   31SAPC  C220 4176   2.824   3.284   8.135 -0.6489 -0.3646  0.5854
   31SAPC  H20R 4177   2.722   3.329   8.134 -0.1245  0.8406  0.2219
   31SAPC  H20S 4178   2.824   3.187   8.189  1.0786 -1.1215 -0.7408
   31SAPC  H20T 4179   2.857   3.254   8.033  1.6412 -0.1239  1.2354
   31SAPC   C33 4180   3.175   3.841   7.205 -0.3522  0.0412 -0.5854
   31SAPC   H3X 4181   3.165   3.733   7.182 -0.6580 -0.0873  0.1494
   31SAPC   H3Y 4182   3.074   3.886   7.219 -0.1759  0.2945 -0.1090
   31SAPC   C34 4183   3.278   3.857   7.315 -0.5438 -0.1399  0.5702
   31SAPC   H4X 4184   3.310   3.963   7.316  0.8192 -0.5482  1.0428
   31SAPC   H4Y 4185   3.373   3.803   7.295 -0.1136 -0.0117  2.2078
   31SAPC   C35 4186   3.217   3.797   7.447  0.2634  0.5836 -0.4540
   31SAPC   H5X 4187   3.155   3.707   7.425 -0.7495  1.1236  0.1646
   31SAPC   H5Y 4188   3.151   3.873   7.494  1.7829  0.7890  1.4262
   31SAPC   C36 4189   3.329   3.763   7.552  0.3967  0.3081  0.4004
   31SAPC   H6X 4190   3.276   3.752   7.649  0.9952 -1.4680  0.5508
   31SAPC   H6Y 4191   3.402   3.846   7.560  0.9685 -0.4251  3.4918
   31SAPC   C37 4192   3.390   3.626   7.530  0.0014 -0.5428  0.2223
   31SAPC   H7X 4193   3.483   3.641   7.471  0.6233 -0.5008  1.2159
   31SAPC   H7Y 4194   3.328   3.561   7.463  0.1614 -1.0604  0.5744
   31SAPC   C38 4195   3.430   3.542   7.650 -0.6246 -0.1464 -0.1177
   31SAPC   H8X 4196   3.476   3.449   7.610 -2.1653 -0.4025 -1.3338
   31SAPC   H8Y 4197   3.341   3.515   7.710 -0.4958 -3.3214 -1.2549
   31SAPC   C39 4198   3.535   3.613   7.745  0.0438  0.0325  0.5875
   31SAPC   H9X 4199   3.489   3.704   7.788 -1.0434  0.5224 -1.5394
   31SAPC   H9Y 4200   3.626   3.645   7.688  0.0787 -1.8405 -0.4600
   31SAPC  C310 4201   3.588   3.515   7.855  0.5565  0.3694 -0.3363
   31SAPC  H10X 4202   3.681   3.560   7.895  0.4157  0.0344  0.3694
   31SAPC  H10Y 4203   3.605   3.410   7.821  1.2853  0.6441 -0.8450
   31SAPC  C311 4204   3.480   3.522   7.972  0.0776 -0.0992  0.1603
   31SAPC  H11X 4205   3.378   3.503   7.932 -0.2376  1.4967  0.1643
   31SAPC  H11Y 4206   3.470   3.625   8.013  1.1932  0.6782 -1.4642
   31SAPC  C312 4207   3.513   3.428   8.090 -0.4519  0.2282  1.3924
   31SAPC  H12X 4208   3.620   3.454   8.104 -0.5275  1.7650 -0.5949
   31SAPC  H12Y 4209   3.505   3.323   8.054  1.0976  0.9137 -1.1139
   31SAPC  C313 4210   3.438   3.454   8.221  0.9145 -0.4155  0.6903
   31SAPC  H13X 4211   3.330   3.449   8.195  1.3274  1.2513 -1.4505
   31SAPC  H13Y 4212   3.457   3.560   8.249  1.1749 -0.2089 -0.2615
   31SAPC  C314 4213   3.470   3.353   8.329 -0.0363 -0.4359 -0.2417
   31SAPC  H14X 4214   3.436   3.253   8.294  0.4073 -0.5684 -0.3011
   31SAPC  H14Y 4215   3.418   3.377   8.424 -0.8254  1.3774 -1.1205
   31SAPC  C315 4216   3.621   3.336   8.360  0.4767 -0.1488 -0.0845
   31SAPC  H15X 4217   3.657   3.441   8.365  1.5562 -0.4877 -0.5569
   31SAPC  H15Y 4218   3.661   3.273   8.277 -1.9382 -0.5418 -0.9806
   31SAPC  C316 4219   3.658   3.282   8.497 -0.2442 -0.0119  0.4447
   31SAPC  H16X 4220   3.605   3.345   8.572 -2.8640 -1.0192 -0.4979
   31SAPC  H16Y 4221   3.764   3.312   8.512 -0.3931  0.4685  0.5618
   31SAPC  C317 4222   3.617   3.140   8.520  0.7171  0.3811  0.6192
   31SAPC  H17X 4223   3.517   3.122   8.475  0.3710 -0.1002  1.5556
   31SAPC  H17Y 4224   3.617   3.130   8.631 -0.0622  0.3491  0.6205
   31SAPC  C318 4225   3.706   3.039   8.453  0.5003 -0.0589 -0.1717
   31SAPC  H18X 4226   3.712   3.065   8.345  2.4777 -0.5819 -0.2072
   31SAPC  H18Y 4227   3.682   2.932   8.468  1.0133  0.0657  1.5990
   31SAPC  H18Z 4228   3.812   3.050   8.484  0.6346 -0.3054 -0.5368
   32SAPC     N 4229   4.255   3.819   6.310 -0.4769  0.1723  0.0180
   32SAPC   C12 4230   4.259   3.959   6.362 -0.0147  0.4733 -0.3970
   32SAPC  H12A 4231   4.285   3.962   6.467  0.3173  1.9778 -0.5254
   32SAPC  H12B 4232   4.162   4.003   6.350 -0.8315 -0.4716  2.3700
   32SAPC   C13 4233   4.376   3.728   6.340 -0.0455  0.2078 -0.3523
   32SAPC  H13A 4234   4.363   3.628   6.300  2.9650 -0.2037 -0.4186
   32SAPC  H13B 4235   4.461   3.766   6.285  0.1621 -0.5505 -0.5606
   32SAPC  H13C 4236   4.389   3.725   6.447 -0.9594  1.6795 -0.1893
   32SAPC   C14 4237   4.142   3.745   6.373  0.6956  0.6080 -0.3275
   32SAPC  H14A 4238   4.050   3.779   6.328 -0.0786  1.0612  1.5664
   32SAPC  H14B 4239   4.165   3.642   6.351  2.7388  1.1848 -0.9468
   32SAPC  H14C 4240   4.142   3.737   6.481  0.9253 -0.2738 -0.3812
   32SAPC   C15 4241   4.234   3.804   6.159  0.7093  0.4137  0.1768
   32SAPC  H15A 4242   4.265   3.704   6.135  1.5005  0.8372 -0.6137
   32SAPC  H15B 4243   4.134   3.828   6.127  1.1654  1.5375 -0.4517
   32SAPC  H15C 4244   4.309   3.864   6.110 -0.2302  0.5030 -1.1748
   32SAPC   C11 4245   4.359   4.055   6.291  0.0505 -0.1803  0.3242
   32SAPC  H11A 4246   4.318   4.157   6.308 -0.4449  0.1727 -2.7492
   32SAPC  H11B 4247   4.346   4.038   6.182  0.8465 -1.3264  0.3978
   32SAPC     P 4248   4.554   4.091   6.458 -0.1835  0.2799  0.0163
   32SAPC   O13 4249   4.694   4.052   6.478 -0.3746  0.2910  0.1314
   32SAPC   O14 4250   4.525   4.237   6.454 -0.1105  0.4595  0.3109
   32SAPC   O12 4251   4.497   4.033   6.327  0.3387 -0.0810  0.3041
   32SAPC   O11 4252   4.470   4.022   6.565 -0.3257 -1.0554  0.6294
   32SAPC    C1 4253   4.493   3.909   6.642  0.0573  0.0692 -0.2444
   32SAPC    HA 4254   4.395   3.860   6.659  0.5027 -0.9215 -0.4417
   32SAPC    HB 4255   4.558   3.836   6.589  0.3075  1.6245 -2.1419
   32SAPC    C2 4256   4.545   3.942   6.791  0.4895 -0.0128  0.3339
   32SAPC    HS 4257   4.548   4.053   6.802  0.5677  0.0048  0.1276
   32SAPC   O21 4258   4.663   3.868   6.820  0.0863 -0.0267 -0.2259
   32SAPC   C21 4259   4.757   3.934   6.891  0.0953  1.1168 -0.3110
   32SAPC   O22 4260   4.754   4.053   6.915 -0.4246  0.7321  0.3776
   32SAPC   C22 4261   4.871   3.838   6.927  0.1973 -0.4910  0.1545
   32SAPC   H2R 4262   4.829   3.735   6.933 -3.0176  0.7314 -0.5391
   32SAPC   H2S 4263   4.929   3.821   6.834  0.3762 -1.1770  0.3898
   32SAPC    C3 4264   4.440   3.894   6.893 -0.1208 -0.3891  0.4226
   32SAPC    HX 4265   4.424   3.787   6.871  0.1527  0.5016 -4.6747
   32SAPC    HY 4266   4.352   3.953   6.858 -0.4948 -0.6690  0.8847
   32SAPC   O31 4267   4.476   3.919   7.035  0.2098 -0.0162  0.2262
   32SAPC   C31 4268   4.462   4.038   7.085 -0.2193  0.2410 -0.6550
   32SAPC   O32 4269   4.411   4.131   7.022 -0.4852  0.2615  0.5448
   32SAPC   C32 4270   4.527   4.052   7.229 -0.6544 -0.1484  0.2541
   32SAPC   H2X 4271   4.599   4.136   7.220 -1.3148  0.3768 -0.2106
   32SAPC   H2Y 4272   4.588   3.959   7.232 -0.1751  0.1428 -0.4095
   32SAPC   C23 4273   4.958   3.878   7.047  0.5825  0.0392 -0.5111
   32SAPC   H3R 4274   5.010   3.973   7.021  2.1440 -0.9606 -1.1013
   32SAPC   H3S 4275   5.037   3.801   7.045 -1.6741 -2.5091  2.8547
   32SAPC   C24 4276   4.887   3.901   7.183  0.7254 -0.2863  0.0340
   32SAPC   H4R 4277   4.796   3.964   7.171  0.1158 -1.0979  0.3401
   32SAPC   H4S 4278   4.943   3.983   7.232  1.2816  0.0964 -1.2136
   32SAPC   C25 4279   4.871   3.773   7.257 -0.0977 -0.2350  0.2876
   32SAPC   H5R 4280   4.841   3.689   7.192 -0.6295 -1.2208  1.7854
   32SAPC   C26 4281   4.909   3.753   7.386  0.3847 -0.1925  0.0889
   32SAPC   H6R 4282   4.903   3.653   7.431 -1.4764  0.7355  1.9798
   32SAPC   C27 4283   4.965   3.861   7.480 -0.2256 -0.2545  0.5056
   32SAPC   H7R 4284   4.928   3.965   7.477 -0.1785 -0.2070  1.4512
   32SAPC   H7S 4285   5.071   3.874   7.450 -0.4581 -0.5221 -0.4561
   32SAPC   C28 4286   4.977   3.812   7.620  0.1464 -0.2327 -0.5618
   32SAPC   H8R 4287   4.936   3.712   7.641 -0.9268  0.3559  0.2581
   32SAPC   C29 4288   5.026   3.875   7.727  0.2962  0.6737  1.2168
   32SAPC   H9R 4289   5.026   3.811   7.816 -0.2620  1.8502  2.0738
   32SAPC  C210 4290   5.060   4.020   7.735 -0.1172 -0.0986  0.7481
   32SAPC  H10R 4291   4.966   4.072   7.705 -0.9990 -2.7343 -1.2380
   32SAPC  H10S 4292   5.117   4.056   7.648  0.9001  1.7586  2.1495
   32SAPC  C211 4293   5.120   4.061   7.868 -0.4138 -0.5204  0.0829
   32SAPC  H11R 4294   5.056   4.077   7.956 -0.3420 -0.0091  0.0447
   32SAPC  C212 4295   5.257   4.084   7.888  0.7371 -0.0774 -0.0651
   32SAPC  H12R 4296   5.286   4.130   7.984 -0.7311  0.3477  0.1986
   32SAPC  C213 4297   5.364   4.065   7.782  0.9433 -0.4108 -0.9160
   32SAPC  H13R 4298   5.352   4.146   7.707 -1.0091  2.2909  2.1740
   32SAPC  H13S 4299   5.346   3.971   7.727  0.9064 -0.5602 -0.6471
   32SAPC  C214 4300   5.507   4.063   7.845  0.6434 -0.0417 -0.2602
   32SAPC  H14R 4301   5.528   4.146   7.915 -0.4895  0.0612 -0.0263
   32SAPC  C215 4302   5.604   3.975   7.804  0.4773  0.5262 -0.3372
   32SAPC  H15R 4303   5.684   3.967   7.878 -3.1772  1.0618  3.8845
   32SAPC  C216 4304   5.601   3.865   7.700  0.1019 -0.4265 -0.3313
   32SAPC  H16R 4305   5.698   3.825   7.666 -0.0174 -1.3073  0.3317
   32SAPC  H16S 4306   5.549   3.908   7.612  0.2564 -0.7667 -0.5857
   32SAPC  C217 4307   5.519   3.739   7.741  0.4097  0.0488  0.4100
   32SAPC  H17R 4308   5.414   3.772   7.760  0.6129  2.9089 -2.8710
   32SAPC  H17S 4309   5.565   3.699   7.833  0.4598 -1.4124 -0.2416
   32SAPC  C218 4310   5.521   3.633   7.631  0.3982  0.0650  0.7585
   32SAPC  H18R 4311   5.501   3.536   7.681 -1.4047 -0.1481 -0.3235
   32SAPC  H18S 4312   5.616   3.641   7.573 -0.7512 -2.5660 -1.6269
   32SAPC  C219 4313   5.404   3.653   7.535 -0.7424 -0.2696  0.0434
   32SAPC  H19R 4314   5.431   3.741   7.473  3.5543 -1.7952 -0.3951
   32SAPC  H19S 4315   5.312   3.669   7.595 -1.1598  2.8071 -1.2960
   32SAPC  C220 4316   5.396   3.544   7.426  0.0935 -0.8002 -0.0688
   32SAPC  H20R 4317   5.356   3.444   7.453  1.6456 -2.2816 -2.9420
   32SAPC  H20S 4318   5.493   3.541   7.371  0.8113 -1.5422  1.2207
   32SAPC  H20T 4319   5.324   3.573   7.346 -0.1435 -0.6345  0.2077
   32SAPC   C33 4320   4.426   4.075   7.345 -0.1437 -0.6122  1.0040
   32SAPC   H3X 4321   4.341   4.004   7.337 -1.0962  0.7085 -1.0501
   32SAPC   H3Y 4322   4.364   4.165   7.323 -0.2865 -0.7307  0.9188
   32SAPC   C34 4323   4.491   4.073   7.483  0.7538 -1.0949 -0.0429
   32SAPC   H4X 4324   4.409   4.082   7.557 -0.0147 -2.9234 -0.6439
   32SAPC   H4Y 4325   4.562   4.158   7.496 -1.0013  0.3959  0.0445
   32SAPC   C35 4326   4.567   3.940   7.507 -0.8937 -0.1667  0.3649
   32SAPC   H5X 4327   4.655   3.935   7.439 -0.2057  3.1867  0.8737
   32SAPC   H5Y 4328   4.506   3.850   7.487 -1.8389  0.9006 -1.7386
   32SAPC   C36 4329   4.613   3.912   7.650 -0.1507 -0.0516  0.0310
   32SAPC   H6X 4330   4.704   3.849   7.647  0.3236  0.6870 -2.8082
   32SAPC   H6Y 4331   4.530   3.864   7.706 -0.7124  2.1090  1.1150
   32SAPC   C37 4332   4.655   4.033   7.729 -0.2074  1.1587 -0.4812
   32SAPC   H7X 4333   4.581   4.115   7.724 -1.5981 -0.0625 -0.2669
   32SAPC   H7Y 4334   4.747   4.065   7.676 -0.2005 -0.0833 -1.2625
   32SAPC   C38 4335   4.684   4.008   7.872 -0.0135  0.5756 -0.5094
   32SAPC   H8X 4336   4.774   3.944   7.862  0.2052  1.0021 -1.3013
   32SAPC   H8Y 4337   4.601   3.953   7.922  2.5208 -0.5418  2.6470
   32SAPC   C39 4338   4.706   4.124   7.963 -0.1306 -0.5149  0.9002
   32SAPC   H9X 4339   4.607   4.174   7.959 -1.5114 -3.2272 -0.4505
   32SAPC   H9Y 4340   4.783   4.182   7.908  0.8428 -4.3019 -2.0021
   32SAPC  C310 4341   4.761   4.086   8.102 -0.5411  0.1926  0.1458
   32SAPC  H10X 4342   4.829   3.999   8.086 -1.0213  0.0026 -0.8954
   32SAPC  H10Y 4343   4.686   4.059   8.179 -1.1559  1.3070 -0.0582
   32SAPC  C311 4344   4.847   4.199   8.167  0.6030  0.3984 -1.1656
   32SAPC  H11X 4345   4.786   4.292   8.161  1.1355  0.9887  1.9810
   32SAPC  H11Y 4346   4.940   4.220   8.110  0.5384 -0.6492 -1.6576
   32SAPC  C312 4347   4.867   4.169   8.316  0.4972  0.1186  0.7802
   32SAPC  H12X 4348   4.767   4.171   8.364 -0.5492 -1.6768 -1.2247
   32SAPC  H12Y 4349   4.927   4.251   8.361 -0.5697  1.6885 -0.6089
   32SAPC  C313 4350   4.953   4.044   8.354 -0.2119 -0.2533  0.6209
   32SAPC  H13X 4351   4.878   3.963   8.341 -0.6273  0.5153 -1.9960
   32SAPC  H13Y 4352   4.965   4.051   8.464 -2.1522 -2.2925  0.9940
   32SAPC  C314 4353   5.080   4.022   8.266  0.0091 -0.2162 -0.6028
   32SAPC  H14X 4354   5.153   4.100   8.297 -0.2481 -0.1104 -0.2582
   32SAPC  H14Y 4355   5.058   4.026   8.157  0.7639  0.6008 -0.7293
   32SAPC  C315 4356   5.126   3.879   8.305  0.1666  0.3240 -0.0929
   32SAPC  H15X 4357   5.048   3.803   8.325  0.9913  0.0535  2.1895
   32SAPC  H15Y 4358   5.184   3.891   8.399  1.9651 -0.6510 -1.0407
   32SAPC  C316 4359   5.224   3.808   8.212  0.1310 -0.0276 -0.8436
   32SAPC  H16X 4360   5.275   3.725   8.265  1.3572  1.7169  0.7664
   32SAPC  H16Y 4361   5.301   3.880   8.177 -0.1359  0.7860  0.2281
   32SAPC  C317 4362   5.159   3.745   8.085 -0.3495  0.4134 -0.4813
   32SAPC  H17X 4363   5.117   3.836   8.037 -1.3157  0.7102  0.8978
   32SAPC  H17Y 4364   5.082   3.669   8.109  0.4006  0.4967  2.3610
   32SAPC  C318 4365   5.270   3.694   7.991 -0.3176  0.2701  0.2834
   32SAPC  H18X 4366   5.239   3.698   7.884  0.3939 -1.8727 -0.0374
   32SAPC  H18Y 4367   5.312   3.592   8.007 -0.7719 -0.1792 -1.2373
   32SAPC  H18Z 4368   5.358   3.762   7.994  0.4699 -0.6948 -0.3995
   33POPC     N 4369   2.587   5.881  10.686 -0.3045  0.0514 -0.7520
   33POPC   C12 4370   2.664   5.859  10.556  0.4840  0.5732 -0.0722
   33POPC  H12A 4371   2.770   5.861  10.576  0.4380  0.7998  0.1403
   33POPC  H12B 4372   2.638   5.937  10.486  0.3019 -0.1757 -0.8612
   33POPC   C13 4373   2.647   5.996  10.759 -0.1398  0.3633  0.1676
   33POPC  H13A 4374   2.640   6.089  10.704  1.5816  0.5802  0.2962
   33POPC  H13B 4375   2.599   6.017  10.854 -0.3569  0.8971 -0.0608
   33POPC  H13C 4376   2.753   5.982  10.771  0.4550  4.8462  0.9122
   33POPC   C14 4377   2.435   5.898  10.678  0.5014  0.2734 -0.5499
   33POPC  H14A 4378   2.403   5.806  10.630 -0.8083  0.9384 -0.9808
   33POPC  H14B 4379   2.380   5.911  10.770  0.3474  1.2655 -0.7768
   33POPC  H14C 4380   2.416   5.979  10.609 -0.6830 -0.0570 -0.6387
   33POPC   C15 4381   2.605   5.765  10.778  0.1640 -0.7003  0.7690
   33POPC  H15A 4382   2.581   5.784  10.882 -1.3560 -0.1098  0.3309
   33POPC  H15B 4383   2.710   5.741  10.773  0.5140  0.9983 -0.2447
   33POPC  H15C 4384   2.544   5.682  10.744 -0.5797  0.4121 -0.6946
   33POPC   C11 4385   2.635   5.726  10.482 -0.0623  0.5400  1.0903
   33POPC  H11A 4386   2.668   5.728  10.376 -1.7349 -0.9349  0.5197
   33POPC  H11B 4387   2.524   5.719  10.474  0.1221 -0.0811 -1.6215
   33POPC     P 4388   2.652   5.461  10.510  0.3073 -0.0975 -0.0663
   33POPC   O13 4389   2.555   5.410  10.612  0.2856  0.6208 -0.5847
   33POPC   O14 4390   2.776   5.384  10.497  0.2132  0.1850  0.2971
   33POPC   O12 4391   2.692   5.607  10.548 -0.1191 -0.1367  0.3131
   33POPC   O11 4392   2.583   5.474  10.364 -0.4783  0.5761  0.4617
   33POPC    C1 4393   2.452   5.414  10.336  0.0807 -0.4673  0.3328
   33POPC    HA 4394   2.386   5.436  10.422 -1.2530  0.3337 -0.8850
   33POPC    HB 4395   2.402   5.471  10.255  2.0610  0.9215  0.0261
   33POPC    C2 4396   2.450   5.265  10.285 -0.4777 -0.2967  0.0287
   33POPC    HS 4397   2.491   5.209  10.373  0.3295 -1.4175 -1.0439
   33POPC   O21 4398   2.538   5.245  10.171 -0.0629  0.7430  0.0485
   33POPC   C21 4399   2.574   5.120  10.136  0.0671 -0.3271  0.2906
   33POPC   O22 4400   2.549   5.022  10.202  0.4511  0.6515 -0.2960
   33POPC   C22 4401   2.653   5.122  10.006  0.2222  0.5617 -0.0329
   33POPC   H2R 4402   2.755   5.159  10.028  0.5676 -0.0318 -0.6377
   33POPC   H2S 4403   2.610   5.196   9.935  0.4076  1.0509  0.3613
   33POPC    C3 4404   2.304   5.210  10.261 -0.1032 -0.3274  0.5088
   33POPC    HX 4405   2.238   5.225  10.349  1.9645 -0.5695  2.1196
   33POPC    HY 4406   2.308   5.101  10.245  2.0598 -0.0639 -0.9927
   33POPC   O31 4407   2.239   5.281  10.146  0.0064  0.2848  0.3371
   33POPC   C31 4408   2.176   5.396  10.166  0.5291  0.1710 -0.3077
   33POPC   O32 4409   2.153   5.441  10.277  0.0438  0.5431  0.1942
   33POPC   C32 4410   2.147   5.447  10.024  0.0933 -0.1959 -0.0085
   33POPC   H2X 4411   2.086   5.377   9.963  0.3580  1.2664 -1.9933
   33POPC   H2Y 4412   2.247   5.453   9.975  0.5443 -0.1980  0.8851
   33POPC   C23 4413   2.640   4.975   9.944 -0.6824 -0.1948 -0.3402
   33POPC   H3R 4414   2.533   4.945   9.938 -0.6084 -0.2572 -1.4167
   33POPC   H3S 4415   2.704   4.904   9.999 -3.0482 -2.6014 -0.5882
   33POPC   C24 4416   2.687   4.983   9.796  0.3377 -0.2326 -0.0192
   33POPC   H4R 4417   2.638   5.073   9.753 -0.0239 -1.0634 -1.3601
   33POPC   H4S 4418   2.655   4.896   9.735  1.6435  0.4898 -1.7840
   33POPC   C25 4419   2.839   5.000   9.779  0.6185  0.0638 -0.2505
   33POPC   H5R 4420   2.862   5.090   9.839 -0.3410 -0.0465  0.2998
   33POPC   H5S 4421   2.853   5.012   9.669 -0.6165 -2.0741 -0.6750
   33POPC   C26 4422   2.910   4.874   9.817 -0.0274  0.5014  1.0200
   33POPC   H6R 4423   2.891   4.865   9.926 -1.7691  0.0953  0.7041
   33POPC   H6S 4424   3.019   4.893   9.808 -0.6492  3.7605 -0.1193
   33POPC   C27 4425   2.867   4.738   9.752 -0.3242 -0.0740  0.5894
   33POPC   H7R 4426   2.839   4.775   9.651 -0.2904 -1.2020  0.1667
   33POPC   H7S 4427   2.770   4.704   9.793  0.4698 -1.3691  1.4238
   33POPC   C28 4428   2.979   4.637   9.765 -0.1462  0.2457 -0.1043
   33POPC   H8R 4429   2.934   4.539   9.739 -0.0504  0.1976 -0.0862
   33POPC   H8S 4430   3.012   4.635   9.871  2.1154 -1.8609 -0.8087
   33POPC   C29 4431   3.103   4.660   9.679  0.9184  0.5396  0.8021
   33POPC   H91 4432   3.156   4.749   9.718  1.9329  0.1182  0.3988
   33POPC  C210 4433   3.131   4.598   9.565  0.5139  0.3735  0.2970
   33POPC  H101 4434   3.224   4.624   9.512  0.3829  2.2470  0.9493
   33POPC  C211 4435   3.041   4.491   9.506 -0.4117 -0.5473  0.0634
   33POPC  H11R 4436   2.954   4.459   9.567 -0.6238  1.5991  0.9015
   33POPC  H11S 4437   3.116   4.409   9.506  0.4356  0.2316 -0.3883
   33POPC  C212 4438   2.997   4.513   9.362 -0.1107  0.3029  1.0973
   33POPC  H12R 4439   3.079   4.551   9.298 -0.1392  0.7348  1.3135
   33POPC  H12S 4440   2.931   4.602   9.366 -0.9889 -0.3581  1.5527
   33POPC  C213 4441   2.952   4.384   9.291 -0.1231  0.3552  0.2148
   33POPC  H13R 4442   2.857   4.348   9.336 -0.0936  2.5312  2.0934
   33POPC  H13S 4443   3.035   4.312   9.310 -0.3774  0.0710  0.2616
   33POPC  C214 4444   2.930   4.406   9.150 -0.2140 -0.1993  0.6545
   33POPC  H14R 4445   3.017   4.438   9.088  0.5406  0.6354  2.1217
   33POPC  H14S 4446   2.864   4.496   9.148  1.4027  1.0527  1.7725
   33POPC  C215 4447   2.839   4.293   9.079 -0.3261 -0.1669  0.1710
   33POPC  H15R 4448   2.741   4.271   9.126  0.4135 -3.7188  0.1647
   33POPC  H15S 4449   2.906   4.205   9.082  0.6907  0.5188 -1.4842
   33POPC  C216 4450   2.813   4.306   8.933 -0.4941  0.5236  0.9271
   33POPC  H16R 4451   2.735   4.385   8.933  0.1354  1.1572  1.7165
   33POPC  H16S 4452   2.760   4.220   8.889 -1.0068  0.7467  1.1039
   33POPC  C217 4453   2.939   4.330   8.847  0.2113  0.2094  0.3938
   33POPC  H17R 4454   2.970   4.430   8.882  0.8750 -0.0316  0.4979
   33POPC  H17S 4455   2.918   4.348   8.739 -0.2228 -0.4549  0.3665
   33POPC  C218 4456   3.060   4.228   8.861 -0.2880  0.4467 -0.4739
   33POPC  H18R 4457   3.124   4.235   8.771 -1.2478 -0.1049 -1.1976
   33POPC  H18S 4458   3.018   4.126   8.855  0.6081  0.1543 -1.9393
   33POPC  H18T 4459   3.122   4.237   8.954 -1.6335  1.2314  0.3657
   33POPC   C33 4460   2.083   5.595  10.022  0.8976  0.7453  0.8849
   33POPC   H3X 4461   2.150   5.668  10.072 -0.0773  2.1720  0.1429
   33POPC   H3Y 4462   1.982   5.582  10.068 -0.2080  1.5069 -1.2569
   33POPC   C34 4463   2.055   5.648   9.877 -0.2143 -0.0129  0.5349
   33POPC   H4X 4464   2.012   5.750   9.881 -1.2656 -0.4908  1.7827
   33POPC   H4Y 4465   1.976   5.583   9.833 -0.8538  2.0301 -1.3961
   33POPC   C35 4466   2.162   5.654   9.778  0.2973  0.0387 -0.1951
   33POPC   H5X 4467   2.216   5.557   9.771  0.0192  0.0178 -2.4796
   33POPC   H5Y 4468   2.238   5.725   9.816  0.8578  0.3788 -1.9152
   33POPC   C36 4469   2.117   5.684   9.636  0.3299  0.3796 -0.5432
   33POPC   H6X 4470   2.099   5.793   9.628 -0.2427  0.0614 -4.5381
   33POPC   H6Y 4471   2.031   5.617   9.617 -0.3026 -0.3556  4.1491
   33POPC   C37 4472   2.214   5.636   9.528  0.5406 -0.0784 -0.0452
   33POPC   H7X 4473   2.231   5.526   9.527 -0.9605 -0.3080 -0.5766
   33POPC   H7Y 4474   2.314   5.680   9.549  1.1428 -1.7724  0.7210
   33POPC   C38 4475   2.165   5.674   9.387  0.5031  0.2262  0.3792
   33POPC   H8X 4476   2.149   5.784   9.380 -0.9973  0.0955  1.4901
   33POPC   H8Y 4477   2.065   5.627   9.375 -0.7405  3.2280 -1.5625
   33POPC   C39 4478   2.248   5.617   9.268 -0.2729  0.1169 -0.2161
   33POPC   H9X 4479   2.194   5.654   9.178  0.7937 -1.9754 -1.7605
   33POPC   H9Y 4480   2.247   5.506   9.266  0.7073  0.1106 -0.1997
   33POPC  C310 4481   2.387   5.673   9.258 -0.0076 -0.7289  0.2605
   33POPC  H10X 4482   2.433   5.702   9.355  1.4572  3.1139 -1.4621
   33POPC  H10Y 4483   2.383   5.771   9.206  1.0885 -0.2833  1.0043
   33POPC  C311 4484   2.478   5.581   9.177 -0.1006  0.2922 -0.2270
   33POPC  H11X 4485   2.566   5.648   9.163  1.2506 -1.3461  0.1279
   33POPC  H11Y 4486   2.421   5.562   9.084  0.9431 -0.9230 -0.6328
   33POPC  C312 4487   2.522   5.453   9.250  0.5947  0.4657  0.9443
   33POPC  H12X 4488   2.576   5.384   9.182 -1.1889 -1.0062  0.9991
   33POPC  H12Y 4489   2.427   5.406   9.282 -0.4505  0.1471 -2.4448
   33POPC  C313 4490   2.613   5.484   9.374  0.3908 -0.7247 -0.0944
   33POPC  H13X 4491   2.561   5.550   9.448 -0.9178 -3.8583  1.8906
   33POPC  H13Y 4492   2.705   5.530   9.333  0.1095 -1.8162 -1.9697
   33POPC  C314 4493   2.661   5.360   9.451  0.3502 -0.5224  0.0107
   33POPC  H14X 4494   2.716   5.297   9.377  2.1366  1.9822 -0.8432
   33POPC  H14Y 4495   2.574   5.302   9.488 -0.6768  1.0501  0.1040
   33POPC  C315 4496   2.744   5.401   9.567  0.2233  0.0573  0.3730
   33POPC  H15X 4497   2.813   5.485   9.546 -1.3547  1.1590 -0.5378
   33POPC  H15Y 4498   2.807   5.315   9.598 -1.1364 -0.8284  0.7103
   33POPC  C316 4499   2.672   5.436   9.698 -0.4118  0.3875 -0.2851
   33POPC  H16X 4500   2.636   5.337   9.733 -0.6591  1.9159  3.9827
   33POPC  H16Y 4501   2.585   5.503   9.676 -1.0194 -0.2194  0.2614
   33POPC  H16Z 4502   2.733   5.476   9.781 -0.6171 -0.2749  0.1813
   34POPC     N 4503   1.275   6.185  11.046  1.1783  0.1569 -0.3466
   34POPC   C12 4504   1.406   6.225  10.987 -0.1197 -0.3545 -0.2841
   34POPC  H12A 4505   1.491   6.207  11.052  3.1980  1.7471 -3.8191
   34POPC  H12B 4506   1.402   6.328  10.955  0.7049 -0.2847 -0.1868
   34POPC   C13 4507   1.257   6.248  11.179  0.4842 -0.6274 -0.4150
   34POPC  H13A 4508   1.168   6.207  11.225  0.0373  0.2992 -0.4433
   34POPC  H13B 4509   1.343   6.225  11.241  2.4611 -0.8237 -3.1565
   34POPC  H13C 4510   1.238   6.354  11.180  1.3417 -0.4630 -1.5355
   34POPC   C14 4511   1.168   6.232  10.953  0.2103 -0.5548 -0.2605
   34POPC  H14A 4512   1.205   6.217  10.852  1.3363  0.5667 -0.0263
   34POPC  H14B 4513   1.077   6.174  10.954 -0.2231  0.0967 -0.7370
   34POPC  H14C 4514   1.155   6.338  10.970 -0.7999 -1.0053  1.8963
   34POPC   C15 4515   1.265   6.034  11.076 -0.3470 -0.2218 -0.1328
   34POPC  H15A 4516   1.281   5.988  10.980 -2.1101  1.0726 -1.0799
   34POPC  H15B 4517   1.173   6.004  11.123 -0.9547  0.6833 -0.7344
   34POPC  H15C 4518   1.345   5.996  11.138  0.4091  0.5981 -0.5839
   34POPC   C11 4519   1.467   6.159  10.864  0.6457 -0.1022  0.9227
   34POPC  H11A 4520   1.572   6.192  10.874  0.9993 -0.7446 -0.5624
   34POPC  H11B 4521   1.414   6.205  10.777  2.8473  1.8588  0.5817
   34POPC     P 4522   1.441   5.919  10.734 -0.0290 -0.4643  0.2968
   34POPC   O13 4523   1.303   5.931  10.670  0.3173  0.2871  0.2226
   34POPC   O14 4524   1.489   5.782  10.772 -0.2129  0.4599  0.2392
   34POPC   O12 4525   1.460   6.018  10.851  0.2099  0.1648 -0.1029
   34POPC   O11 4526   1.545   5.973  10.628  0.0032  0.2920 -0.6215
   34POPC    C1 4527   1.511   6.065  10.526 -0.3298  0.0159  0.0442
   34POPC    HA 4528   1.599   6.129  10.504 -0.9201  0.7248 -0.2698
   34POPC    HB 4529   1.432   6.134  10.563  0.9076  0.7547  1.3355
   34POPC    C2 4530   1.474   5.994  10.402 -0.5998  0.3723 -0.3678
   34POPC    HS 4531   1.405   5.920  10.448 -0.2359  0.9747  1.1768
   34POPC   O21 4532   1.592   5.935  10.342  0.2550  0.3690 -0.6357
   34POPC   C21 4533   1.582   5.852  10.233  0.5027 -0.1852  0.1631
   34POPC   O22 4534   1.474   5.798  10.198  0.8218 -0.5177  0.0560
   34POPC   C22 4535   1.722   5.832  10.174  0.4958 -0.3443  0.5183
   34POPC   H2R 4536   1.772   5.755  10.236 -0.0732 -1.9993 -1.0195
   34POPC   H2S 4537   1.780   5.927  10.181  0.1718 -0.2354  1.8210
   34POPC    C3 4538   1.394   6.073  10.296 -0.0931  0.6279 -0.0702
   34POPC    HX 4539   1.328   6.142  10.353 -0.5764  1.2408 -1.3537
   34POPC    HY 4540   1.328   5.995  10.251 -0.3647  0.1365  1.1494
   34POPC   O31 4541   1.478   6.149  10.206 -0.1515 -0.1198 -0.4724
   34POPC   C31 4542   1.518   6.269  10.241  0.8531 -0.1577  0.0711
   34POPC   O32 4543   1.489   6.329  10.345  0.5857  0.1723  0.3115
   34POPC   C32 4544   1.595   6.337  10.128  0.6309  0.1366 -0.6928
   34POPC   H2X 4545   1.701   6.335  10.160  0.5438  0.5655 -0.3717
   34POPC   H2Y 4546   1.571   6.444  10.146  0.1742  0.0688 -0.9022
   34POPC   C23 4547   1.731   5.770  10.027 -0.0371  0.6881 -0.4738
   34POPC   H3R 4548   1.680   5.672  10.021  0.7405  0.3935 -2.6210
   34POPC   H3S 4549   1.835   5.732  10.015 -0.3940 -0.0611 -1.1974
   34POPC   C24 4550   1.678   5.865   9.914  0.3098 -0.1409 -0.2503
   34POPC   H4R 4551   1.715   5.968   9.933 -0.3974  0.3946 -1.7198
   34POPC   H4S 4552   1.569   5.882   9.928  0.0328 -0.7980 -1.4892
   34POPC   C25 4553   1.688   5.814   9.768  0.0915  0.0100 -0.0865
   34POPC   H5R 4554   1.620   5.727   9.756 -0.4121  0.5382 -1.0800
   34POPC   H5S 4555   1.795   5.787   9.752  0.5740  2.5747 -1.4164
   34POPC   C26 4556   1.639   5.919   9.671 -0.5650  0.1209  0.3584
   34POPC   H6R 4557   1.699   6.012   9.673  1.5879 -1.2037 -0.3974
   34POPC   H6S 4558   1.533   5.934   9.702 -0.3098 -2.6568  2.7982
   34POPC   C27 4559   1.649   5.853   9.526  0.4417  0.0571 -0.2936
   34POPC   H7R 4560   1.572   5.773   9.523 -0.4378  0.8833 -0.1514
   34POPC   H7S 4561   1.753   5.818   9.510  0.7965  0.5361  0.9219
   34POPC   C28 4562   1.627   5.946   9.410  0.7749 -0.0074 -0.3497
   34POPC   H8R 4563   1.658   5.904   9.312 -2.6743  0.6483 -1.8098
   34POPC   H8S 4564   1.692   6.030   9.443  2.1565 -0.8921 -0.8011
   34POPC   C29 4565   1.487   6.002   9.402 -0.2201 -0.0879  0.4562
   34POPC   H91 4566   1.466   6.066   9.489  2.0865 -0.0951  1.0614
   34POPC  C210 4567   1.397   5.992   9.306  0.1299 -0.4098  0.2251
   34POPC  H101 4568   1.306   6.053   9.318 -0.5069 -1.6494  1.8227
   34POPC  C211 4569   1.414   5.918   9.181 -0.5739  0.0600 -0.4664
   34POPC  H11R 4570   1.423   5.810   9.204 -0.6084  0.6299  2.3169
   34POPC  H11S 4571   1.507   5.942   9.124 -0.7078 -1.4032 -1.3278
   34POPC  C212 4572   1.307   5.955   9.073 -0.6739 -0.2406 -0.0831
   34POPC  H12R 4573   1.303   6.064   9.049  0.2742 -0.6165 -2.0330
   34POPC  H12S 4574   1.206   5.928   9.109 -0.3897  0.6558  1.4128
   34POPC  C213 4575   1.331   5.882   8.938  0.0892  0.6333  0.5090
   34POPC  H13R 4576   1.354   5.774   8.944 -1.0824  0.4070  1.1124
   34POPC  H13S 4577   1.417   5.928   8.885 -1.6654  0.3614 -2.6612
   34POPC  C214 4578   1.207   5.903   8.849 -1.1031  0.3036  0.2804
   34POPC  H14R 4579   1.181   6.011   8.852 -0.6670  0.4153  0.0469
   34POPC  H14S 4580   1.121   5.845   8.888 -0.7686  0.5325  1.3782
   34POPC  C215 4581   1.228   5.891   8.697  0.4363 -0.6223  0.8046
   34POPC  H15R 4582   1.310   5.957   8.660 -0.8450  0.6585  0.1770
   34POPC  H15S 4583   1.134   5.939   8.661  1.8023  1.3972 -0.1870
   34POPC  C216 4584   1.223   5.748   8.646  0.3467 -0.0042 -0.5185
   34POPC  H16R 4585   1.155   5.685   8.707  0.4564 -0.0560 -0.4505
   34POPC  H16S 4586   1.318   5.697   8.671  0.9928  0.7142 -1.4812
   34POPC  C217 4587   1.188   5.737   8.500  0.2400  0.3435  0.2457
   34POPC  H17R 4588   1.267   5.781   8.435  1.0280  0.7373  1.4735
   34POPC  H17S 4589   1.093   5.793   8.482 -0.5394 -1.7126 -2.3999
   34POPC  C218 4590   1.184   5.595   8.447 -0.0916 -0.3324 -0.0433
   34POPC  H18R 4591   1.167   5.601   8.338 -0.1607 -1.1532 -0.0852
   34POPC  H18S 4592   1.101   5.543   8.499  1.1517  0.2804  2.6808
   34POPC  H18T 4593   1.284   5.551   8.471 -0.3740 -1.2029 -0.4371
   34POPC   C33 4594   1.561   6.292   9.987 -0.8116  0.8162 -0.2848
   34POPC   H3X 4595   1.450   6.289   9.980 -0.7257 -0.2600 -1.3763
   34POPC   H3Y 4596   1.598   6.188   9.975 -0.6081  0.9722 -1.0458
   34POPC   C34 4597   1.636   6.377   9.888 -0.4896 -0.1373  0.3054
   34POPC   H4X 4598   1.747   6.367   9.886 -0.4663  0.1971 -1.1933
   34POPC   H4Y 4599   1.612   6.483   9.910  0.4634 -0.3057  2.2756
   34POPC   C35 4600   1.591   6.330   9.745  0.5020  0.1793  0.7775
   34POPC   H5X 4601   1.482   6.348   9.734 -0.0837 -2.6783  1.5209
   34POPC   H5Y 4602   1.616   6.222   9.741 -0.6773 -0.1976  2.7590
   34POPC   C36 4603   1.674   6.391   9.628  0.5240 -0.6178 -0.8350
   34POPC   H6X 4604   1.782   6.365   9.632  0.5026 -0.5601  0.3823
   34POPC   H6Y 4605   1.669   6.502   9.639  2.7594 -0.7451  2.1789
   34POPC   C37 4606   1.625   6.332   9.488 -0.7208 -0.7375  0.1227
   34POPC   H7X 4607   1.514   6.328   9.487 -0.9129  2.1743  1.9814
   34POPC   H7Y 4608   1.659   6.227   9.475  0.2721  0.0277 -4.1608
   34POPC   C38 4609   1.678   6.414   9.379 -0.6336  0.0331 -0.0235
   34POPC   H8X 4610   1.788   6.427   9.388 -0.7170  1.0725 -0.4624
   34POPC   H8Y 4611   1.627   6.512   9.385  0.8338  0.8069  0.0360
   34POPC   C39 4612   1.635   6.361   9.240 -0.0841 -0.2694  0.3957
   34POPC   H9X 4613   1.649   6.445   9.168 -2.6805  0.3891  0.5909
   34POPC   H9Y 4614   1.530   6.326   9.246 -0.7267  1.5033 -0.2403
   34POPC  C310 4615   1.717   6.250   9.178  0.5687  0.0226  0.3657
   34POPC  H10X 4616   1.696   6.164   9.245  1.5360 -1.9211 -1.7319
   34POPC  H10Y 4617   1.823   6.281   9.179  0.2472  1.1639 -0.6880
   34POPC  C311 4618   1.690   6.200   9.042 -0.7693 -0.3686 -0.0327
   34POPC  H11X 4619   1.585   6.171   9.020 -1.5287  2.8041 -0.8673
   34POPC  H11Y 4620   1.739   6.101   9.040  0.4524  0.2242  0.3279
   34POPC  C312 4621   1.737   6.293   8.927 -0.3753 -0.1790 -0.4718
   34POPC  H12X 4622   1.845   6.316   8.936 -0.6827  0.0117  3.9164
   34POPC  H12Y 4623   1.687   6.391   8.916  1.2330  0.3877 -3.1334
   34POPC  C313 4624   1.716   6.238   8.789 -0.0835  0.0683 -0.5220
   34POPC  H13X 4625   1.758   6.135   8.786  1.7017  0.7495  0.0687
   34POPC  H13Y 4626   1.767   6.305   8.717  1.4135 -1.1259 -0.6067
   34POPC  C314 4627   1.567   6.208   8.740  0.1951 -0.3225 -0.1435
   34POPC  H14X 4628   1.518   6.307   8.754 -0.8975 -0.6009 -1.9247
   34POPC  H14Y 4629   1.508   6.133   8.797  0.6237  0.3985  1.2893
   34POPC  C315 4630   1.584   6.177   8.590  0.1379 -0.0721  0.3343
   34POPC  H15X 4631   1.631   6.077   8.578 -0.7019 -0.2305 -2.0244
   34POPC  H15Y 4632   1.672   6.228   8.546  0.6714  0.2409  1.7632
   34POPC  C316 4633   1.464   6.183   8.497 -0.2450 -0.9471  1.1053
   34POPC  H16X 4634   1.372   6.135   8.536 -0.0018 -0.4623  2.2974
   34POPC  H16Y 4635   1.496   6.146   8.397  0.0085 -0.4472  0.9974
   34POPC  H16Z 4636   1.430   6.289   8.486 -0.3645 -1.0537  0.3913
   35POPC     N 4637   1.317   3.210  11.363 -0.3790  0.0592  0.0620
   35POPC   C12 4638   1.263   3.153  11.232 -0.0383  0.1917 -0.6267
   35POPC  H12A 4639   1.345   3.139  11.163 -1.0954 -0.6946 -1.7399
   35POPC  H12B 4640   1.204   3.233  11.189 -2.2165 -1.1721 -0.2843
   35POPC   C13 4641   1.408   3.321  11.332  0.3828  0.3596  0.0853
   35POPC  H13A 4642   1.486   3.278  11.270  0.0809  0.1705 -0.1622
   35POPC  H13B 4643   1.376   3.412  11.283  0.7712  0.6441  0.3522
   35POPC  H13C 4644   1.466   3.350  11.419 -0.7568  1.4187  0.5080
   35POPC   C14 4645   1.201   3.253  11.443 -0.0698  0.1292 -0.3547
   35POPC  H14A 4646   1.230   3.301  11.536  0.6520 -0.5127 -0.2448
   35POPC  H14B 4647   1.143   3.328  11.390  0.1960 -1.4417 -2.9532
   35POPC  H14C 4648   1.134   3.172  11.466  1.8388 -1.2542  0.4321
   35POPC   C15 4649   1.393   3.107  11.432 -0.3474  0.0559 -0.7870
   35POPC  H15A 4650   1.469   3.071  11.365 -1.2072 -1.8741 -0.7767
   35POPC  H15B 4651   1.328   3.021  11.447 -0.1111  0.1509  0.8340
   35POPC  H15C 4652   1.443   3.120  11.526  0.9427 -1.9982 -1.1496
   35POPC   C11 4653   1.172   3.028  11.239 -0.2275  0.9472  0.1396
   35POPC  H11A 4654   1.227   2.941  11.283 -1.1465  0.4238  0.2650
   35POPC  H11B 4655   1.151   3.001  11.133  0.4938 -0.0388  0.2350
   35POPC     P 4656   0.926   2.941  11.249  0.3010 -0.0681 -0.2781
   35POPC   O13 4657   0.798   2.991  11.307 -0.2719  0.2800  0.6638
   35POPC   O14 4658   0.962   2.801  11.292 -0.4071  0.3815  0.0440
   35POPC   O12 4659   1.042   3.045  11.295 -0.7944  0.0711 -0.2893
   35POPC   O11 4660   0.920   2.947  11.096 -0.2381 -0.6161  0.0656
   35POPC    C1 4661   0.905   3.081  11.041 -0.3680 -0.6701 -0.4309
   35POPC    HA 4662   0.981   3.149  11.084 -1.2123  0.2182 -0.3197
   35POPC    HB 4663   0.810   3.129  11.074 -0.5512 -1.0951 -0.3284
   35POPC    C2 4664   0.909   3.079  10.893  0.8835  0.0713 -0.5651
   35POPC    HS 4665   0.827   3.014  10.855  0.6276  0.0049  0.0976
   35POPC   O21 4666   1.041   3.036  10.850  0.4528 -0.3618  0.2815
   35POPC   C21 4667   1.046   2.913  10.792 -0.6177 -0.0420 -0.3704
   35POPC   O22 4668   0.951   2.842  10.777  0.1919 -0.0980  0.1697
   35POPC   C22 4669   1.186   2.895  10.736  0.3233  0.3810  0.3816
   35POPC   H2R 4670   1.246   2.911  10.828  2.1686  2.8423 -1.2016
   35POPC   H2S 4671   1.208   2.976  10.663  0.3872 -0.5502 -0.6473
   35POPC    C3 4672   0.887   3.226  10.841  0.0049  0.0216 -0.0682
   35POPC    HX 4673   0.953   3.288  10.907  2.4574 -2.0109 -0.5623
   35POPC    HY 4674   0.787   3.261  10.874  0.6758  1.1749  0.7861
   35POPC   O31 4675   0.906   3.237  10.692 -0.1964 -0.7807  0.0613
   35POPC   C31 4676   0.873   3.357  10.642 -0.3942 -0.0156 -0.4096
   35POPC   O32 4677   0.835   3.449  10.714  0.1281  0.2699  0.5453
   35POPC   C32 4678   0.902   3.367  10.491 -0.1445 -0.3299 -0.0190
   35POPC   H2X 4679   0.937   3.269  10.453 -0.1076 -0.3530  0.0755
   35POPC   H2Y 4680   0.984   3.441  10.481  0.5078 -0.8925  1.1555
   35POPC   C23 4681   1.209   2.763  10.663 -0.0137  0.3296 -0.5375
   35POPC   H3R 4682   1.136   2.686  10.697 -0.2134 -0.2858 -2.3183
   35POPC   H3S 4683   1.312   2.728  10.684 -0.0689 -0.2213 -1.1575
   35POPC   C24 4684   1.181   2.769  10.511 -1.0213 -0.1301  0.4419
   35POPC   H4R 4685   1.238   2.845  10.453  2.7300 -1.3253  2.4223
   35POPC   H4S 4686   1.073   2.793  10.499 -0.6179  0.0305 -3.3694
   35POPC   C25 4687   1.216   2.641  10.435  0.5644  0.0395  0.1043
   35POPC   H5R 4688   1.141   2.564  10.463 -0.5583 -0.2166 -3.3435
   35POPC   H5S 4689   1.322   2.608  10.441  0.0809 -1.6718 -0.4664
   35POPC   C26 4690   1.197   2.663  10.281  0.0869  0.3126 -0.0009
   35POPC   H6R 4691   1.287   2.718  10.245  1.7453 -2.9282 -1.0131
   35POPC   H6S 4692   1.107   2.725  10.263  1.0002  2.6552  2.9651
   35POPC   C27 4693   1.194   2.536  10.199  0.3320 -0.5292  0.9454
   35POPC   H7R 4694   1.104   2.479  10.231  0.7331  0.5828  4.3059
   35POPC   H7S 4695   1.289   2.492  10.236  1.3822 -0.1286 -1.1806
   35POPC   C28 4696   1.210   2.549  10.050  0.4919  0.2086  0.5220
   35POPC   H8R 4697   1.199   2.446  10.011 -0.1012  1.1035 -1.7794
   35POPC   H8S 4698   1.310   2.589  10.024  1.2640 -0.9179  1.6746
   35POPC   C29 4699   1.094   2.631  10.004  0.5934 -0.3289  0.2805
   35POPC   H91 4700   1.005   2.624  10.068  1.5238  1.5402  1.8001
   35POPC  C210 4701   1.095   2.736   9.915  0.2091 -0.4209  0.2862
   35POPC  H101 4702   0.993   2.778   9.907 -0.3645 -2.1654 -2.0990
   35POPC  C211 4703   1.208   2.785   9.828  0.0675  0.5408  0.3534
   35POPC  H11R 4704   1.307   2.777   9.878  0.7794  0.8345 -0.9798
   35POPC  H11S 4705   1.202   2.891   9.797 -0.5808  0.3031 -0.3400
   35POPC  C212 4706   1.216   2.702   9.696  1.0873 -0.4298  0.1579
   35POPC  H12R 4707   1.246   2.598   9.723  1.3115 -0.4901 -0.3224
   35POPC  H12S 4708   1.308   2.731   9.643  0.6415  1.0769  0.2010
   35POPC  C213 4709   1.095   2.714   9.608  0.0901 -0.2149 -0.1679
   35POPC  H13R 4710   1.055   2.817   9.600 -0.5386 -0.4187  0.3040
   35POPC  H13S 4711   1.017   2.649   9.654  1.9904 -1.8788  0.7995
   35POPC  C214 4712   1.121   2.671   9.459  0.0630  0.1422 -0.0982
   35POPC  H14R 4713   1.144   2.562   9.465 -2.9081 -0.6336 -1.4955
   35POPC  H14S 4714   1.217   2.716   9.429 -0.3785  0.9792 -0.2587
   35POPC  C215 4715   1.009   2.704   9.365  0.4272  0.4519  1.0435
   35POPC  H15R 4716   1.023   2.812   9.342  0.3628  0.6731  2.0323
   35POPC  H15S 4717   0.918   2.698   9.427  0.1319  0.7670  0.6444
   35POPC  C216 4718   1.013   2.610   9.248  0.8100  0.2228 -0.3487
   35POPC  H16R 4719   0.918   2.616   9.192  0.8521 -0.5140 -0.5084
   35POPC  H16S 4720   1.025   2.509   9.294  1.9689 -0.7105 -2.5932
   35POPC  C217 4721   1.135   2.627   9.152  0.6382  0.1106  0.5674
   35POPC  H17R 4722   1.231   2.627   9.207 -0.0042  1.9262  1.7288
   35POPC  H17S 4723   1.125   2.726   9.102 -2.7630 -0.0697  0.7523
   35POPC  C218 4724   1.132   2.525   9.037 -0.2844 -0.2304  0.3565
   35POPC  H18R 4725   1.027   2.514   9.004 -0.0725  0.1676 -0.4758
   35POPC  H18S 4726   1.154   2.421   9.069  1.5606 -0.5179 -1.6910
   35POPC  H18T 4727   1.193   2.544   8.946  0.2494  1.1042  0.9819
   35POPC   C33 4728   0.785   3.428  10.405  0.7234 -0.5262 -0.3133
   35POPC   H3X 4729   0.796   3.535  10.435  0.6634 -0.5765 -0.1152
   35POPC   H3Y 4730   0.687   3.388  10.439 -0.4875 -0.3110 -3.4137
   35POPC   C34 4731   0.813   3.418  10.258 -0.2654  0.5835 -0.6863
   35POPC   H4X 4732   0.793   3.312  10.230  1.3344 -0.2490  1.2074
   35POPC   H4Y 4733   0.918   3.449  10.240 -0.0201  0.2549  0.1528
   35POPC   C35 4734   0.701   3.487  10.183 -0.7116 -0.4303  0.8733
   35POPC   H5X 4735   0.707   3.597  10.196  0.1355 -0.5723  1.6269
   35POPC   H5Y 4736   0.604   3.450  10.224 -1.3457 -0.9043 -0.9848
   35POPC   C36 4737   0.710   3.462  10.029 -0.5297  0.1690  0.7678
   35POPC   H6X 4738   0.609   3.490   9.993  0.7269  0.6473 -2.5418
   35POPC   H6Y 4739   0.738   3.360   9.994  1.3774  1.1815 -0.7514
   35POPC   C37 4740   0.809   3.556   9.966 -0.1472  0.6878 -0.4476
   35POPC   H7X 4741   0.905   3.542  10.020  0.7359  0.4910 -2.0403
   35POPC   H7Y 4742   0.774   3.659   9.990  1.6984  0.5740  3.0952
   35POPC   C38 4743   0.830   3.537   9.816  0.2685  0.3438 -0.0105
   35POPC   H8X 4744   0.873   3.436   9.797 -0.5728  0.5510 -3.3739
   35POPC   H8Y 4745   0.908   3.614   9.798  1.5475 -0.4492  1.9209
   35POPC   C39 4746   0.696   3.542   9.734 -0.0945  0.4201  0.2301
   35POPC   H9X 4747   0.699   3.642   9.686 -0.8816  1.0805  1.5397
   35POPC   H9Y 4748   0.602   3.533   9.793 -0.3608  0.6169 -0.1579
   35POPC  C310 4749   0.681   3.436   9.620  0.3812  0.3217  0.7676
   35POPC  H10X 4750   0.588   3.456   9.563  1.9431  1.5604 -1.4096
   35POPC  H10Y 4751   0.661   3.332   9.656  2.4915  0.0525  1.2245
   35POPC  C311 4752   0.794   3.430   9.515 -0.1259  0.3868 -0.0901
   35POPC  H11X 4753   0.801   3.326   9.478 -1.3129 -0.0112  0.7604
   35POPC  H11Y 4754   0.889   3.449   9.570  0.0364  2.0368 -0.9213
   35POPC  C312 4755   0.767   3.537   9.411  0.2544 -0.1353 -0.0574
   35POPC  H12X 4756   0.741   3.629   9.467 -0.3672  1.3272 -2.6580
   35POPC  H12Y 4757   0.671   3.504   9.364 -1.3132  1.4659  1.9042
   35POPC  C313 4758   0.875   3.550   9.308 -1.4030 -0.0849  0.2668
   35POPC  H13X 4759   0.884   3.456   9.249 -0.7225 -0.6564  1.2901
   35POPC  H13Y 4760   0.970   3.577   9.359 -0.7117 -1.8297 -0.0563
   35POPC  C314 4761   0.849   3.663   9.207  0.7248  0.0651  0.8435
   35POPC  H14X 4762   0.834   3.762   9.255 -0.9228  0.8137 -1.1232
   35POPC  H14Y 4763   0.759   3.640   9.147 -0.9929  2.1284  2.5618
   35POPC  C315 4764   0.960   3.674   9.093  0.5537  0.5169 -0.4396
   35POPC  H15X 4765   1.008   3.577   9.068  0.5230  0.3316  0.2312
   35POPC  H15Y 4766   1.043   3.731   9.139  2.2367 -3.5510  1.8515
   35POPC  C316 4767   0.904   3.736   8.961  0.3108 -0.7719 -0.0815
   35POPC  H16X 4768   0.996   3.778   8.915  0.7691 -1.1227  0.5105
   35POPC  H16Y 4769   0.854   3.832   8.985  1.0072 -0.7368  1.2571
   35POPC  H16Z 4770   0.841   3.678   8.890 -0.9991 -1.4636  1.5986
   36POPC     N 4771   1.536   1.882  10.880  0.0406  0.3965 -0.6523
   36POPC   C12 4772   1.438   1.989  10.924 -0.4626  0.1419  0.5577
   36POPC  H12A 4773   1.373   2.024  10.845  0.7784 -0.3967 -0.7233
   36POPC  H12B 4774   1.505   2.068  10.955  2.4836 -1.4092 -1.5804
   36POPC   C13 4775   1.631   1.934  10.781  0.1166 -0.1013 -0.0661
   36POPC  H13A 4776   1.704   1.998  10.828  1.6168 -0.3446 -1.9897
   36POPC  H13B 4777   1.682   1.849  10.737  0.3179  2.0896 -4.3372
   36POPC  H13C 4778   1.575   1.981  10.702  1.7660  0.4203 -0.9458
   36POPC   C14 4779   1.616   1.829  10.999  0.2222 -0.2239 -0.3043
   36POPC  H14A 4780   1.541   1.821  11.075 -0.8226 -0.2207 -1.3221
   36POPC  H14B 4781   1.672   1.737  10.992  0.2201 -0.2133 -0.4572
   36POPC  H14C 4782   1.685   1.904  11.036 -1.2775  2.1095 -2.0954
   36POPC   C15 4783   1.458   1.766  10.823 -0.0554  0.1840  0.7648
   36POPC  H15A 4784   1.533   1.691  10.800  1.5693  1.6379  1.1658
   36POPC  H15B 4785   1.392   1.794  10.743 -0.7180 -0.6206  1.0314
   36POPC  H15C 4786   1.400   1.716  10.900  0.0702 -1.8560 -0.4334
   36POPC   C11 4787   1.329   1.967  11.033 -0.4984  0.0567  0.4207
   36POPC  H11A 4788   1.327   2.061  11.094 -2.5814  1.0927 -1.1742
   36POPC  H11B 4789   1.369   1.885  11.097  1.0304 -0.7651 -1.5496
   36POPC     P 4790   1.111   1.827  11.032 -0.0496 -0.0156  0.2609
   36POPC   O13 4791   1.061   1.851  11.170 -0.0592 -0.5740  0.3102
   36POPC   O14 4792   1.190   1.702  11.016 -0.3044  0.0054  0.0416
   36POPC   O12 4793   1.200   1.950  10.976  0.2088  0.0960 -0.0935
   36POPC   O11 4794   0.987   1.817  10.934 -0.3699  0.7242  0.4492
   36POPC    C1 4795   1.024   1.809  10.792 -0.4105  0.0369  0.7452
   36POPC    HA 4796   1.132   1.812  10.768 -0.4734  0.4977  0.5175
   36POPC    HB 4797   0.974   1.898  10.749 -1.3392 -1.3616 -1.1608
   36POPC    C2 4798   0.966   1.676  10.730  0.2280 -0.3473 -0.4069
   36POPC    HS 4799   0.976   1.579  10.784  2.9994  0.0784 -0.0713
   36POPC   O21 4800   1.040   1.656  10.607  0.3053 -0.1713  0.0694
   36POPC   C21 4801   1.155   1.586  10.604  0.2620 -0.4533  0.4000
   36POPC   O22 4802   1.214   1.542  10.701 -0.2388 -0.4731 -0.1989
   36POPC   C22 4803   1.202   1.565  10.460 -0.2358  0.0601  0.9066
   36POPC   H2R 4804   1.184   1.650  10.391  0.3727 -0.7913 -0.3137
   36POPC   H2S 4805   1.148   1.478  10.418  0.3088 -0.2047  0.7474
   36POPC    C3 4806   0.815   1.684  10.710 -0.7638 -0.2700  0.2217
   36POPC    HX 4807   0.765   1.705  10.807  1.8814  0.3842  1.4969
   36POPC    HY 4808   0.784   1.589  10.662 -0.1088  0.1401 -1.0535
   36POPC   O31 4809   0.768   1.798  10.630 -0.3997 -0.2453  0.4833
   36POPC   C31 4810   0.752   1.775  10.502 -0.0015  0.4737 -0.4219
   36POPC   O32 4811   0.790   1.673  10.445 -0.1692 -0.8006 -0.4573
   36POPC   C32 4812   0.696   1.903  10.443  0.4119  0.5025 -0.5580
   36POPC   H2X 4813   0.783   1.972  10.439  1.1283 -0.4715 -2.3358
   36POPC   H2Y 4814   0.620   1.946  10.511  1.6380  1.4697  0.2176
   36POPC   C23 4815   1.357   1.531  10.448  0.7368 -0.0050 -0.1012
   36POPC   H3R 4816   1.387   1.447  10.514  1.9421 -0.2521 -0.9378
   36POPC   H3S 4817   1.419   1.615  10.484 -1.3630  0.9303  1.4266
   36POPC   C24 4818   1.394   1.496  10.297  0.0384 -0.4419  0.0475
   36POPC   H4R 4819   1.390   1.593  10.243 -0.6467  0.0976  1.0434
   36POPC   H4S 4820   1.310   1.439  10.252 -1.0691 -0.0963  1.6220
   36POPC   C25 4821   1.529   1.431  10.298  0.1748 -0.2342 -0.2830
   36POPC   H5R 4822   1.529   1.361  10.383  2.1819 -0.8647 -0.7856
   36POPC   H5S 4823   1.610   1.504  10.323  0.3948 -0.1015 -1.3569
   36POPC   C26 4824   1.568   1.367  10.163 -0.7420 -0.0933 -0.0262
   36POPC   H6R 4825   1.504   1.276  10.163 -1.2770  0.2819 -0.2616
   36POPC   H6S 4826   1.675   1.338  10.164 -0.3973  1.1661  1.0591
   36POPC   C27 4827   1.532   1.449  10.037  0.0998 -0.8218  0.2073
   36POPC   H7R 4828   1.567   1.554  10.043  0.4288 -0.9181 -0.0504
   36POPC   H7S 4829   1.421   1.444  10.037  0.0521 -0.1024 -1.4121
   36POPC   C28 4830   1.589   1.386   9.911  0.0525 -0.2777 -0.3670
   36POPC   H8R 4831   1.685   1.338   9.938 -0.0168 -0.9519 -1.2878
   36POPC   H8S 4832   1.612   1.469   9.841 -0.1729 -0.4683 -0.6704
   36POPC   C29 4833   1.503   1.283   9.840 -0.6381 -0.0043  0.3856
   36POPC   H91 4834   1.473   1.204   9.910  1.9875 -0.5020  1.0335
   36POPC  C210 4835   1.461   1.270   9.712 -0.3979 -0.0263  0.0338
   36POPC  H101 4836   1.393   1.187   9.688 -0.7638  1.0940 -2.9655
   36POPC  C211 4837   1.499   1.363   9.596  0.1161 -0.4783  0.6958
   36POPC  H11R 4838   1.595   1.409   9.627 -0.1786  1.5252 -1.2722
   36POPC  H11S 4839   1.431   1.450   9.581  3.1624  2.0267  0.8314
   36POPC  C212 4840   1.511   1.283   9.467  0.2582 -0.4578 -0.4738
   36POPC  H12R 4841   1.418   1.228   9.445  1.2476 -1.8286 -1.3292
   36POPC  H12S 4842   1.591   1.206   9.479 -0.6805 -1.5319 -1.0480
   36POPC  C213 4843   1.555   1.373   9.351  0.2264 -0.1712 -0.0613
   36POPC  H13R 4844   1.664   1.389   9.361 -0.2235  2.6790  0.7990
   36POPC  H13S 4845   1.507   1.473   9.358 -1.6572 -0.8375 -2.5122
   36POPC  C214 4846   1.515   1.325   9.207  0.1653 -0.9746  0.4017
   36POPC  H14R 4847   1.407   1.300   9.199 -0.6187  2.3968 -0.4170
   36POPC  H14S 4848   1.579   1.238   9.179  1.6611 -0.2720  1.5942
   36POPC  C215 4849   1.543   1.435   9.096 -0.5263 -0.2278 -0.6469
   36POPC  H15R 4850   1.650   1.462   9.098 -1.1154  2.5979 -3.2301
   36POPC  H15S 4851   1.486   1.527   9.123  0.7539  0.2479  0.4649
   36POPC  C216 4852   1.501   1.393   8.957 -0.0420 -0.6921  0.4795
   36POPC  H16R 4853   1.390   1.384   8.949  0.0596 -0.7174 -1.1902
   36POPC  H16S 4854   1.549   1.294   8.942  0.8402 -0.8047  3.7659
   36POPC  C217 4855   1.538   1.483   8.837 -0.1142 -0.4367  0.2148
   36POPC  H17R 4856   1.636   1.534   8.846 -1.3115  1.8954  0.4276
   36POPC  H17S 4857   1.459   1.561   8.829 -0.4865 -0.6690  1.5438
   36POPC  C218 4858   1.546   1.403   8.708  0.1656 -0.0139 -0.1493
   36POPC  H18R 4859   1.456   1.340   8.687  0.0125  0.0191  0.3811
   36POPC  H18S 4860   1.631   1.332   8.707 -0.1106 -0.3766  0.8317
   36POPC  H18T 4861   1.545   1.464   8.616  3.1998  0.2617 -0.0406
   36POPC   C33 4862   0.655   1.879  10.296 -0.1987 -0.2891 -0.0581
   36POPC   H3X 4863   0.569   1.809  10.298 -0.1413 -0.3393  1.4597
   36POPC   H3Y 4864   0.733   1.819  10.244 -0.9391 -1.1941 -0.1342
   36POPC   C34 4865   0.631   2.007  10.225  0.6982 -0.2602  0.1080
   36POPC   H4X 4866   0.725   2.063  10.204 -0.0342  1.5775  1.5867
   36POPC   H4Y 4867   0.569   2.068  10.294  0.7368 -0.7298  0.5624
   36POPC   C35 4868   0.545   1.981  10.098 -0.2166 -0.4037  0.4816
   36POPC   H5X 4869   0.505   2.082  10.074 -0.1368 -0.3435  0.6045
   36POPC   H5Y 4870   0.477   1.894  10.113 -0.2289 -0.4598  0.0979
   36POPC   C36 4871   0.634   1.949   9.977  0.4979 -0.6444  0.3488
   36POPC   H6X 4872   0.677   1.847   9.988  2.0531 -0.0880 -0.5696
   36POPC   H6Y 4873   0.716   2.024   9.975  1.4049 -1.6508 -1.0027
   36POPC   C37 4874   0.550   1.955   9.853  0.0168 -0.4945 -0.3163
   36POPC   H7X 4875   0.508   2.057   9.838 -0.6588 -0.7523 -0.2196
   36POPC   H7Y 4876   0.469   1.879   9.850  0.6144 -1.1168 -0.7402
   36POPC   C38 4877   0.631   1.954   9.721 -0.5088  0.4766  0.7914
   36POPC   H8X 4878   0.685   1.858   9.708  2.7140  2.2696  0.5059
   36POPC   H8Y 4879   0.701   2.040   9.715  0.9348 -0.7684 -0.6618
   36POPC   C39 4880   0.543   1.961   9.590 -0.6038 -0.1939 -0.8190
   36POPC   H9X 4881   0.494   2.060   9.585 -2.4796 -1.1108 -1.2682
   36POPC   H9Y 4882   0.463   1.883   9.587  0.8655 -1.6914 -1.9626
   36POPC  C310 4883   0.630   1.934   9.464  0.7544  0.5901 -0.4708
   36POPC  H10X 4884   0.676   1.835   9.485 -1.5141 -0.2029  0.9149
   36POPC  H10Y 4885   0.702   2.017   9.451 -2.1645  3.3406  0.1708
   36POPC  C311 4886   0.555   1.924   9.331  0.1233 -0.2065  0.1454
   36POPC  H11X 4887   0.499   2.017   9.309 -0.0204 -0.2185  0.4492
   36POPC  H11Y 4888   0.473   1.849   9.330  0.1660 -0.2319 -1.6840
   36POPC  C312 4889   0.648   1.893   9.222 -0.1745 -0.3416  0.3831
   36POPC  H12X 4890   0.698   1.800   9.257  0.2741 -0.2581 -0.0304
   36POPC  H12Y 4891   0.724   1.974   9.225 -0.5956  0.1018 -0.6954
   36POPC  C313 4892   0.598   1.876   9.079 -0.9371  0.1424  0.0873
   36POPC  H13X 4893   0.533   1.959   9.045 -1.9313 -1.1979 -1.3380
   36POPC  H13Y 4894   0.537   1.784   9.071 -1.3539  0.5198 -1.3133
   36POPC  C314 4895   0.719   1.872   8.980 -0.3098 -0.3098 -0.1744
   36POPC  H14X 4896   0.784   1.790   9.018  0.0410 -0.8557 -1.9150
   36POPC  H14Y 4897   0.777   1.966   8.994 -0.5774  0.0303 -1.3540
   36POPC  C315 4898   0.685   1.852   8.831  0.2593 -0.1162  1.0636
   36POPC  H15X 4899   0.644   1.949   8.798 -0.8771 -0.8536  0.3138
   36POPC  H15Y 4900   0.602   1.780   8.820  0.3653  0.0099 -0.6030
   36POPC  C316 4901   0.806   1.814   8.756 -0.2298  0.0299  0.4446
   36POPC  H16X 4902   0.853   1.906   8.716 -0.4627 -0.5801 -1.2566
   36POPC  H16Y 4903   0.793   1.742   8.673  0.4514 -0.7713  1.0183
   36POPC  H16Z 4904   0.887   1.770   8.817  1.7189  1.3945 -1.1165
   37POPC     N 4905   6.451   4.765   6.546 -0.0452  0.3593  0.2700
   37POPC   C12 4906   6.362   4.844   6.649  0.2616 -0.0167  0.4290
   37POPC  H12A 4907   6.344   4.944   6.613  0.4959  0.2042  0.9319
   37POPC  H12B 4908   6.425   4.876   6.730 -0.0594 -0.0487  0.6903
   37POPC   C13 4909   6.574   4.836   6.559  0.1767  0.3791 -0.0580
   37POPC  H13A 4910   6.616   4.817   6.657 -0.1020 -2.1897 -0.3969
   37POPC  H13B 4911   6.649   4.814   6.484 -0.5631  0.8480 -0.9333
   37POPC  H13C 4912   6.551   4.940   6.545 -2.8644 -0.5850 -2.8071
   37POPC   C14 4913   6.478   4.629   6.610 -0.0594 -0.7247  0.2847
   37POPC  H14A 4914   6.383   4.580   6.597  0.8021 -2.5041  0.5203
   37POPC  H14B 4915   6.550   4.571   6.554  1.1077 -0.3154  1.3468
   37POPC  H14C 4916   6.504   4.637   6.714 -0.6502  0.1699  0.3672
   37POPC   C15 4917   6.387   4.767   6.412  0.0053  0.2321  0.1640
   37POPC  H15A 4918   6.385   4.866   6.370  1.0366  0.7874  1.4003
   37POPC  H15B 4919   6.284   4.735   6.404 -0.3598  1.4343 -0.1396
   37POPC  H15C 4920   6.441   4.713   6.336  0.1021  1.2436 -0.4891
   37POPC   C11 4921   6.220   4.797   6.686  0.6802 -0.3967 -0.2763
   37POPC  H11A 4922   6.178   4.865   6.763  1.5654  0.8883 -0.9277
   37POPC  H11B 4923   6.227   4.695   6.731 -1.5883  0.1334  1.3726
   37POPC     P 4924   6.089   4.934   6.507  0.5113 -0.2423 -0.4026
   37POPC   O13 4925   6.050   4.911   6.369  0.0052  0.0955  0.1391
   37POPC   O14 4926   6.186   5.040   6.531 -0.6262  0.0516  0.3262
   37POPC   O12 4927   6.136   4.795   6.570 -0.2157 -0.3070 -0.4536
   37POPC   O11 4928   5.954   4.970   6.581  0.0352  0.1591  0.2996
   37POPC    C1 4929   5.890   4.888   6.674 -0.3002  0.1474 -0.4480
   37POPC    HA 4930   5.935   4.787   6.689  1.0314  0.6255 -1.1387
   37POPC    HB 4931   5.788   4.872   6.634  0.5038  0.1388 -2.5531
   37POPC    C2 4932   5.865   4.954   6.807  0.5651  0.8428  0.3415
   37POPC    HS 4933   5.830   5.058   6.787  0.3708  0.3379 -2.0454
   37POPC   O21 4934   5.983   4.944   6.888  0.0849 -0.2074 -0.1154
   37POPC   C21 4935   6.015   5.051   6.950  0.1401 -0.1654  0.0123
   37POPC   O22 4936   5.956   5.157   6.953 -0.2543 -0.7133 -0.6387
   37POPC   C22 4937   6.145   5.030   7.023 -0.7087  0.0156 -0.2570
   37POPC   H2R 4938   6.222   5.010   6.946 -2.2829 -0.5997 -1.6947
   37POPC   H2S 4939   6.154   4.936   7.081 -1.2735 -1.7322 -2.9173
   37POPC    C3 4940   5.740   4.884   6.874 -0.3063  0.3109 -0.0366
   37POPC    HX 4941   5.768   4.777   6.867  0.3980  0.5420 -0.8218
   37POPC    HY 4942   5.648   4.884   6.812  0.5133  1.6123 -1.2915
   37POPC   O31 4943   5.723   4.924   7.011  0.1122 -0.5477  0.3905
   37POPC   C31 4944   5.629   5.023   7.023 -0.0546 -0.2225 -0.0165
   37POPC   O32 4945   5.574   5.073   6.925 -0.3394  0.4690 -0.8092
   37POPC   C32 4946   5.603   5.044   7.171 -0.1981  0.6842  0.2412
   37POPC   H2X 4947   5.557   4.960   7.226 -2.1125  2.0554  0.7852
   37POPC   H2Y 4948   5.523   5.121   7.174  0.2721  1.4774 -4.1769
   37POPC   C23 4949   6.185   5.146   7.118  0.4991 -0.1863 -0.4980
   37POPC   H3R 4950   6.157   5.245   7.076  0.3397  0.0784  0.2118
   37POPC   H3S 4951   6.296   5.140   7.113  0.6508  2.4855 -0.7300
   37POPC   C24 4952   6.159   5.145   7.273  0.4282 -0.1913  0.4622
   37POPC   H4R 4953   6.062   5.103   7.307  0.8352 -2.5713 -1.1475
   37POPC   H4S 4954   6.155   5.244   7.321 -3.0598 -1.0169  2.0489
   37POPC   C25 4955   6.271   5.072   7.339  0.0784 -0.1971  0.4279
   37POPC   H5R 4956   6.373   5.114   7.331  0.5105 -0.6747  2.8131
   37POPC   H5S 4957   6.267   4.966   7.309  0.8764 -0.0470 -0.2029
   37POPC   C26 4958   6.254   5.077   7.500  0.4642  0.5283  0.1303
   37POPC   H6R 4959   6.154   5.034   7.521  0.6491  0.0157 -0.0361
   37POPC   H6S 4960   6.264   5.183   7.535 -2.3956  0.5599  1.0244
   37POPC   C27 4961   6.373   4.999   7.565  0.0293  0.1673  0.2849
   37POPC   H7R 4962   6.470   5.038   7.527 -0.6724  2.8513  1.1546
   37POPC   H7S 4963   6.378   4.894   7.529  4.2016  0.1249  0.6984
   37POPC   C28 4964   6.366   5.001   7.713 -0.3063  0.3164 -0.2599
   37POPC   H8R 4965   6.351   5.106   7.746  0.1208 -0.7142  3.4268
   37POPC   H8S 4966   6.464   4.980   7.762  0.2606  1.0769 -1.0344
   37POPC   C29 4967   6.258   4.906   7.766  0.7184 -1.2026  0.4900
   37POPC   H91 4968   6.164   4.923   7.713  0.6623  1.9024  1.5113
   37POPC  C210 4969   6.276   4.821   7.871 -0.0494  0.1086  0.4161
   37POPC  H101 4970   6.186   4.766   7.905  0.7231 -0.8791  0.9054
   37POPC  C211 4971   6.399   4.799   7.955 -0.6378 -0.7685  0.4848
   37POPC  H11R 4972   6.476   4.867   7.914 -2.5219  0.8245 -0.5059
   37POPC  H11S 4973   6.443   4.700   7.929 -0.5951 -0.4418 -0.6898
   37POPC  C212 4974   6.402   4.826   8.105 -0.2767  0.3060 -1.0044
   37POPC  H12R 4975   6.506   4.815   8.142 -0.2226  4.3382  0.2909
   37POPC  H12S 4976   6.334   4.756   8.159 -2.0858  1.8960 -1.1634
   37POPC  C213 4977   6.353   4.969   8.147 -0.2800 -1.7786 -1.0810
   37POPC  H13R 4978   6.250   4.981   8.109 -1.3129 -2.1505  1.5384
   37POPC  H13S 4979   6.416   5.038   8.086 -2.5114  0.0865 -1.3384
   37POPC  C214 4980   6.370   4.994   8.301 -0.6599 -0.4066 -0.2293
   37POPC  H14R 4981   6.323   5.089   8.334  0.8442  0.7772 -1.4109
   37POPC  H14S 4982   6.480   5.002   8.311 -0.3032 -0.1555 -3.5765
   37POPC  C215 4983   6.322   4.878   8.391 -1.0427  0.6556  0.0990
   37POPC  H15R 4984   6.355   4.778   8.355 -2.6012 -0.7368  2.3581
   37POPC  H15S 4985   6.212   4.867   8.408 -0.7166  1.5388  3.2372
   37POPC  C216 4986   6.387   4.890   8.533  0.6121  0.0495  0.0076
   37POPC  H16R 4987   6.314   4.851   8.607  1.1945 -0.6076  0.2456
   37POPC  H16S 4988   6.404   4.995   8.562  1.0620 -0.2961  1.0121
   37POPC  C217 4989   6.519   4.812   8.556  0.1553  0.0021  0.8073
   37POPC  H17R 4990   6.589   4.847   8.477  0.1322 -1.0818  0.2878
   37POPC  H17S 4991   6.490   4.705   8.548  0.2535  0.0178  0.2221
   37POPC  C218 4992   6.570   4.824   8.694 -0.3407  0.1113  0.1556
   37POPC  H18R 4993   6.658   4.757   8.707 -0.5832 -0.4459 -1.1023
   37POPC  H18S 4994   6.496   4.798   8.772 -1.2104  1.7428 -0.1090
   37POPC  H18T 4995   6.598   4.931   8.710 -1.0680  0.3007  0.1611
   37POPC   C33 4996   5.735   5.082   7.245  0.4723  0.5552  0.0715
   37POPC   H3X 4997   5.797   5.158   7.195 -1.6216  2.0452 -0.3136
   37POPC   H3Y 4998   5.814   5.004   7.238  0.8796  1.0285 -0.5925
   37POPC   C34 4999   5.704   5.107   7.394  0.4546 -0.5038  0.1284
   37POPC   H4X 5000   5.645   5.020   7.428 -1.9846  1.5064  1.2188
   37POPC   H4Y 5001   5.648   5.203   7.402  1.1945  0.1469 -2.0511
   37POPC   C35 5002   5.820   5.120   7.492  0.3196 -0.1077 -0.8756
   37POPC   H5X 5003   5.873   5.215   7.469  0.5632 -0.2037 -0.7123
   37POPC   H5Y 5004   5.889   5.036   7.471  0.1949 -0.3393 -0.3482
   37POPC   C36 5005   5.787   5.132   7.638 -0.2271  0.0243 -0.3418
   37POPC   H6X 5006   5.762   5.032   7.682 -0.8233  0.3106 -0.0151
   37POPC   H6Y 5007   5.695   5.193   7.655  0.0430  0.5314 -0.7066
   37POPC   C37 5008   5.906   5.187   7.716  0.6597 -0.3827  0.5689
   37POPC   H7X 5009   5.932   5.288   7.678  1.5511 -0.4369  1.0024
   37POPC   H7Y 5010   5.989   5.118   7.692 -0.2448 -2.3692  2.9296
   37POPC   C38 5011   5.893   5.193   7.867  0.2206  0.2915 -0.2427
   37POPC   H8X 5012   5.858   5.098   7.913 -0.7370 -0.0491 -1.6445
   37POPC   H8Y 5013   5.805   5.255   7.897 -0.6789 -0.8402 -0.4921
   37POPC   C39 5014   6.028   5.237   7.929 -0.1622  0.2907 -0.1054
   37POPC   H9X 5015   6.056   5.335   7.884 -0.7356  0.9546  0.9554
   37POPC   H9Y 5016   6.096   5.157   7.894  2.7387  1.8086  1.9021
   37POPC  C310 5017   6.019   5.248   8.084  0.9407 -0.0892 -0.3748
   37POPC  H10X 5018   5.945   5.326   8.114  0.2085 -2.0353  3.1912
   37POPC  H10Y 5019   6.118   5.289   8.113  0.7751 -0.5873  0.9276
   37POPC  C311 5020   5.979   5.118   8.159  0.3282  0.1532  0.1109
   37POPC  H11X 5021   6.041   5.034   8.122 -1.6640 -0.3448 -2.2513
   37POPC  H11Y 5022   5.873   5.093   8.138 -0.2037  2.2983  0.0638
   37POPC  C312 5023   5.978   5.142   8.309  0.3203  0.5652 -0.5476
   37POPC  H12X 5024   5.898   5.216   8.329  1.6566  2.0921 -0.6903
   37POPC  H12Y 5025   6.074   5.192   8.335  0.8809 -0.8648  0.1806
   37POPC  C313 5026   5.953   5.022   8.400  0.3119  0.6229  0.4963
   37POPC  H13X 5027   6.030   4.946   8.373 -2.0001 -2.0392  1.1820
   37POPC  H13Y 5028   5.856   4.981   8.367  0.0557  1.7508 -0.1769
   37POPC  C314 5029   5.941   5.037   8.551 -0.2787 -0.5237 -0.3941
   37POPC  H14X 5030   5.856   5.104   8.576 -1.9837 -2.4881 -0.8194
   37POPC  H14Y 5031   6.031   5.078   8.602 -0.4776  0.4104 -0.7871
   37POPC  C315 5032   5.906   4.897   8.613 -0.4578  0.3252  0.3166
   37POPC  H15X 5033   6.006   4.853   8.635  0.6609  2.0664 -1.1475
   37POPC  H15Y 5034   5.852   4.827   8.546 -2.1254  2.1865 -0.3042
   37POPC  C316 5035   5.811   4.895   8.741  0.0054  0.1669 -0.0556
   37POPC  H16X 5036   5.706   4.921   8.715  0.2421  2.3804  1.0691
   37POPC  H16Y 5037   5.853   4.962   8.819 -3.2667  0.8284  1.2381
   37POPC  H16Z 5038   5.810   4.789   8.774  0.6306 -0.7183 -2.7818
   38POPC     N 5039   0.616   1.805   6.374 -0.3193  0.1549 -0.1902
   38POPC   C12 5040   0.705   1.767   6.496 -0.1963  0.1073 -0.1441
   38POPC  H12A 5041   0.648   1.799   6.582  1.0595 -0.4558  0.9065
   38POPC  H12B 5042   0.791   1.833   6.496  0.9573 -1.3217 -2.8182
   38POPC   C13 5043   0.698   1.791   6.247  0.0235 -0.0572 -0.3416
   38POPC  H13A 5044   0.770   1.872   6.238  1.1459 -0.8051  1.5561
   38POPC  H13B 5045   0.764   1.706   6.243  1.6972  1.2702 -2.5587
   38POPC  H13C 5046   0.635   1.805   6.160 -0.7896  0.9948  0.3964
   38POPC   C14 5047   0.493   1.714   6.364  0.3750 -0.0844 -0.2518
   38POPC  H14A 5048   0.519   1.612   6.342 -0.6101  0.1788 -2.6953
   38POPC  H14B 5049   0.447   1.713   6.462 -1.1846 -0.4928 -0.9770
   38POPC  H14C 5050   0.420   1.749   6.293 -0.1679 -0.3537  0.1710
   38POPC   C15 5051   0.553   1.942   6.396 -0.3523 -0.4187  0.2528
   38POPC  H15A 5052   0.494   1.940   6.486  0.8895 -0.4781  1.0753
   38POPC  H15B 5053   0.503   1.974   6.306  1.8339  0.9077 -0.5014
   38POPC  H15C 5054   0.631   2.016   6.393  0.1046 -0.9271 -0.6364
   38POPC   C11 5055   0.740   1.617   6.516  0.3471 -0.7558 -0.6663
   38POPC  H11A 5056   0.647   1.556   6.516 -0.5048  0.5067 -1.2605
   38POPC  H11B 5057   0.779   1.612   6.619  0.9952  1.1008 -0.7941
   38POPC     P 5058   0.977   1.590   6.419  0.1853  0.1146 -0.0536
   38POPC   O13 5059   0.997   1.734   6.429  0.5377 -0.4072  0.2900
   38POPC   O14 5060   1.046   1.529   6.303  0.2916 -0.0462  0.1698
   38POPC   O12 5061   0.828   1.569   6.414  0.5101 -0.2174 -0.6103
   38POPC   O11 5062   1.028   1.531   6.555 -0.2315 -0.1480  0.5394
   38POPC    C1 5063   1.008   1.390   6.571 -0.1714  0.3020  0.0722
   38POPC    HA 5064   1.103   1.345   6.535 -0.2833  0.4117 -0.3608
   38POPC    HB 5065   0.925   1.351   6.508 -0.1443  1.6172 -0.7725
   38POPC    C2 5066   0.990   1.350   6.730 -0.6962  0.3344 -0.4986
   38POPC    HS 5067   0.973   1.240   6.734  1.0737  0.0506 -0.5125
   38POPC   O21 5068   0.872   1.411   6.779  0.0058 -0.5710  0.0212
   38POPC   C21 5069   0.748   1.362   6.741  0.9155 -0.0752  0.1259
   38POPC   O22 5070   0.747   1.259   6.677  0.7026 -0.1506 -0.7751
   38POPC   C22 5071   0.624   1.442   6.782  0.3059  0.0575 -0.1548
   38POPC   H2R 5072   0.582   1.478   6.686  0.0822  0.4464  0.0889
   38POPC   H2S 5073   0.660   1.529   6.841  0.2765  1.8499 -2.7222
   38POPC    C3 5074   1.106   1.393   6.815 -0.2697 -0.6220  0.0009
   38POPC    HX 5075   1.111   1.504   6.818 -0.0915 -0.6513  1.4513
   38POPC    HY 5076   1.205   1.361   6.777 -0.0353 -1.9811  1.7050
   38POPC   O31 5077   1.112   1.352   6.956  0.1509 -0.6103 -0.3750
   38POPC   C31 5078   1.159   1.232   6.975 -0.0126 -0.0322  0.0504
   38POPC   O32 5079   1.201   1.164   6.886 -0.3859  0.3360  0.0351
   38POPC   C32 5080   1.142   1.198   7.124 -0.4521  0.3714 -0.2081
   38POPC   H2X 5081   1.190   1.098   7.133 -2.1140 -0.5839 -1.9379
   38POPC   H2Y 5082   1.034   1.198   7.150 -0.0580 -0.7487  1.4873
   38POPC   C23 5083   0.511   1.379   6.863  0.7956  0.4583  0.0576
   38POPC   H3R 5084   0.474   1.286   6.815 -2.9473  1.4852  0.7348
   38POPC   H3S 5085   0.424   1.448   6.871  1.1160  0.9070 -0.3036
   38POPC   C24 5086   0.556   1.353   7.012  0.7430 -0.2597 -0.0636
   38POPC   H4R 5087   0.637   1.425   7.037  1.3492 -0.3678 -1.6018
   38POPC   H4S 5088   0.593   1.248   7.013  2.9379  0.4810  0.3831
   38POPC   C25 5089   0.453   1.369   7.121 -0.7168 -0.6719  0.4772
   38POPC   H5R 5090   0.379   1.294   7.086  0.1699 -1.3509  0.0503
   38POPC   H5S 5091   0.406   1.470   7.122 -1.2571 -0.9069 -0.6219
   38POPC   C26 5092   0.509   1.326   7.256 -0.0235 -0.7367  0.1180
   38POPC   H6R 5093   0.596   1.392   7.274  0.1013 -1.2396  1.4340
   38POPC   H6S 5094   0.555   1.225   7.244 -0.3385 -0.9930  0.9874
   38POPC   C27 5095   0.417   1.337   7.377  0.1303 -0.9233  0.2656
   38POPC   H7R 5096   0.339   1.257   7.371  0.4370 -1.1526 -0.8648
   38POPC   H7S 5097   0.367   1.435   7.393  0.0276 -0.7231 -1.2110
   38POPC   C28 5098   0.492   1.324   7.508 -0.0709  0.0330 -0.8943
   38POPC   H8R 5099   0.422   1.347   7.592  1.3374 -1.5626  0.7580
   38POPC   H8S 5100   0.572   1.399   7.525  0.8978 -1.1177 -0.2054
   38POPC   C29 5101   0.535   1.182   7.530 -0.1271  0.1564  0.5517
   38POPC   H91 5102   0.456   1.117   7.570  0.4275 -1.3732 -0.7894
   38POPC  C210 5103   0.656   1.120   7.509 -0.0500  0.4437  0.5563
   38POPC  H101 5104   0.667   1.011   7.521  0.1093  0.7433  3.2597
   38POPC  C211 5105   0.790   1.164   7.463 -1.1227 -0.6026  0.0137
   38POPC  H11R 5106   0.852   1.174   7.554  1.7949 -1.4744 -1.8201
   38POPC  H11S 5107   0.801   1.259   7.406  3.4175 -1.7720 -1.2472
   38POPC  C212 5108   0.861   1.057   7.375 -0.7390 -0.0883  0.5185
   38POPC  H12R 5109   0.850   0.959   7.425  0.8411 -0.3724  0.3291
   38POPC  H12S 5110   0.967   1.086   7.360 -1.1274  1.9737  1.5425
   38POPC  C213 5111   0.808   1.054   7.229 -0.1294  0.2866  0.6274
   38POPC  H13R 5112   0.831   1.155   7.188 -1.6458  0.4037  0.0416
   38POPC  H13S 5113   0.698   1.054   7.220 -0.0035  1.1161 -1.1664
   38POPC  C214 5114   0.879   0.952   7.136  0.3192  0.4771  0.0455
   38POPC  H14R 5115   0.829   0.856   7.156  0.8735 -0.1433 -1.4931
   38POPC  H14S 5116   0.981   0.929   7.174 -0.0467 -0.7870  0.2841
   38POPC  C215 5117   0.876   0.985   6.981  0.1088 -0.0771 -0.0528
   38POPC  H15R 5118   0.927   0.900   6.930 -2.1659 -0.8194 -1.1543
   38POPC  H15S 5119   0.935   1.079   6.977 -2.1824  1.4259  1.0333
   38POPC  C216 5120   0.740   1.009   6.916  0.1320 -0.2227  0.3549
   38POPC  H16R 5121   0.756   1.048   6.813  0.7695  0.3820  0.6830
   38POPC  H16S 5122   0.690   1.087   6.977  0.5437  0.1539  0.2159
   38POPC  C217 5123   0.660   0.884   6.906 -0.1864 -0.2633 -0.1467
   38POPC  H17R 5124   0.552   0.904   6.887 -1.2436 -3.3959  2.0548
   38POPC  H17S 5125   0.661   0.827   7.002  1.1509 -0.9958 -0.5899
   38POPC  C218 5126   0.700   0.790   6.791 -0.3502  0.3077 -0.0814
   38POPC  H18R 5127   0.633   0.701   6.793  2.0316 -1.5771 -1.3385
   38POPC  H18S 5128   0.806   0.765   6.812 -0.1880  0.2870 -0.9437
   38POPC  H18T 5129   0.685   0.841   6.694 -2.9357  1.4696  0.8730
   38POPC   C33 5130   1.222   1.290   7.220  0.9716  0.1730  0.0787
   38POPC   H3X 5131   1.190   1.394   7.202  0.7744 -0.0891 -1.1440
   38POPC   H3Y 5132   1.331   1.293   7.200  0.7983  1.5309 -0.6771
   38POPC   C34 5133   1.189   1.250   7.356 -0.7411 -0.0885 -0.0831
   38POPC   H4X 5134   1.198   1.141   7.377 -0.2888 -0.4187 -1.9369
   38POPC   H4Y 5135   1.079   1.264   7.367 -0.8942 -1.1278 -0.2278
   38POPC   C35 5136   1.249   1.343   7.461  0.4721  0.2337  0.6409
   38POPC   H5X 5137   1.206   1.441   7.432  2.2714  0.4984 -1.2495
   38POPC   H5Y 5138   1.360   1.346   7.464  0.4154  2.6279  0.9178
   38POPC   C36 5139   1.198   1.310   7.602  0.1492  0.9342 -0.0805
   38POPC   H6X 5140   1.212   1.201   7.613  1.0027  1.0064 -0.3771
   38POPC   H6Y 5141   1.089   1.328   7.607 -0.1848 -1.1023  0.3544
   38POPC   C37 5142   1.259   1.392   7.720 -0.1727 -0.1829 -0.0427
   38POPC   H7X 5143   1.245   1.497   7.686 -2.6643 -0.5380 -0.2259
   38POPC   H7Y 5144   1.369   1.382   7.732 -0.0911 -1.1002 -1.5105
   38POPC   C38 5145   1.185   1.372   7.855 -0.3733  0.4418 -0.2529
   38POPC   H8X 5146   1.205   1.265   7.878  0.1295  1.0652  2.3918
   38POPC   H8Y 5147   1.078   1.399   7.838  0.1561  2.7969 -0.0574
   38POPC   C39 5148   1.231   1.456   7.975 -1.0001 -0.1350  0.0839
   38POPC   H9X 5149   1.213   1.559   7.937  1.3636  0.5017  0.6651
   38POPC   H9Y 5150   1.336   1.435   8.001 -1.6150  0.1365  2.9298
   38POPC  C310 5151   1.141   1.421   8.102 -0.1596 -0.3974 -0.5504
   38POPC  H10X 5152   1.194   1.449   8.196  2.1805 -0.6614 -1.7521
   38POPC  H10Y 5153   1.135   1.310   8.099  2.5113 -0.5358 -1.9629
   38POPC  C311 5154   1.008   1.495   8.099 -0.0137 -0.0063 -0.8269
   38POPC  H11X 5155   0.951   1.462   8.009  0.7340 -0.3605 -1.1747
   38POPC  H11Y 5156   1.017   1.606   8.098  0.1359  0.0071  0.5063
   38POPC  C312 5157   0.915   1.464   8.226  0.0448  0.2490  0.7512
   38POPC  H12X 5158   0.817   1.517   8.224  0.6488  1.3621 -0.0360
   38POPC  H12Y 5159   0.970   1.508   8.312  0.7088 -0.5210  0.7167
   38POPC  C313 5160   0.888   1.314   8.245 -0.6458 -0.2534 -0.0583
   38POPC  H13X 5161   0.976   1.249   8.227 -1.3829 -1.5707  1.0117
   38POPC  H13Y 5162   0.806   1.285   8.176  0.1737 -0.3863 -0.9866
   38POPC  C314 5163   0.833   1.286   8.389 -0.6026 -0.3203  0.3763
   38POPC  H14X 5164   0.768   1.366   8.431 -0.8180 -1.3700  2.0815
   38POPC  H14Y 5165   0.918   1.282   8.460 -1.8338 -0.4630  1.8712
   38POPC  C315 5166   0.753   1.152   8.398  0.3084 -0.4643  0.0987
   38POPC  H15X 5167   0.814   1.066   8.362  0.9858  0.4122 -0.8619
   38POPC  H15Y 5168   0.660   1.149   8.338  2.3126 -1.8352 -3.0899
   38POPC  C316 5169   0.718   1.110   8.549  0.4002 -0.3115  0.2897
   38POPC  H16X 5170   0.815   1.090   8.600  1.5840  2.2196 -0.8820
   38POPC  H16Y 5171   0.654   1.020   8.543 -1.4419  0.9035  1.2301
   38POPC  H16Z 5172   0.662   1.192   8.599 -0.7916 -1.8213  1.4861
   39POPC     N 5173   5.400   4.309   5.902  0.4887  0.0037 -0.4394
   39POPC   C12 5174   5.429   4.381   6.032 -0.1357 -0.0471 -0.4512
   39POPC  H12A 5175   5.408   4.484   6.005 -1.3166 -0.3142 -0.5977
   39POPC  H12B 5176   5.530   4.363   6.065 -0.0434  1.8569  0.3913
   39POPC   C13 5177   5.272   4.361   5.847 -0.1143  0.0850  0.1450
   39POPC  H13A 5178   5.255   4.304   5.757  2.6784  0.3203 -0.5614
   39POPC  H13B 5179   5.187   4.343   5.912 -1.0696  1.3950 -0.7222
   39POPC  H13C 5180   5.266   4.464   5.818  0.2679  0.0690  0.0208
   39POPC   C14 5181   5.512   4.348   5.810  0.5342  0.3396  0.4014
   39POPC  H14A 5182   5.501   4.451   5.779  0.0924  0.5930  1.3708
   39POPC  H14B 5183   5.609   4.328   5.853 -0.6006 -3.3605  1.5041
   39POPC  H14C 5184   5.516   4.298   5.714  0.6359 -0.0694  0.6173
   39POPC   C15 5185   5.396   4.157   5.912 -0.5202  0.7408  0.3711
   39POPC  H15A 5186   5.388   4.129   5.808 -1.4648 -1.7567  1.0629
   39POPC  H15B 5187   5.313   4.117   5.969  0.2789 -1.3857  0.1014
   39POPC  H15C 5188   5.490   4.116   5.947 -0.7235 -0.0499  0.0108
   39POPC   C11 5189   5.336   4.354   6.157 -0.0530 -0.1115  0.6438
   39POPC  H11A 5190   5.375   4.412   6.244 -0.7026  1.7689 -0.2972
   39POPC  H11B 5191   5.340   4.248   6.190  1.5493  0.2623  1.7095
   39POPC     P 5192   5.164   4.543   6.136  0.3506 -0.8049 -0.2226
   39POPC   O13 5193   5.073   4.564   6.020  0.2156 -0.6853 -0.0306
   39POPC   O14 5194   5.288   4.630   6.134 -0.0872  0.0748  0.4003
   39POPC   O12 5195   5.198   4.383   6.135 -0.5070 -0.7905  0.4211
   39POPC   O11 5196   5.076   4.563   6.269  0.5879  0.0305 -0.2382
   39POPC    C1 5197   4.945   4.505   6.278  0.7949  0.0664  0.2621
   39POPC    HA 5198   4.946   4.399   6.244  0.2055  0.2891 -0.4742
   39POPC    HB 5199   4.868   4.555   6.216 -0.1521  0.2285  1.5559
   39POPC    C2 5200   4.884   4.490   6.420  0.8992  0.1843 -0.5193
   39POPC    HS 5201   4.781   4.449   6.412  0.4714  1.1682 -0.1615
   39POPC   O21 5202   4.883   4.621   6.488 -0.5593  0.0308 -0.0426
   39POPC   C21 5203   4.776   4.697   6.468 -0.3559  0.3941 -0.2499
   39POPC   O22 5204   4.671   4.660   6.417 -0.6434  0.3072 -0.0580
   39POPC   C22 5205   4.804   4.831   6.537  0.4088  0.3018 -0.5520
   39POPC   H2R 5206   4.839   4.894   6.453 -0.4056 -2.1386 -2.7914
   39POPC   H2S 5207   4.879   4.820   6.618  1.4403  1.6072 -1.2931
   39POPC    C3 5208   4.966   4.389   6.501  0.0101  0.8018  0.0478
   39POPC    HX 5209   5.069   4.429   6.493 -0.2025  1.7779  2.0149
   39POPC    HY 5210   4.963   4.283   6.467 -1.2996  1.2452 -1.2937
   39POPC   O31 5211   4.921   4.373   6.637  0.0212 -0.4249 -0.1715
   39POPC   C31 5212   5.022   4.344   6.718  0.1954  0.2973  0.3607
   39POPC   O32 5213   5.135   4.315   6.687  0.2846 -0.1883 -0.4545
   39POPC   C32 5214   4.953   4.325   6.855  0.4332  0.5790 -0.0561
   39POPC   H2X 5215   4.901   4.421   6.877 -0.1068  0.5950 -1.3542
   39POPC   H2Y 5216   4.872   4.251   6.839 -0.4600  1.3345  0.8147
   39POPC   C23 5217   4.687   4.910   6.603 -0.1868  0.0392  0.2601
   39POPC   H3R 5218   4.637   4.847   6.680  1.4146  1.2278  2.3445
   39POPC   H3S 5219   4.608   4.949   6.534 -0.6069  0.3133  0.8864
   39POPC   C24 5220   4.725   5.035   6.689 -0.2949 -0.5780 -0.5170
   39POPC   H4R 5221   4.771   5.111   6.623  0.8059 -1.3638 -0.6872
   39POPC   H4S 5222   4.807   5.006   6.759  0.0859 -2.6553 -1.7476
   39POPC   C25 5223   4.609   5.095   6.776 -0.0823  0.3428 -0.0348
   39POPC   H5R 5224   4.580   5.016   6.848 -2.7569  0.7675 -0.6211
   39POPC   H5S 5225   4.521   5.112   6.711  1.2103  0.5763 -1.7675
   39POPC   C26 5226   4.650   5.207   6.870  0.8389  0.6911 -0.1416
   39POPC   H6R 5227   4.701   5.285   6.811  0.0442 -0.4150 -2.3303
   39POPC   H6S 5228   4.734   5.173   6.934  0.5972 -0.8415 -0.6255
   39POPC   C27 5229   4.535   5.269   6.954 -0.1515 -0.5313 -0.0647
   39POPC   H7R 5230   4.480   5.186   7.003  0.3972 -0.9666 -0.1762
   39POPC   H7S 5231   4.469   5.332   6.890  1.0673  0.1150 -0.7010
   39POPC   C28 5232   4.593   5.360   7.062 -0.0262 -0.5824 -0.1434
   39POPC   H8R 5233   4.674   5.420   7.017 -0.0989 -0.3933 -0.0229
   39POPC   H8S 5234   4.653   5.288   7.122  0.1949  0.4490  0.8896
   39POPC   C29 5235   4.504   5.446   7.141  0.2694  0.0040 -0.1337
   39POPC   H91 5236   4.478   5.536   7.082  0.5037 -1.7646 -3.0129
   39POPC  C210 5237   4.467   5.435   7.268  0.0954 -0.0010 -0.5487
   39POPC  H101 5238   4.395   5.509   7.304  0.7521  0.3953 -0.0262
   39POPC  C211 5239   4.504   5.318   7.354 -0.0184  0.9878 -0.0553
   39POPC  H11R 5240   4.613   5.298   7.356 -0.3487 -0.9627 -0.1839
   39POPC  H11S 5241   4.454   5.226   7.316 -2.0570  2.7466 -1.6915
   39POPC  C212 5242   4.466   5.344   7.495 -0.5263  0.2366  0.3225
   39POPC  H12R 5243   4.356   5.356   7.506 -0.6709  0.2799 -1.1430
   39POPC  H12S 5244   4.518   5.438   7.524  0.1666 -0.4582  1.4168
   39POPC  C213 5245   4.517   5.238   7.596  0.3992  0.2168  0.3583
   39POPC  H13R 5246   4.617   5.200   7.568  0.2636  1.6548 -2.2598
   39POPC  H13S 5247   4.459   5.144   7.601  0.3219  0.3203  1.6564
   39POPC  C214 5248   4.521   5.297   7.739 -0.1489 -0.2642  0.4495
   39POPC  H14R 5249   4.421   5.341   7.757  0.0177  0.2967  0.0064
   39POPC  H14S 5250   4.588   5.386   7.736  2.8764 -2.4280  1.2115
   39POPC  C215 5251   4.560   5.186   7.834 -0.1917  0.1461 -0.0502
   39POPC  H15R 5252   4.661   5.151   7.806  0.6259  0.6008  2.2951
   39POPC  H15S 5253   4.483   5.107   7.823 -0.5904  0.5673 -0.3316
   39POPC  C216 5254   4.545   5.244   7.970 -0.3430 -0.3168 -0.1594
   39POPC  H16R 5255   4.473   5.327   7.983 -1.4417 -1.6530  2.9043
   39POPC  H16S 5256   4.641   5.289   8.002 -0.2168 -0.9581  0.3780
   39POPC  C217 5257   4.496   5.136   8.075 -1.3934  0.1573 -0.2146
   39POPC  H17R 5258   4.572   5.054   8.077 -2.5611 -0.9703 -1.3198
   39POPC  H17S 5259   4.406   5.079   8.043 -0.7869 -1.6236  1.1546
   39POPC  C218 5260   4.478   5.181   8.219 -0.3037 -0.1677  0.3974
   39POPC  H18R 5261   4.388   5.245   8.231 -0.8718 -0.5281 -1.8120
   39POPC  H18S 5262   4.569   5.233   8.257 -0.4147  0.4348 -0.1486
   39POPC  H18T 5263   4.463   5.095   8.288 -2.8127  1.3806  1.8524
   39POPC   C33 5264   5.058   4.302   6.959  0.0667  0.4672 -0.6401
   39POPC   H3X 5265   5.141   4.375   6.952 -0.4643  1.3665  2.0425
   39POPC   H3Y 5266   5.097   4.201   6.936 -1.3423 -0.1057 -0.5996
   39POPC   C34 5267   5.001   4.321   7.102  0.1775 -0.2846 -0.4611
   39POPC   H4X 5268   4.987   4.219   7.145  1.1595 -0.1306  0.2484
   39POPC   H4Y 5269   4.906   4.378   7.098  1.5419  2.4037  2.7117
   39POPC   C35 5270   5.103   4.399   7.191  0.2399 -0.9358 -0.3409
   39POPC   H5X 5271   5.157   4.480   7.136 -1.9649 -0.2963 -1.6339
   39POPC   H5Y 5272   5.177   4.318   7.206  0.8881  0.0178  1.7963
   39POPC   C36 5273   5.049   4.456   7.321 -0.3506  0.0896 -0.7772
   39POPC   H6X 5274   4.980   4.542   7.304  0.5722  0.6687 -1.6971
   39POPC   H6Y 5275   5.130   4.488   7.390 -1.2015  1.6450 -0.4815
   39POPC   C37 5276   4.966   4.350   7.394  0.2325 -0.1448  0.1284
   39POPC   H7X 5277   5.023   4.265   7.437 -3.2862 -2.6443  0.0757
   39POPC   H7Y 5278   4.876   4.316   7.337 -0.5299  1.4824  0.3455
   39POPC   C38 5279   4.910   4.407   7.529  0.2108 -0.4078  0.1143
   39POPC   H8X 5280   4.853   4.329   7.583  0.8981  0.0697  1.5529
   39POPC   H8Y 5281   4.838   4.489   7.508  0.9927  0.2651  0.0361
   39POPC   C39 5282   5.007   4.466   7.630  0.4868 -0.4474 -0.2484
   39POPC   H9X 5283   5.044   4.559   7.581  1.4397 -1.0347 -0.6635
   39POPC   H9Y 5284   5.079   4.385   7.656  0.9251  0.0405  0.0668
   39POPC  C310 5285   4.938   4.512   7.761 -0.3067  0.1163 -0.3324
   39POPC  H10X 5286   4.886   4.423   7.802 -0.8077  0.0586 -1.0941
   39POPC  H10Y 5287   4.865   4.591   7.735  0.4751  1.0115  0.1454
   39POPC  C311 5288   5.048   4.559   7.865 -0.1353 -0.2326  0.9373
   39POPC  H11X 5289   5.088   4.661   7.842 -0.5594 -0.3352 -0.3267
   39POPC  H11Y 5290   5.142   4.500   7.858 -0.6156 -0.6560 -3.2343
   39POPC  C312 5291   4.996   4.570   8.008 -0.5675 -0.0293 -0.3618
   39POPC  H12X 5292   4.969   4.466   8.033 -0.5298  0.4978  1.9534
   39POPC  H12Y 5293   4.901   4.628   8.012  0.0630  1.0999 -1.4632
   39POPC  C313 5294   5.104   4.623   8.103  0.0390 -1.0641  0.2620
   39POPC  H13X 5295   5.053   4.683   8.182 -1.3618  0.4453 -1.7181
   39POPC  H13Y 5296   5.180   4.696   8.069  0.7590 -0.0182  3.8693
   39POPC  C314 5297   5.170   4.506   8.182 -0.1347 -0.1758 -0.0782
   39POPC  H14X 5298   5.199   4.431   8.105 -0.9696 -0.3809 -0.2058
   39POPC  H14Y 5299   5.091   4.465   8.249 -1.4160 -2.0255 -2.6317
   39POPC  C315 5300   5.310   4.533   8.235  0.0385  0.2055 -0.2338
   39POPC  H15X 5301   5.297   4.599   8.323 -0.2575 -0.6692  0.3900
   39POPC  H15Y 5302   5.367   4.589   8.158  0.0419 -1.6826 -1.6657
   39POPC  C316 5303   5.389   4.410   8.264 -0.1642 -0.7981 -0.6337
   39POPC  H16X 5304   5.340   4.347   8.341  0.1571 -0.8459 -0.4684
   39POPC  H16Y 5305   5.494   4.436   8.292 -0.0912  1.1240 -2.5392
   39POPC  H16Z 5306   5.401   4.352   8.170  2.8803  2.8102 -2.6348
   40POPC     N 5307   3.600   2.907   6.019  0.3349 -0.3345 -0.1198
   40POPC   C12 5308   3.523   2.994   6.116 -0.0568  0.3234  0.3375
   40POPC  H12A 5309   3.425   3.024   6.081  1.0266  2.4243 -0.9913
   40POPC  H12B 5310   3.578   3.087   6.117  0.4211  0.0350  1.4925
   40POPC   C13 5311   3.536   2.776   5.986  0.3445  0.1858  0.2549
   40POPC  H13A 5312   3.594   2.724   5.911 -2.9804 -2.3930 -0.7113
   40POPC  H13B 5313   3.516   2.708   6.068  1.1792 -1.9675 -1.2530
   40POPC  H13C 5314   3.437   2.804   5.951  0.1984 -0.4039  0.1876
   40POPC   C14 5315   3.611   2.998   5.894  0.7787 -0.4845  0.5070
   40POPC  H14A 5316   3.512   3.013   5.853  0.4831 -2.4049  0.4595
   40POPC  H14B 5317   3.659   3.092   5.917 -0.5706 -0.1978  2.2626
   40POPC  H14C 5318   3.671   2.941   5.825  1.5357 -0.8129  1.4278
   40POPC   C15 5319   3.744   2.880   6.060 -0.5187 -0.2067 -0.8372
   40POPC  H15A 5320   3.796   2.824   5.984  0.3259 -1.6385  0.7806
   40POPC  H15B 5321   3.759   2.825   6.152  1.3694 -0.1776 -1.1133
   40POPC  H15C 5322   3.805   2.969   6.065  0.9843 -1.2831  0.1873
   40POPC   C11 5323   3.504   2.933   6.257 -0.3677  0.0086 -0.0442
   40POPC  H11A 5324   3.453   3.013   6.314  0.7755  0.9941 -0.3993
   40POPC  H11B 5325   3.601   2.913   6.307 -1.3556 -0.3881  1.7479
   40POPC     P 5326   3.395   2.748   6.395 -0.1122 -0.7035 -0.1230
   40POPC   O13 5327   3.447   2.611   6.394 -0.4265  0.5801  0.3589
   40POPC   O14 5328   3.248   2.761   6.415  0.0418  0.6802  0.4749
   40POPC   O12 5329   3.432   2.813   6.251 -0.2413  0.1533 -0.4339
   40POPC   O11 5330   3.482   2.831   6.497  0.4513  0.0399 -0.2555
   40POPC    C1 5331   3.412   2.918   6.587 -0.1649 -0.0995 -0.6056
   40POPC    HA 5332   3.314   2.957   6.552 -0.5725  2.5854  3.2692
   40POPC    HB 5333   3.479   3.006   6.581 -0.9444  0.3375 -3.2677
   40POPC    C2 5334   3.421   2.856   6.734 -0.2940 -0.2857  0.0725
   40POPC    HS 5335   3.526   2.820   6.743 -1.1896 -2.7321  1.3222
   40POPC   O21 5336   3.321   2.760   6.748 -0.6088 -0.2836  0.0365
   40POPC   C21 5337   3.364   2.627   6.760 -0.0496 -0.3074 -0.8917
   40POPC   O22 5338   3.481   2.590   6.767  0.0914 -0.6296 -0.0160
   40POPC   C22 5339   3.241   2.538   6.750 -0.1535  0.0555 -0.2879
   40POPC   H2R 5340   3.216   2.543   6.642  0.7682 -0.8596 -0.5555
   40POPC   H2S 5341   3.154   2.582   6.804 -2.1463  0.2166 -3.4913
   40POPC    C3 5342   3.401   2.967   6.837 -0.2918 -0.3475 -0.3749
   40POPC    HX 5343   3.295   2.999   6.832  0.0596  0.8239 -0.3735
   40POPC    HY 5344   3.464   3.054   6.811  2.6947 -1.5890  2.4251
   40POPC   O31 5345   3.405   2.919   6.975 -0.6171 -0.0323  0.0447
   40POPC   C31 5346   3.522   2.929   7.042  0.1942 -0.0302  0.1541
   40POPC   O32 5347   3.629   2.968   6.992  0.2507  0.5235 -0.1113
   40POPC   C32 5348   3.508   2.874   7.192  0.2419 -0.0769 -0.2261
   40POPC   H2X 5349   3.596   2.808   7.209 -0.0098 -1.1982 -2.9191
   40POPC   H2Y 5350   3.413   2.816   7.197 -1.0469  2.1090  2.4721
   40POPC   C23 5351   3.263   2.393   6.794  0.2683  0.4252  0.0770
   40POPC   H3R 5352   3.330   2.336   6.726 -1.2362  1.0383 -1.9744
   40POPC   H3S 5353   3.164   2.343   6.791  1.7077 -2.4855 -0.3115
   40POPC   C24 5354   3.315   2.374   6.937 -0.6216 -0.8726  0.9334
   40POPC   H4R 5355   3.411   2.429   6.942  0.1846 -2.1054 -0.5917
   40POPC   H4S 5356   3.345   2.268   6.953  0.3947 -0.5279  1.3867
   40POPC   C25 5357   3.221   2.415   7.049  1.2148 -0.4217 -0.7495
   40POPC   H5R 5358   3.116   2.394   7.019  0.7733  0.6975 -0.0101
   40POPC   H5S 5359   3.227   2.526   7.048  0.2805 -0.3721 -1.3457
   40POPC   C26 5360   3.245   2.349   7.192 -0.7338 -0.2941  0.3306
   40POPC   H6R 5361   3.215   2.243   7.177 -1.8003  0.1372 -0.6741
   40POPC   H6S 5362   3.164   2.394   7.254  1.6151  0.2580  3.0764
   40POPC   C27 5363   3.379   2.379   7.258  0.4586  1.0094 -0.0838
   40POPC   H7R 5364   3.460   2.378   7.182 -0.7348  1.4523 -1.3623
   40POPC   H7S 5365   3.399   2.287   7.317  2.2152  2.1654  1.2099
   40POPC   C28 5366   3.384   2.508   7.340 -0.2759 -0.1884  0.5420
   40POPC   H8R 5367   3.295   2.497   7.406 -2.5577  4.8725 -1.4038
   40POPC   H8S 5368   3.358   2.588   7.267 -0.1449 -0.6751 -0.0432
   40POPC   C29 5369   3.511   2.552   7.400 -0.7418 -0.0032  0.7753
   40POPC   H91 5370   3.569   2.625   7.343  0.4939 -0.2054  1.7458
   40POPC  C210 5371   3.539   2.537   7.530 -0.0576  0.1344 -0.2685
   40POPC  H101 5372   3.635   2.571   7.571 -1.1157  1.2167  1.3765
   40POPC  C211 5373   3.454   2.465   7.639  0.2100 -0.0870 -0.5277
   40POPC  H11R 5374   3.501   2.369   7.666 -0.4568 -0.3079 -0.1441
   40POPC  H11S 5375   3.353   2.432   7.606 -1.2417  0.5063  3.0914
   40POPC  C212 5376   3.420   2.559   7.760 -0.3794  0.1966 -0.2178
   40POPC  H12R 5377   3.509   2.605   7.808 -1.4371 -0.0189  2.0013
   40POPC  H12S 5378   3.362   2.501   7.835  0.6970 -0.9939 -0.2841
   40POPC  C213 5379   3.324   2.667   7.715  0.6624 -0.4871 -0.2940
   40POPC  H13R 5380   3.255   2.627   7.638  0.0321  0.7576 -0.3896
   40POPC  H13S 5381   3.371   2.749   7.656 -0.9673  0.7361  0.0485
   40POPC  C214 5382   3.249   2.733   7.834 -0.6637 -0.4027 -0.3519
   40POPC  H14R 5383   3.191   2.661   7.895  0.3696 -0.3778  0.6592
   40POPC  H14S 5384   3.181   2.810   7.791  0.7037  1.9748  1.6127
   40POPC  C215 5385   3.352   2.814   7.923 -0.3331  0.5384  0.4151
   40POPC  H15R 5386   3.302   2.911   7.940 -0.9683  0.3459 -0.2941
   40POPC  H15S 5387   3.443   2.841   7.865 -1.3638 -0.4462 -1.7287
   40POPC  C216 5388   3.380   2.745   8.056  0.1012 -0.0999 -0.5278
   40POPC  H16R 5389   3.468   2.684   8.024 -1.6658 -2.1370 -1.6254
   40POPC  H16S 5390   3.306   2.666   8.081  1.8010 -1.7683 -0.6094
   40POPC  C217 5391   3.427   2.834   8.165 -0.1211 -0.5276  0.4575
   40POPC  H17R 5392   3.362   2.925   8.166 -1.4349 -1.4029 -1.7277
   40POPC  H17S 5393   3.537   2.847   8.152  0.1311 -1.0409  2.0193
   40POPC  C218 5394   3.394   2.764   8.297  0.1834 -0.1313  0.2445
   40POPC  H18R 5395   3.448   2.817   8.379 -0.9814  0.1035  0.8604
   40POPC  H18S 5396   3.415   2.655   8.294  1.1390  0.0584 -0.2444
   40POPC  H18T 5397   3.284   2.763   8.306  0.1614 -2.0663 -0.0195
   40POPC   C33 5398   3.521   2.994   7.287 -0.1206  0.1132  0.4766
   40POPC   H3X 5399   3.432   3.060   7.282 -0.7897 -0.8909 -0.9028
   40POPC   H3Y 5400   3.605   3.057   7.250 -0.7362  0.6641  0.0076
   40POPC   C34 5401   3.562   2.972   7.435 -0.0647 -0.1531  0.4408
   40POPC   H4X 5402   3.659   2.917   7.436  1.1716  1.9032 -0.8857
   40POPC   H4Y 5403   3.491   2.910   7.494 -0.8500 -0.7407 -1.1038
   40POPC   C35 5404   3.578   3.104   7.506 -0.4208  0.2080 -0.6866
   40POPC   H5X 5405   3.491   3.167   7.479 -0.4398  0.6022  0.2725
   40POPC   H5Y 5406   3.675   3.153   7.482 -0.8098  2.7346  2.5149
   40POPC   C36 5407   3.571   3.093   7.658  0.2350 -0.2345 -0.4159
   40POPC   H6X 5408   3.486   3.027   7.682  1.0321  0.0405  3.4845
   40POPC   H6Y 5409   3.555   3.196   7.696  1.5637  0.0542 -0.5880
   40POPC   C37 5410   3.703   3.030   7.716 -0.5572 -0.1004  0.4468
   40POPC   H7X 5411   3.792   3.078   7.670 -0.6150  0.1472  0.5918
   40POPC   H7Y 5412   3.709   2.923   7.686  2.1959  0.3563 -0.7434
   40POPC   C38 5413   3.706   3.038   7.876  0.6319  0.7092  0.7993
   40POPC   H8X 5414   3.628   2.972   7.918  0.8470 -0.1946 -0.1926
   40POPC   H8Y 5415   3.686   3.145   7.899  1.7015  0.7883  1.4077
   40POPC   C39 5416   3.843   3.004   7.927  0.2650  0.2097 -0.8014
   40POPC   H9X 5417   3.912   3.059   7.860  2.4663 -1.3755  0.0642
   40POPC   H9Y 5418   3.868   2.897   7.907 -0.1556 -0.4326  1.8987
   40POPC  C310 5419   3.873   3.032   8.074  0.2349  0.1798  0.1035
   40POPC  H10X 5420   3.812   2.958   8.131 -2.6994 -0.2623 -3.4306
   40POPC  H10Y 5421   3.842   3.135   8.101  0.2131  0.1423  0.2240
   40POPC  C311 5422   4.031   3.012   8.098 -0.0598  0.0792  0.6699
   40POPC  H11X 5423   4.086   3.105   8.071  1.3739 -0.7192  0.7905
   40POPC  H11Y 5424   4.066   2.940   8.021 -1.3155 -0.2989  0.4410
   40POPC  C312 5425   4.075   2.952   8.230 -0.3615  0.4759 -0.8645
   40POPC  H12X 5426   4.051   3.019   8.316 -0.0424  0.1157 -0.4928
   40POPC  H12Y 5427   4.185   2.936   8.222 -0.2656  0.7952 -0.2437
   40POPC  C313 5428   4.012   2.810   8.259  0.0798 -0.5995 -0.0202
   40POPC  H13X 5429   4.035   2.734   8.181 -0.5107 -0.5426 -0.2551
   40POPC  H13Y 5430   3.901   2.820   8.260  0.1252 -0.1306  1.0147
   40POPC  C314 5431   4.052   2.771   8.402  0.5222 -0.8430  0.0833
   40POPC  H14X 5432   4.048   2.854   8.476 -1.0734 -0.1720 -0.7092
   40POPC  H14Y 5433   4.162   2.763   8.405  0.6065  0.3924  0.9367
   40POPC  C315 5434   3.984   2.645   8.449 -0.1389 -0.4268  0.3996
   40POPC  H15X 5435   3.874   2.648   8.439  0.0800  2.2622 -1.4988
   40POPC  H15Y 5436   4.014   2.632   8.555  2.7390  2.8406  0.0534
   40POPC  C316 5437   4.046   2.524   8.377 -0.7622 -0.4718  0.5011
   40POPC  H16X 5438   4.010   2.432   8.427 -0.0726 -1.3205 -0.5524
   40POPC  H16Y 5439   4.156   2.515   8.389 -0.7006  0.9460  1.0967
   40POPC  H16Z 5440   4.028   2.522   8.268 -1.2411 -0.5295  0.5790
   41CHL1    C3 5441   3.204   5.810  10.094  0.6812 -0.4113 -0.3845
   41CHL1    H3 5442   3.292   5.744  10.086  1.9347  1.3649 -1.7090
   41CHL1    O3 5443   3.165   5.810  10.233 -0.0884  0.5940 -0.4120
   41CHL1   H3' 5444   3.081   5.856  10.237  0.8955  2.2706  1.6154
   41CHL1    C4 5445   3.248   5.951  10.051  0.3178 -0.7035  0.1039
   41CHL1   H4A 5446   3.157   6.011  10.071  0.4729 -0.7569  0.9671
   41CHL1   H4B 5447   3.330   5.986  10.117 -1.3321  0.7319  1.4088
   41CHL1    C5 5448   3.275   5.960   9.901 -0.2556 -0.1142 -0.9599
   41CHL1    C6 5449   3.390   6.018   9.848  0.3538 -0.0807 -0.2640
   41CHL1    H6 5450   3.460   6.061   9.922  2.0454  0.2806 -2.0340
   41CHL1    C7 5451   3.424   6.023   9.703 -0.7983 -0.7960 -0.1332
   41CHL1   H7A 5452   3.477   6.120   9.697 -2.8571  0.2308 -2.3922
   41CHL1   H7B 5453   3.503   5.946   9.688  0.1985  0.2736 -0.3849
   41CHL1    C8 5454   3.296   6.017   9.623 -0.3807 -0.1299  0.2146
   41CHL1    H8 5455   3.233   6.106   9.643  1.2040  0.8981  0.6865
   41CHL1   C14 5456   3.329   6.019   9.474  0.3013  0.3667 -0.0166
   41CHL1   H14 5457   3.402   5.939   9.451 -0.9306 -0.8631  0.2476
   41CHL1   C15 5458   3.393   6.142   9.421  0.3476 -0.8202  0.4135
   41CHL1  H15A 5459   3.346   6.235   9.461  0.0736 -1.6459  2.0420
   41CHL1  H15B 5460   3.501   6.142   9.446  0.1288  0.3951  1.4113
   41CHL1   C16 5461   3.371   6.122   9.269 -0.2445  0.1167  0.9398
   41CHL1  H16A 5462   3.326   6.213   9.224  2.9437  1.6749  0.7814
   41CHL1  H16B 5463   3.464   6.088   9.218 -1.0456 -2.1601  0.9663
   41CHL1   C17 5464   3.267   6.002   9.248 -0.3435 -0.1000  0.9036
   41CHL1   H17 5465   3.326   5.908   9.238  1.3960  1.1113 -0.6545
   41CHL1   C13 5466   3.202   5.997   9.384 -0.1090 -0.0023  0.0492
   41CHL1   C18 5467   3.096   6.109   9.413 -0.1313  0.1234 -0.0392
   41CHL1  H18A 5468   2.996   6.084   9.372 -0.0486  1.2617 -0.9491
   41CHL1  H18B 5469   3.085   6.138   9.519  1.7856  2.5383 -0.4411
   41CHL1  H18C 5470   3.122   6.206   9.365  1.1994  0.2352  0.8943
   41CHL1   C12 5471   3.140   5.857   9.423  0.1135 -0.4127  0.4328
   41CHL1  H12A 5472   3.051   5.832   9.362  0.3200  1.3324 -0.6089
   41CHL1  H12B 5473   3.222   5.784   9.406  0.2852 -0.4950  1.5475
   41CHL1   C11 5474   3.102   5.847   9.572 -0.4444 -0.2932 -0.1719
   41CHL1  H11A 5475   3.019   5.918   9.588  0.3602  0.7606 -0.6258
   41CHL1  H11B 5476   3.088   5.741   9.604  4.2559 -0.5460  1.5184
   41CHL1    C9 5477   3.223   5.886   9.665 -0.1323  0.1095 -0.0726
   41CHL1    H9 5478   3.304   5.810   9.667 -0.8190 -0.7217 -2.1328
   41CHL1   C10 5479   3.171   5.895   9.809 -0.3851 -0.0279 -0.3218
   41CHL1   C19 5480   3.039   5.980   9.821 -0.4898  0.1407  0.4070
   41CHL1  H19A 5481   2.957   5.915   9.782 -1.1994  0.9752  0.4826
   41CHL1  H19B 5482   3.019   6.013   9.925 -0.5399  0.1814  0.3839
   41CHL1  H19C 5483   3.041   6.073   9.761  0.7424  1.1277  1.9435
   41CHL1    C1 5484   3.137   5.756   9.865 -0.1791 -0.0741  0.1199
   41CHL1   H1A 5485   3.058   5.705   9.806  0.1902 -0.3652 -0.1292
   41CHL1   H1B 5486   3.229   5.696   9.846 -0.1483 -0.2501  0.8415
   41CHL1    C2 5487   3.098   5.748  10.010 -0.0686  0.3199  0.4959
   41CHL1   H2A 5488   3.088   5.645  10.052 -0.6081  0.7897  1.5502
   41CHL1   H2B 5489   2.999   5.798  10.020 -0.4541 -0.0744 -1.1560
   41CHL1   C20 5490   3.188   6.008   9.114  0.7439 -0.1806 -0.3064
   41CHL1   H20 5491   3.099   6.075   9.119  0.4667 -0.6101  0.6656
   41CHL1   C21 5492   3.143   5.867   9.079 -0.0313  0.0769  0.7859
   41CHL1  H21A 5493   3.108   5.816   9.171  1.2234 -1.3073  0.5151
   41CHL1  H21B 5494   3.230   5.815   9.034  0.9276  1.3272  1.1737
   41CHL1  H21C 5495   3.063   5.863   9.002  1.7988 -1.3284 -1.0938
   41CHL1   C22 5496   3.266   6.074   8.994  0.4855  0.2267 -0.1819
   41CHL1  H22A 5497   3.314   6.167   9.033  1.4029  0.0410 -0.8646
   41CHL1  H22B 5498   3.347   6.002   8.969  0.5539  0.0228  0.6155
   41CHL1   C23 5499   3.191   6.092   8.866  0.9318  0.7961  0.1139
   41CHL1  H23A 5500   3.161   5.989   8.838 -0.3330  0.4990  2.4439
   41CHL1  H23B 5501   3.097   6.145   8.893  0.1604 -1.8469  2.8817
   41CHL1   C24 5502   3.266   6.168   8.753 -0.0247 -0.1654 -0.1195
   41CHL1  H24A 5503   3.285   6.273   8.787  1.7010 -0.8340  1.0255
   41CHL1  H24B 5504   3.363   6.117   8.738  1.1377  2.6645 -2.8481
   41CHL1   C25 5505   3.186   6.165   8.623 -0.0672 -0.1947 -0.2815
   41CHL1   H25 5506   3.159   6.060   8.600 -0.6100 -0.2148  0.4425
   41CHL1   C26 5507   3.059   6.254   8.637  0.0638 -0.5874  0.1850
   41CHL1  H26A 5508   2.988   6.230   8.556  0.3207 -0.6203 -0.0315
   41CHL1  H26B 5509   3.005   6.240   8.733  2.6459 -1.8111  1.5173
   41CHL1  H26C 5510   3.088   6.361   8.639 -0.4363 -0.4153 -1.2096
   41CHL1   C27 5511   3.266   6.213   8.508  0.3522  0.8407  0.3786
   41CHL1  H27A 5512   3.322   6.307   8.528 -0.2100  1.4849 -0.9760
   41CHL1  H27B 5513   3.350   6.141   8.494  0.3303  0.7516  0.7117
   41CHL1  H27C 5514   3.211   6.223   8.412 -1.2059 -2.6501  0.8620
   42CHL1    C3 5515   2.540   5.833   9.835  0.2277 -0.0739 -0.6679
   42CHL1    H3 5516   2.499   5.737   9.797  0.0064 -0.6226  0.9178
   42CHL1    O3 5517   2.547   5.837   9.976 -0.1699  0.4712 -0.1781
   42CHL1   H3' 5518   2.571   5.928   9.994 -1.7098  0.5461  1.6329
   42CHL1    C4 5519   2.687   5.852   9.785 -0.9028  0.0533  0.4673
   42CHL1   H4A 5520   2.731   5.945   9.827  0.5984 -0.1482 -0.6424
   42CHL1   H4B 5521   2.738   5.759   9.818 -1.0619  0.1927  1.1221
   42CHL1    C5 5522   2.677   5.868   9.632  0.7007  0.2436  0.3650
   42CHL1    C6 5523   2.736   5.781   9.551 -0.2219  0.9838 -0.1154
   42CHL1    H6 5524   2.786   5.691   9.589 -1.2228  0.3592 -0.2577
   42CHL1    C7 5525   2.734   5.803   9.403  0.7517  0.0565  0.2379
   42CHL1   H7A 5526   2.832   5.770   9.363  0.3060  1.9653 -2.5531
   42CHL1   H7B 5527   2.654   5.737   9.362  1.5709 -0.3089 -0.7925
   42CHL1    C8 5528   2.709   5.945   9.357 -0.0707  0.4455 -0.4061
   42CHL1    H8 5529   2.788   6.015   9.391  0.4752  0.9059 -2.5409
   42CHL1   C14 5530   2.695   5.951   9.201 -0.2170  0.6406 -0.2779
   42CHL1   H14 5531   2.613   5.881   9.178  0.4824 -0.3551  0.2414
   42CHL1   C15 5532   2.807   5.905   9.111  0.4738  0.1893 -0.1909
   42CHL1  H15A 5533   2.892   5.959   9.158  0.5893 -1.3389  1.3752
   42CHL1  H15B 5534   2.822   5.795   9.109 -1.3876 -0.1138  1.3448
   42CHL1   C16 5535   2.765   5.953   8.974  0.1159 -0.1901 -0.1031
   42CHL1  H16A 5536   2.855   5.986   8.919  0.8534 -1.8425  0.0877
   42CHL1  H16B 5537   2.730   5.864   8.916  0.0932 -0.5716  0.4892
   42CHL1   C17 5538   2.651   6.054   8.991 -0.4911 -0.1485  0.8082
   42CHL1   H17 5539   2.558   5.996   8.972 -0.4225  0.1033 -0.3193
   42CHL1   C13 5540   2.649   6.084   9.141 -0.2513 -0.1001 -0.3243
   42CHL1   C18 5541   2.767   6.182   9.159 -0.6316  0.3774 -0.2645
   42CHL1  H18A 5542   2.726   6.277   9.117 -0.9831  0.1074 -0.5330
   42CHL1  H18B 5543   2.791   6.188   9.267  2.6330 -0.9412 -0.8827
   42CHL1  H18C 5544   2.858   6.169   9.098 -1.1600  0.2558 -1.0358
   42CHL1   C12 5545   2.509   6.120   9.209 -0.1168 -0.0754 -0.1785
   42CHL1  H12A 5546   2.466   6.216   9.173 -1.1464 -0.8178 -0.9391
   42CHL1  H12B 5547   2.442   6.034   9.186 -1.7923  1.5901 -1.6968
   42CHL1   C11 5548   2.525   6.125   9.362 -0.6074  0.7635 -0.5984
   42CHL1  H11A 5549   2.588   6.214   9.381 -0.1998 -0.2955  3.4950
   42CHL1  H11B 5550   2.431   6.160   9.408 -0.4898 -0.8085  0.8805
   42CHL1    C9 5551   2.580   5.988   9.428 -0.0304 -0.0787 -0.2469
   42CHL1    H9 5552   2.509   5.908   9.399 -0.4811  0.0545  0.4804
   42CHL1   C10 5553   2.597   5.993   9.577  0.6355 -0.4878  0.2926
   42CHL1   C19 5554   2.680   6.121   9.618  1.1360  0.2315 -0.4046
   42CHL1  H19A 5555   2.678   6.141   9.727 -1.4434 -0.8625 -0.2173
   42CHL1  H19B 5556   2.787   6.114   9.588  1.7419 -0.5611  1.8250
   42CHL1  H19C 5557   2.630   6.207   9.569 -0.3548  0.1108  0.8591
   42CHL1    C1 5558   2.458   5.991   9.644 -0.0878 -0.2658  0.3099
   42CHL1   H1A 5559   2.410   6.091   9.635 -1.6946 -1.0066  0.3311
   42CHL1   H1B 5560   2.398   5.918   9.584 -1.2961  0.9688  0.0048
   42CHL1    C2 5561   2.444   5.946   9.790 -0.2624 -0.5717 -0.2994
   42CHL1   H2A 5562   2.343   5.908   9.814  0.0348 -1.0675  0.1776
   42CHL1   H2B 5563   2.466   6.029   9.862  0.7801  0.2555 -1.5541
   42CHL1   C20 5564   2.642   6.173   8.883  0.0633  0.2121  0.4087
   42CHL1   H20 5565   2.729   6.239   8.900  0.2892 -0.4295  1.7813
   42CHL1   C21 5566   2.512   6.258   8.891 -0.3790  0.5982  0.0012
   42CHL1  H21A 5567   2.422   6.194   8.884  1.2236 -2.2938  3.6364
   42CHL1  H21B 5568   2.505   6.343   8.821  1.8512  0.9038  0.0970
   42CHL1  H21C 5569   2.507   6.302   8.993 -0.6852 -3.6045  1.9302
   42CHL1   C22 5570   2.661   6.131   8.734 -0.3236  0.5941 -0.3920
   42CHL1  H22A 5571   2.666   6.219   8.666 -1.0624  0.2917 -0.8468
   42CHL1  H22B 5572   2.764   6.095   8.713 -0.8333 -0.4104 -1.1848
   42CHL1   C23 5573   2.571   6.023   8.674 -0.1694  0.0230 -0.2995
   42CHL1  H23A 5574   2.602   5.922   8.711  0.9463  0.0531 -1.1359
   42CHL1  H23B 5575   2.471   6.040   8.719 -0.1870  1.3909 -0.8544
   42CHL1   C24 5576   2.564   6.026   8.518 -0.1227 -0.2580  0.3190
   42CHL1  H24A 5577   2.662   6.026   8.466 -0.6347 -4.1295 -0.7945
   42CHL1  H24B 5578   2.508   5.933   8.494 -3.4093  1.3478  1.3089
   42CHL1   C25 5579   2.492   6.152   8.464  0.1505 -0.1178 -0.0445
   42CHL1   H25 5580   2.558   6.238   8.488 -0.8091  0.5982  0.0380
   42CHL1   C26 5581   2.484   6.132   8.309  0.2886 -0.3267  0.5446
   42CHL1  H26A 5582   2.587   6.145   8.269 -0.0140  1.6252  0.3318
   42CHL1  H26B 5583   2.436   6.036   8.279  0.1487 -0.2747  0.6066
   42CHL1  H26C 5584   2.422   6.210   8.259  0.2382  0.1879  1.3979
   42CHL1   C27 5585   2.354   6.173   8.514  0.6119  0.4359 -0.1633
   42CHL1  H27A 5586   2.317   6.263   8.460 -1.5104 -0.2675  0.0730
   42CHL1  H27B 5587   2.282   6.092   8.490  1.0388 -0.3576  1.2270
   42CHL1  H27C 5588   2.352   6.195   8.623 -1.6303  1.5873 -0.3953
   43CHL1    C3 5589   3.635   5.536  10.079 -0.3957 -0.0770  0.6115
   43CHL1    H3 5590   3.668   5.642  10.084 -0.0530 -0.2656  5.9873
   43CHL1    O3 5591   3.593   5.498  10.205  0.1171  0.5456 -0.2169
   43CHL1   H3' 5592   3.577   5.403  10.203 -0.1659  0.5615  1.0920
   43CHL1    C4 5593   3.520   5.528   9.982  0.4699  0.3301 -0.0555
   43CHL1   H4A 5594   3.474   5.428   9.999  0.5796  0.8281  3.4503
   43CHL1   H4B 5595   3.450   5.609  10.010  0.0529  0.0861 -0.3791
   43CHL1    C5 5596   3.563   5.545   9.834 -0.7429 -0.4607  0.2338
   43CHL1    C6 5597   3.514   5.646   9.758 -0.0168 -0.8120 -0.0272
   43CHL1    H6 5598   3.441   5.714   9.805 -0.0216 -0.9034  0.0938
   43CHL1    C7 5599   3.535   5.665   9.611  0.2907 -0.1604 -1.0186
   43CHL1   H7A 5600   3.442   5.685   9.553 -0.7736 -2.7822 -0.2971
   43CHL1   H7B 5601   3.602   5.754   9.606  1.0192 -0.5930  0.8686
   43CHL1    C8 5602   3.608   5.536   9.548  0.4562  0.8152 -0.5022
   43CHL1    H8 5603   3.528   5.459   9.544 -0.8710  2.0581  1.5376
   43CHL1   C14 5604   3.662   5.575   9.415 -0.8748  0.1950 -0.2156
   43CHL1   H14 5605   3.732   5.654   9.450 -0.9330 -0.1486  0.6836
   43CHL1   C15 5606   3.580   5.656   9.311 -0.5519  0.1971 -0.9520
   43CHL1  H15A 5607   3.476   5.620   9.299 -0.9434  0.9089  0.2159
   43CHL1  H15B 5608   3.571   5.764   9.338 -0.2028  0.5997 -2.4083
   43CHL1   C16 5609   3.660   5.646   9.176  0.6660  0.1437 -1.0117
   43CHL1  H16A 5610   3.598   5.589   9.104 -0.0804 -0.1270 -0.1598
   43CHL1  H16B 5611   3.700   5.742   9.137  0.9626 -1.3762 -4.5715
   43CHL1   C17 5612   3.772   5.541   9.206  0.3174  0.2009 -0.1404
   43CHL1   H17 5613   3.867   5.596   9.227  0.6129 -0.0352 -0.8538
   43CHL1   C13 5614   3.732   5.465   9.338  0.1899  0.6278 -0.2045
   43CHL1   C18 5615   3.624   5.357   9.304 -0.0900  0.3428  0.6088
   43CHL1  H18A 5616   3.663   5.269   9.248  1.3226  1.9582 -0.9927
   43CHL1  H18B 5617   3.596   5.310   9.401  1.5693 -2.9183 -0.4132
   43CHL1  H18C 5618   3.538   5.398   9.247  0.1845 -0.3249 -0.2945
   43CHL1   C12 5619   3.847   5.399   9.425  0.0963  0.6736 -0.5334
   43CHL1  H12A 5620   3.906   5.318   9.378  2.3586  1.5417  0.7416
   43CHL1  H12B 5621   3.922   5.480   9.436 -0.1104  1.0723 -1.9086
   43CHL1   C11 5622   3.792   5.361   9.564  0.3078  0.8806 -1.0957
   43CHL1  H11A 5623   3.726   5.272   9.556  1.5115 -0.1008 -0.2878
   43CHL1  H11B 5624   3.875   5.337   9.634 -1.4797 -0.1664  0.7272
   43CHL1    C9 5625   3.715   5.474   9.637 -0.3625 -0.0508  0.1521
   43CHL1    H9 5626   3.786   5.557   9.657 -0.7038  0.0202  1.1174
   43CHL1   C10 5627   3.666   5.445   9.781 -0.2725 -0.8127 -0.9230
   43CHL1   C19 5628   3.595   5.304   9.776  0.6491 -0.0678  0.3570
   43CHL1  H19A 5629   3.533   5.287   9.866 -3.0024 -1.2209 -2.2151
   43CHL1  H19B 5630   3.524   5.291   9.691 -0.7600  0.7938  1.3764
   43CHL1  H19C 5631   3.671   5.224   9.764  0.5208 -0.1585  0.1240
   43CHL1    C1 5632   3.787   5.450   9.875 -0.3328  0.3848  0.5883
   43CHL1   H1A 5633   3.853   5.362   9.855  1.5818  1.6312  1.2813
   43CHL1   H1B 5634   3.854   5.538   9.861  1.2511 -0.9290 -0.3472
   43CHL1    C2 5635   3.746   5.441  10.030  0.5411  0.4491  0.4618
   43CHL1   H2A 5636   3.841   5.467  10.081  0.9047  0.6510 -0.3080
   43CHL1   H2B 5637   3.703   5.344  10.065 -1.9616  0.8717 -1.3159
   43CHL1   C20 5638   3.804   5.450   9.089 -0.0503 -0.5926  0.8198
   43CHL1   H20 5639   3.725   5.374   9.073 -1.3157  0.6510  1.0592
   43CHL1   C21 5640   3.936   5.373   9.115  0.1023 -0.4757  0.3191
   43CHL1  H21A 5641   3.982   5.339   9.020 -0.0615  1.3029 -0.4088
   43CHL1  H21B 5642   3.918   5.284   9.180  0.5533 -0.9684 -0.2228
   43CHL1  H21C 5643   4.014   5.441   9.156 -1.9221  0.9139  1.9541
   43CHL1   C22 5644   3.814   5.516   8.953  0.2402 -0.3168 -0.2545
   43CHL1  H22A 5645   3.839   5.437   8.879 -0.5225  1.4243 -2.3891
   43CHL1  H22B 5646   3.722   5.566   8.918  0.2921  1.8609  2.5678
   43CHL1   C23 5647   3.928   5.626   8.945  0.5239 -0.4355 -0.1354
   43CHL1  H23A 5648   3.900   5.712   9.009  1.9645  0.6952 -0.9941
   43CHL1  H23B 5649   4.031   5.598   8.976  1.4091  0.8453 -1.7874
   43CHL1   C24 5650   3.933   5.671   8.797 -0.2352 -0.8003  0.0773
   43CHL1  H24A 5651   3.967   5.585   8.736  0.4932 -1.2006  1.0270
   43CHL1  H24B 5652   3.830   5.679   8.756  0.0090 -0.9197 -0.5634
   43CHL1   C25 5653   4.031   5.791   8.775  0.3319 -0.1053 -0.4183
   43CHL1   H25 5654   3.972   5.864   8.834 -3.0949 -3.3402  0.3661
   43CHL1   C26 5655   4.169   5.785   8.840 -0.0584 -0.1978 -0.1839
   43CHL1  H26A 5656   4.229   5.698   8.805  2.2025  0.8720  0.8927
   43CHL1  H26B 5657   4.234   5.874   8.827  1.4673 -1.2995 -0.2992
   43CHL1  H26C 5658   4.163   5.759   8.948 -0.0348 -3.5589 -0.9335
   43CHL1   C27 5659   4.040   5.832   8.628  0.7559 -0.3752  0.3080
   43CHL1  H27A 5660   3.955   5.794   8.569  0.3787  0.7320  0.1207
   43CHL1  H27B 5661   4.041   5.943   8.628 -2.6339 -0.2930  0.8179
   43CHL1  H27C 5662   4.126   5.781   8.579  1.0278 -0.7087  1.1178
   44CHL1    C3 5663   3.997   5.875  10.300 -0.2933  0.1497 -0.1538
   44CHL1    H3 5664   4.107   5.878  10.295 -0.3945  0.7188 -2.3088
   44CHL1    O3 5665   3.962   5.843  10.437  0.0683  0.5115 -0.2254
   44CHL1   H3' 5666   3.868   5.823  10.437 -0.0499  1.0390 -0.6326
   44CHL1    C4 5667   3.923   6.005  10.259  0.2791 -0.3774 -0.9458
   44CHL1   H4A 5668   3.818   6.005  10.294  1.1309  0.7633  1.8263
   44CHL1   H4B 5669   3.974   6.078  10.326  0.7929 -3.0125  1.6258
   44CHL1    C5 5670   3.917   6.043  10.110  0.1868  0.1684 -1.1222
   44CHL1    C6 5671   3.978   6.159  10.066  0.1472 -0.3849  0.6244
   44CHL1    H6 5672   4.004   6.232  10.145 -2.4449 -1.3738  2.4534
   44CHL1    C7 5673   3.984   6.197   9.923  0.5865  0.0270  0.5243
   44CHL1   H7A 5674   3.941   6.296   9.897  0.5364 -0.6130 -1.9458
   44CHL1   H7B 5675   4.090   6.184   9.892  0.3443 -1.5489  0.3204
   44CHL1    C8 5676   3.910   6.093   9.826  0.2047  0.2437 -0.0461
   44CHL1    H8 5677   3.802   6.117   9.835  0.4759  1.6705 -0.4928
   44CHL1   C14 5678   3.968   6.110   9.685 -0.2524 -0.1376 -0.8549
   44CHL1   H14 5679   4.076   6.089   9.700 -0.3783 -0.1885  0.0115
   44CHL1   C15 5680   3.975   6.254   9.626  0.5191 -0.4437  0.0414
   44CHL1  H15A 5681   3.884   6.316   9.638  1.4055  1.2204 -1.4573
   44CHL1  H15B 5682   4.059   6.316   9.664 -0.0558  0.3638  0.0061
   44CHL1   C16 5683   3.983   6.237   9.471 -0.7682  0.2434  0.2338
   44CHL1  H16A 5684   3.917   6.300   9.408  1.1060  2.8013  0.7928
   44CHL1  H16B 5685   4.084   6.274   9.444 -0.5460  1.1318  2.1931
   44CHL1   C17 5686   3.977   6.078   9.452  0.1518  0.1987 -0.2700
   44CHL1   H17 5687   4.081   6.040   9.447  0.5032  1.1465 -0.2008
   44CHL1   C13 5688   3.911   6.024   9.579 -0.4102  0.0859 -0.0790
   44CHL1   C18 5689   3.755   6.042   9.568  0.1390  0.1318 -0.0078
   44CHL1  H18A 5690   3.716   6.012   9.668 -2.3449 -1.9095 -1.5563
   44CHL1  H18B 5691   3.727   6.145   9.538  1.1822  1.0797  2.1158
   44CHL1  H18C 5692   3.718   5.976   9.487 -1.2148  0.5030  0.2959
   44CHL1   C12 5693   3.945   5.874   9.613 -0.0967  0.6161 -0.6032
   44CHL1  H12A 5694   3.893   5.803   9.545  1.2314  0.9502 -1.9848
   44CHL1  H12B 5695   4.053   5.857   9.593  0.1777  0.9992  0.4930
   44CHL1   C11 5696   3.907   5.830   9.756  0.8138 -0.2045  0.3082
   44CHL1  H11A 5697   3.798   5.808   9.753  0.9548 -0.8285 -0.2879
   44CHL1  H11B 5698   3.960   5.735   9.778 -0.7873 -1.3785 -0.7454
   44CHL1    C9 5699   3.929   5.944   9.866 -0.5053  0.4458  0.1197
   44CHL1    H9 5700   4.038   5.942   9.890 -0.6880 -2.0509  0.8792
   44CHL1   C10 5701   3.877   5.917  10.016 -0.9210  0.0337  0.5696
   44CHL1   C19 5702   3.721   5.885  10.009  0.8417  0.5893 -0.2168
   44CHL1  H19A 5703   3.668   5.969   9.959 -2.1299 -0.8598  0.3871
   44CHL1  H19B 5704   3.692   5.794   9.952  0.7753  0.8104 -0.5380
   44CHL1  H19C 5705   3.689   5.889  10.116 -1.0415 -1.6461 -0.6836
   44CHL1    C1 5706   3.953   5.790  10.069 -0.3586  0.0211  0.6514
   44CHL1   H1A 5707   3.914   5.702  10.013 -0.3647  0.6572 -0.3709
   44CHL1   H1B 5708   4.062   5.796  10.047 -0.6889  3.2716 -0.4516
   44CHL1    C2 5709   3.944   5.756  10.213 -0.4524 -0.3481  0.1136
   44CHL1   H2A 5710   3.992   5.660  10.238 -3.5285 -1.9537  0.1380
   44CHL1   H2B 5711   3.836   5.740  10.235  0.4601 -2.8604  2.9971
   44CHL1   C20 5712   3.915   6.031   9.309  0.2361 -0.5388 -0.2347
   44CHL1   H20 5713   3.805   6.047   9.311  0.1171 -1.1719 -1.3696
   44CHL1   C21 5714   3.918   5.873   9.310 -0.3984 -0.1688 -0.8130
   44CHL1  H21A 5715   3.829   5.829   9.359 -0.5747  0.6275 -0.4148
   44CHL1  H21B 5716   4.012   5.832   9.353 -0.5837  0.5286  0.2660
   44CHL1  H21C 5717   3.920   5.835   9.205  0.3095 -2.8373  0.1119
   44CHL1   C22 5718   3.993   6.098   9.192  0.1170  0.0649  0.2691
   44CHL1  H22A 5719   3.946   6.058   9.099 -0.0404 -0.6906  0.6681
   44CHL1  H22B 5720   3.979   6.208   9.188  2.4467  0.3602 -0.3255
   44CHL1   C23 5721   4.146   6.083   9.186  0.1549 -0.0166  0.2701
   44CHL1  H23A 5722   4.178   6.129   9.282 -0.6439 -0.7372  0.9052
   44CHL1  H23B 5723   4.171   5.975   9.191 -1.1964 -0.2912  1.9090
   44CHL1   C24 5724   4.219   6.168   9.077  0.1595  0.0335  0.8874
   44CHL1  H24A 5725   4.208   6.139   8.970 -0.7908  1.0808  0.6917
   44CHL1  H24B 5726   4.169   6.267   9.081 -0.3332 -0.2002  0.5673
   44CHL1   C25 5727   4.374   6.170   9.092  0.2526  0.3554 -0.4302
   44CHL1   H25 5728   4.394   6.234   9.180 -1.5213  0.8260 -0.3404
   44CHL1   C26 5729   4.430   6.026   9.107 -0.2190 -0.4779  0.1762
   44CHL1  H26A 5730   4.373   5.961   9.038  0.0524 -1.7871  1.1472
   44CHL1  H26B 5731   4.536   6.013   9.074 -0.1882  1.1626 -0.4195
   44CHL1  H26C 5732   4.421   5.990   9.212  0.7452  2.9239  1.4796
   44CHL1   C27 5733   4.432   6.251   8.973  0.1480  0.3692 -0.8772
   44CHL1  H27A 5734   4.540   6.258   8.996  0.3746 -0.6633 -1.5815
   44CHL1  H27B 5735   4.413   6.192   8.881  1.7309  0.0300 -0.9983
   44CHL1  H27C 5736   4.394   6.355   8.964 -0.5356  0.1699 -0.3164
   45CHL1    C3 5737   0.404   4.943  10.217  0.0828  0.5251 -0.3834
   45CHL1    H3 5738   0.335   4.865  10.179 -0.8552  0.9915  0.3125
   45CHL1    O3 5739   0.398   4.936  10.361  0.1312 -0.3933  0.0696
   45CHL1   H3' 5740   0.308   4.955  10.389  0.6023  0.4257  1.0651
   45CHL1    C4 5741   0.545   4.914  10.167 -0.2601  0.2013  0.0340
   45CHL1   H4A 5742   0.605   4.992  10.219 -1.2417 -0.6456  2.4846
   45CHL1   H4B 5743   0.578   4.819  10.214  2.4095  1.8043  1.5429
   45CHL1    C5 5744   0.556   4.918  10.013 -0.2263  0.1241 -1.0779
   45CHL1    C6 5745   0.590   4.807   9.943 -0.2501 -0.5480 -0.1480
   45CHL1    H6 5746   0.620   4.714   9.993 -2.0499  0.0185  2.0715
   45CHL1    C7 5747   0.595   4.804   9.792 -0.3009  0.7049  0.3264
   45CHL1   H7A 5748   0.691   4.758   9.761 -1.0018 -1.4513  1.2439
   45CHL1   H7B 5749   0.514   4.744   9.745  0.9525 -1.1469  0.4722
   45CHL1    C8 5750   0.584   4.949   9.718 -0.3162  0.3827  0.0819
   45CHL1    H8 5751   0.530   4.920   9.625 -0.7006  0.8387  0.1652
   45CHL1   C14 5752   0.717   5.012   9.685 -0.2030  0.6079 -1.0090
   45CHL1   H14 5753   0.767   5.021   9.784 -2.8978 -0.9576  0.5483
   45CHL1   C15 5754   0.800   4.933   9.578  0.1568 -0.0891  0.6622
   45CHL1  H15A 5755   0.905   4.969   9.581  0.1238 -0.0280  1.1547
   45CHL1  H15B 5756   0.793   4.823   9.594  3.2137 -0.4377 -0.0268
   45CHL1   C16 5757   0.736   4.975   9.447  0.0397 -0.2894  0.5189
   45CHL1  H16A 5758   0.813   4.962   9.367  0.0599  1.4821  0.2450
   45CHL1  H16B 5759   0.656   4.903   9.419  0.9999 -0.7378 -1.1770
   45CHL1   C17 5760   0.679   5.117   9.469 -0.0733 -0.9277 -0.5067
   45CHL1   H17 5761   0.568   5.117   9.465 -0.1005 -1.4702  0.0991
   45CHL1   C13 5762   0.713   5.153   9.617  0.3944 -0.1847 -0.2717
   45CHL1   C18 5763   0.851   5.220   9.628  0.3467 -0.1701  1.0296
   45CHL1  H18A 5764   0.854   5.330   9.613  0.9489 -0.5686 -2.1939
   45CHL1  H18B 5765   0.897   5.209   9.728  3.8983 -2.0711 -0.7223
   45CHL1  H18C 5766   0.925   5.177   9.558  0.1457 -0.1827  0.8243
   45CHL1   C12 5767   0.605   5.243   9.688  0.0460 -0.4118  0.0694
   45CHL1  H12A 5768   0.655   5.296   9.772  2.8754  0.2782 -1.9792
   45CHL1  H12B 5769   0.589   5.320   9.610 -2.3749 -1.1607 -0.2353
   45CHL1   C11 5770   0.465   5.179   9.721  0.0574  0.4005  0.0123
   45CHL1  H11A 5771   0.411   5.254   9.782 -0.2882  0.7839 -0.7551
   45CHL1  H11B 5772   0.403   5.171   9.629  0.4576 -1.5737 -0.1158
   45CHL1    C9 5773   0.484   5.045   9.795 -0.9574 -0.2222  0.6592
   45CHL1    H9 5774   0.390   4.985   9.785 -0.7657 -0.6873  1.5517
   45CHL1   C10 5775   0.504   5.051   9.951 -0.6391  0.7362 -0.2268
   45CHL1   C19 5776   0.603   5.163  10.000 -0.0943  0.1666 -0.6548
   45CHL1  H19A 5777   0.588   5.188  10.107 -1.4748 -0.2443 -0.7427
   45CHL1  H19B 5778   0.710   5.137   9.986  0.1994 -0.2839  2.0504
   45CHL1  H19C 5779   0.579   5.259   9.949 -1.4745  0.8798  1.2393
   45CHL1    C1 5780   0.363   5.090  10.008 -0.0624  0.7549  0.4317
   45CHL1   H1A 5781   0.348   5.194   9.973  0.2362  0.2101 -1.3845
   45CHL1   H1B 5782   0.285   5.022   9.968  1.5263  0.3696 -2.1580
   45CHL1    C2 5783   0.359   5.078  10.162 -0.1171 -0.0963 -0.2306
   45CHL1   H2A 5784   0.249   5.081  10.181  0.0791 -1.8809  1.3355
   45CHL1   H2B 5785   0.399   5.173  10.203 -4.1102  1.7259 -0.3313
   45CHL1   C20 5786   0.727   5.214   9.368  0.0843  0.6806  0.3543
   45CHL1   H20 5787   0.837   5.227   9.373  0.0383  1.2831 -0.1713
   45CHL1   C21 5788   0.657   5.349   9.376  0.2865 -0.0402 -0.1111
   45CHL1  H21A 5789   0.702   5.417   9.452 -0.1905 -0.6750  0.7505
   45CHL1  H21B 5790   0.552   5.326   9.401  0.9668 -3.1271  0.1253
   45CHL1  H21C 5791   0.652   5.412   9.284 -2.4674  1.4091  0.9895
   45CHL1   C22 5792   0.702   5.157   9.225 -0.8773 -0.0636  1.0523
   45CHL1  H22A 5793   0.726   5.049   9.214 -1.3335 -0.1679  1.0717
   45CHL1  H22B 5794   0.595   5.164   9.199 -0.6003 -0.4920 -0.2635
   45CHL1   C23 5795   0.771   5.224   9.110 -0.5460 -1.0098 -0.2000
   45CHL1  H23A 5796   0.757   5.333   9.096  1.4114 -0.6816  0.2038
   45CHL1  H23B 5797   0.881   5.223   9.125 -0.3386  1.7908 -1.3611
   45CHL1   C24 5798   0.733   5.161   8.976  0.0259  0.1848 -0.2438
   45CHL1  H24A 5799   0.731   5.050   8.980  2.8865 -0.0057 -2.2061
   45CHL1  H24B 5800   0.627   5.186   8.956  0.9591  2.5055 -2.5709
   45CHL1   C25 5801   0.817   5.209   8.853 -0.3664 -0.3198 -0.3961
   45CHL1   H25 5802   0.921   5.179   8.880 -0.3259  1.9644  2.1635
   45CHL1   C26 5803   0.770   5.129   8.736  0.6033  0.7387  0.3571
   45CHL1  H26A 5804   0.840   5.139   8.650  0.7752 -2.2789  0.0935
   45CHL1  H26B 5805   0.770   5.023   8.768  1.6060  0.0938 -1.6595
   45CHL1  H26C 5806   0.667   5.158   8.702 -0.3357 -1.2936  1.4079
   45CHL1   C27 5807   0.798   5.358   8.834  0.4198  0.1228 -0.3118
   45CHL1  H27A 5808   0.700   5.396   8.871  0.5415  0.6593 -0.5408
   45CHL1  H27B 5809   0.873   5.422   8.885  0.3904 -0.0213 -0.0841
   45CHL1  H27C 5810   0.808   5.376   8.725  0.5205 -2.4955 -0.7633
   46CHL1    C3 5811   3.133   2.241  10.056  0.0741 -0.4658  0.2949
   46CHL1    H3 5812   3.049   2.171  10.038 -1.4385  0.7898  2.2078
   46CHL1    O3 5813   3.147   2.261  10.196  0.0854 -0.0015 -0.5404
   46CHL1   H3' 5814   3.071   2.214  10.231  1.0808 -0.0570  1.6788
   46CHL1    C4 5815   3.264   2.192   9.986  0.2461 -0.0704  0.5323
   46CHL1   H4A 5816   3.346   2.261  10.017 -0.2721  1.2386 -0.9933
   46CHL1   H4B 5817   3.291   2.092  10.025  1.8903 -0.0635 -0.5181
   46CHL1    C5 5818   3.251   2.198   9.838 -0.3006 -0.4031  0.1214
   46CHL1    C6 5819   3.273   2.090   9.764  0.3258  0.4565  0.5070
   46CHL1    H6 5820   3.304   1.997   9.815  0.2042  0.4812  0.6242
   46CHL1    C7 5821   3.265   2.082   9.612 -0.2957  0.4663 -0.4527
   46CHL1   H7A 5822   3.342   2.020   9.561 -0.8384  1.0271 -1.9895
   46CHL1   H7B 5823   3.166   2.036   9.591 -0.0870  0.3009 -1.0851
   46CHL1    C8 5824   3.274   2.222   9.546  0.6694  0.4213 -0.3293
   46CHL1    H8 5825   3.379   2.254   9.557  0.7446  0.5875 -1.4185
   46CHL1   C14 5826   3.234   2.229   9.401  0.0814  0.6097 -0.0369
   46CHL1   H14 5827   3.131   2.187   9.400  0.4916 -0.4011 -0.3161
   46CHL1   C15 5828   3.311   2.128   9.301  0.7406  0.6329  0.2679
   46CHL1  H15A 5829   3.420   2.129   9.319  0.7960 -3.0886  0.4715
   46CHL1  H15B 5830   3.270   2.025   9.295 -0.2049  1.0556 -0.7465
   46CHL1   C16 5831   3.295   2.197   9.164  0.2808 -0.1005  0.0890
   46CHL1  H16A 5832   3.398   2.201   9.120  1.2802  0.8579  2.4436
   46CHL1  H16B 5833   3.237   2.130   9.098 -0.3759 -3.2920  3.7232
   46CHL1   C17 5834   3.213   2.324   9.186 -0.9279 -0.0846  0.4438
   46CHL1   H17 5835   3.108   2.289   9.198 -0.8943 -1.1726 -2.1130
   46CHL1   C13 5836   3.243   2.361   9.331 -0.3616 -0.4439  0.3003
   46CHL1   C18 5837   3.383   2.431   9.348  0.6105  0.6834  1.0167
   46CHL1  H18A 5838   3.377   2.525   9.288 -0.6732 -0.4877 -0.7548
   46CHL1  H18B 5839   3.415   2.449   9.452  0.1370 -0.9761  1.4562
   46CHL1  H18C 5840   3.457   2.369   9.293 -0.7675  0.6957 -0.8978
   46CHL1   C12 5841   3.141   2.462   9.398 -0.5650  0.2800  0.1299
   46CHL1  H12A 5842   3.148   2.562   9.350 -1.7882  0.1174 -0.4019
   46CHL1  H12B 5843   3.039   2.424   9.377 -1.0539  1.7833 -0.3075
   46CHL1   C11 5844   3.167   2.467   9.549 -0.2730 -0.5312  0.3617
   46CHL1  H11A 5845   3.249   2.538   9.571  0.7720 -1.3503 -0.7582
   46CHL1  H11B 5846   3.082   2.517   9.599 -0.0252 -0.8217  1.0809
   46CHL1    C9 5847   3.180   2.324   9.624  0.2971 -0.3023 -0.6448
   46CHL1    H9 5848   3.076   2.287   9.618  0.2128 -0.5273  1.9279
   46CHL1   C10 5849   3.209   2.334   9.777  0.0751 -0.2946  0.2556
   46CHL1   C19 5850   3.324   2.433   9.787 -0.0312 -0.5946 -0.4110
   46CHL1  H19A 5851   3.407   2.413   9.716 -0.2256  0.4261 -0.9222
   46CHL1  H19B 5852   3.277   2.533   9.780  0.7838 -0.0615  1.3137
   46CHL1  H19C 5853   3.372   2.434   9.887  1.8577 -0.3351 -1.3010
   46CHL1    C1 5854   3.082   2.379   9.847 -0.0030  0.1359 -0.6160
   46CHL1   H1A 5855   3.055   2.477   9.803  0.0635 -0.7247 -2.6706
   46CHL1   H1B 5856   2.995   2.311   9.831 -1.3712  1.8794 -0.7560
   46CHL1    C2 5857   3.100   2.381  10.004  0.5281  0.0121  0.0879
   46CHL1   H2A 5858   3.009   2.426  10.049 -0.4397 -2.5832  0.8053
   46CHL1   H2B 5859   3.173   2.462  10.025 -1.7015  2.1978 -0.2894
   46CHL1   C20 5860   3.226   2.434   9.087  0.0798 -0.5392  0.0251
   46CHL1   H20 5861   3.202   2.526   9.145  1.6289  0.7003 -1.2594
   46CHL1   C21 5862   3.116   2.407   8.979 -0.1220 -0.5098  0.1043
   46CHL1  H21A 5863   3.148   2.328   8.908  0.1593 -0.3677  0.0751
   46CHL1  H21B 5864   3.097   2.502   8.923  2.3911 -1.6869 -2.9511
   46CHL1  H21C 5865   3.018   2.381   9.025 -2.0837  1.5622 -2.7143
   46CHL1   C22 5866   3.368   2.448   9.018 -0.4681  0.4640 -0.8302
   46CHL1  H22A 5867   3.446   2.448   9.098 -1.3559 -1.1474  0.0427
   46CHL1  H22B 5868   3.373   2.356   8.956  0.3565  0.0916 -0.2298
   46CHL1   C23 5869   3.380   2.574   8.927 -0.1929  0.5018 -0.7487
   46CHL1  H23A 5870   3.300   2.568   8.850 -1.2998 -0.6795  0.4683
   46CHL1  H23B 5871   3.357   2.665   8.986  1.5278 -0.8865  2.1647
   46CHL1   C24 5872   3.523   2.579   8.881  0.5034 -0.4601  0.2466
   46CHL1  H24A 5873   3.591   2.605   8.966 -0.2971 -0.5288  0.9128
   46CHL1  H24B 5874   3.559   2.488   8.829  0.7884  0.7511 -1.7260
   46CHL1   C25 5875   3.548   2.686   8.770  0.2858 -0.0012 -0.5475
   46CHL1   H25 5876   3.654   2.669   8.744  1.1177  1.1326  1.8925
   46CHL1   C26 5877   3.470   2.650   8.641  0.9731  1.0571  0.3480
   46CHL1  H26A 5878   3.517   2.707   8.558  1.7529 -0.3758 -0.2143
   46CHL1  H26B 5879   3.473   2.545   8.605  2.1332  0.6761  1.5125
   46CHL1  H26C 5880   3.365   2.688   8.643  0.3582 -0.4842 -0.8288
   46CHL1   C27 5881   3.535   2.830   8.825  0.1348  0.1371  0.5975
   46CHL1  H27A 5882   3.427   2.850   8.839 -0.6364 -3.5853  0.6332
   46CHL1  H27B 5883   3.577   2.835   8.927 -0.3375 -0.9667  0.8488
   46CHL1  H27C 5884   3.577   2.897   8.746 -0.2053 -0.6225 -0.2435
   47CHL1    C3 5885   4.340   5.457  10.067  0.6047  0.8733 -0.5805
   47CHL1    H3 5886   4.430   5.523  10.076 -1.3373  3.3178  1.7988
   47CHL1    O3 5887   4.291   5.424  10.199  0.2038 -0.5670  0.4981
   47CHL1   H3' 5888   4.231   5.351  10.185  0.3239 -0.2809 -1.5585
   47CHL1    C4 5889   4.224   5.524   9.992  0.3562 -0.3746  0.2888
   47CHL1   H4A 5890   4.124   5.477  10.001 -0.3228  1.2120  1.2709
   47CHL1   H4B 5891   4.208   5.621  10.043  0.1463 -0.2435 -0.0327
   47CHL1    C5 5892   4.273   5.561   9.851 -0.1321 -0.2772  0.3142
   47CHL1    C6 5893   4.284   5.687   9.800  0.2516  0.4369  0.5549
   47CHL1    H6 5894   4.253   5.769   9.865  0.5197 -0.2174  1.5209
   47CHL1    C7 5895   4.317   5.713   9.654 -0.0638  0.7367 -0.4833
   47CHL1   H7A 5896   4.247   5.793   9.622  0.4849  1.7071  0.7168
   47CHL1   H7B 5897   4.412   5.770   9.645  0.0437  0.4369 -1.2607
   47CHL1    C8 5898   4.314   5.589   9.557 -0.6576 -1.0276  0.3630
   47CHL1    H8 5899   4.209   5.562   9.534 -1.1172  1.4609 -0.5284
   47CHL1   C14 5900   4.382   5.610   9.422  0.2875  0.3698  0.1658
   47CHL1   H14 5901   4.487   5.628   9.452  0.1759  0.7881  0.3065
   47CHL1   C15 5902   4.353   5.725   9.329 -0.2205 -0.0831  0.3811
   47CHL1  H15A 5903   4.247   5.757   9.336 -0.2225  0.3861 -1.4117
   47CHL1  H15B 5904   4.410   5.810   9.372 -0.3339 -0.1291  0.6192
   47CHL1   C16 5905   4.391   5.690   9.192 -0.4960  0.3308 -0.2782
   47CHL1  H16A 5906   4.301   5.694   9.127  0.2647  3.4330 -1.2376
   47CHL1  H16B 5907   4.463   5.761   9.146 -1.3015  0.9615 -0.5592
   47CHL1   C17 5908   4.464   5.551   9.211 -0.7862  0.6880  0.6789
   47CHL1   H17 5909   4.569   5.579   9.235  0.6265 -1.7804 -2.2140
   47CHL1   C13 5910   4.403   5.481   9.331 -0.0204  0.2145  0.3480
   47CHL1   C18 5911   4.261   5.427   9.279  0.1270 -0.0233 -0.3788
   47CHL1  H18A 5912   4.207   5.496   9.211  1.1790  3.2472  1.9940
   47CHL1  H18B 5913   4.270   5.329   9.227  1.7649 -0.1523  0.0970
   47CHL1  H18C 5914   4.190   5.410   9.362  0.2372 -3.1866 -0.8853
   47CHL1   C12 5915   4.475   5.367   9.411  0.5340  0.6298  0.0362
   47CHL1  H12A 5916   4.467   5.270   9.357 -1.7389  1.5541 -1.3918
   47CHL1  H12B 5917   4.576   5.411   9.425 -0.7442  3.4572  0.7344
   47CHL1   C11 5918   4.388   5.351   9.539 -0.1571  0.0044  0.1572
   47CHL1  H11A 5919   4.289   5.310   9.507  1.0057 -1.8656 -1.1656
   47CHL1  H11B 5920   4.424   5.264   9.598 -0.9847 -0.7748 -0.4598
   47CHL1    C9 5921   4.373   5.471   9.637  0.0178 -0.3350 -0.3671
   47CHL1    H9 5922   4.476   5.501   9.662 -0.5326  1.6815 -0.4108
   47CHL1   C10 5923   4.308   5.435   9.767  1.5106 -0.7515  0.2271
   47CHL1   C19 5924   4.184   5.353   9.729  0.3339  0.1549  0.3137
   47CHL1  H19A 5925   4.207   5.254   9.686 -0.8905  1.1498 -2.7990
   47CHL1  H19B 5926   4.114   5.336   9.813 -0.3887  1.9262  0.0955
   47CHL1  H19C 5927   4.130   5.410   9.650  0.3589 -0.9641 -0.5279
   47CHL1    C1 5928   4.408   5.343   9.847  0.1919  0.5240  0.0597
   47CHL1   H1A 5929   4.418   5.237   9.815  0.5923  1.3826 -2.7671
   47CHL1   H1B 5930   4.509   5.388   9.847  0.1427  0.6374 -0.3902
   47CHL1    C2 5931   4.375   5.332   9.995  0.1773  0.0322 -0.1592
   47CHL1   H2A 5932   4.466   5.299  10.049  0.4639  1.0345 -0.0212
   47CHL1   H2B 5933   4.295   5.255  10.003 -0.8872  0.6891 -3.7383
   47CHL1   C20 5934   4.488   5.457   9.083 -0.4737 -0.2754 -1.0896
   47CHL1   H20 5935   4.396   5.395   9.076 -0.8487  0.3083 -1.4535
   47CHL1   C21 5936   4.606   5.355   9.095  0.7881 -0.4302  0.4381
   47CHL1  H21A 5937   4.703   5.408   9.105  0.6417  0.6349 -2.8529
   47CHL1  H21B 5938   4.604   5.280   9.013 -1.4380  0.1901 -0.1276
   47CHL1  H21C 5939   4.592   5.298   9.189 -0.1104  1.7151  1.6416
   47CHL1   C22 5940   4.484   5.532   8.948  0.4445  0.4130  0.6308
   47CHL1  H22A 5941   4.471   5.466   8.859 -3.3402  1.4648  0.3329
   47CHL1  H22B 5942   4.383   5.577   8.937  0.2511 -0.2222 -0.1988
   47CHL1   C23 5943   4.594   5.635   8.937  1.1242  0.4676 -0.4521
   47CHL1  H23A 5944   4.616   5.690   9.031 -1.7194  0.4319  0.2768
   47CHL1  H23B 5945   4.683   5.569   8.945 -0.5813 -1.7743  0.7932
   47CHL1   C24 5946   4.582   5.701   8.806 -0.8870 -0.7251 -0.2900
   47CHL1  H24A 5947   4.575   5.626   8.725  1.2399 -0.0496 -1.1306
   47CHL1  H24B 5948   4.493   5.767   8.800  0.6067  1.5084  1.2196
   47CHL1   C25 5949   4.708   5.790   8.765  0.0548  0.5486 -0.5868
   47CHL1   H25 5950   4.786   5.717   8.735 -0.5357 -0.8437  1.1431
   47CHL1   C26 5951   4.669   5.879   8.652 -0.2716 -0.0138 -0.1781
   47CHL1  H26A 5952   4.760   5.934   8.620  0.2239 -0.8329 -0.1727
   47CHL1  H26B 5953   4.601   5.959   8.688  1.7199  1.8010 -0.3368
   47CHL1  H26C 5954   4.628   5.826   8.564 -2.2504 -0.8622  1.2011
   47CHL1   C27 5955   4.769   5.875   8.880 -0.4752 -0.1352  0.1246
   47CHL1  H27A 5956   4.686   5.945   8.903 -1.6280  0.2906 -4.9370
   47CHL1  H27B 5957   4.789   5.816   8.972 -3.5038 -1.0119  0.2632
   47CHL1  H27C 5958   4.866   5.921   8.851 -1.0890  1.2983  0.3298
   48CHL1    C3 5959   5.026   6.815  10.257 -0.3394 -0.0358  0.3160
   48CHL1    H3 5960   4.979   6.908  10.219 -0.8946  0.5274  2.3656
   48CHL1    O3 5961   5.107   6.839  10.376  0.0115 -0.0146  0.3107
   48CHL1   H3' 5962   5.188   6.792  10.356 -0.1231 -0.0080 -0.2491
   48CHL1    C4 5963   4.911   6.718  10.267  0.2636 -0.5480  0.1415
   48CHL1   H4A 5964   4.955   6.620  10.294 -1.6530 -1.7733 -1.1043
   48CHL1   H4B 5965   4.844   6.756  10.347  1.4073 -0.9897  1.3084
   48CHL1    C5 5966   4.836   6.705  10.134  0.2439  0.6047 -0.0564
   48CHL1    C6 5967   4.707   6.719  10.115  0.2827  0.2809 -0.3270
   48CHL1    H6 5968   4.642   6.758  10.195  0.3127  2.6636 -1.4297
   48CHL1    C7 5969   4.636   6.693   9.981 -0.1721  0.3035  0.6027
   48CHL1   H7A 5970   4.540   6.639   9.998 -0.3302 -0.1932 -1.7176
   48CHL1   H7B 5971   4.622   6.797   9.944 -1.5816 -0.2157 -0.3887
   48CHL1    C8 5972   4.722   6.609   9.887 -0.5831  0.2400 -0.2888
   48CHL1    H8 5973   4.732   6.505   9.926  0.3855  0.2848 -0.3894
   48CHL1   C14 5974   4.665   6.616   9.749  0.3254 -0.8039 -1.2218
   48CHL1   H14 5975   4.666   6.722   9.715 -0.1012 -0.8229 -1.2900
   48CHL1   C15 5976   4.519   6.572   9.731 -0.2049  0.0136 -0.5490
   48CHL1  H15A 5977   4.496   6.475   9.781 -0.2750  0.8893  1.1391
   48CHL1  H15B 5978   4.453   6.653   9.770  1.3053  0.6526  0.7179
   48CHL1   C16 5979   4.509   6.551   9.582 -0.8271  0.5999 -0.3047
   48CHL1  H16A 5980   4.471   6.449   9.562  1.2564 -0.7935  2.4411
   48CHL1  H16B 5981   4.453   6.636   9.537 -2.1948 -0.7073 -1.0911
   48CHL1   C17 5982   4.655   6.547   9.521 -0.2981 -0.0201  0.2514
   48CHL1   H17 5983   4.667   6.646   9.472  3.0168 -1.3890 -1.8578
   48CHL1   C13 5984   4.746   6.545   9.646 -0.5322 -0.2736 -0.3667
   48CHL1   C18 5985   4.773   6.399   9.688 -0.8708  0.0392  0.4815
   48CHL1  H18A 5986   4.833   6.354   9.606  1.5636  1.2786  1.5489
   48CHL1  H18B 5987   4.836   6.389   9.779 -1.1933  0.6390  0.7779
   48CHL1  H18C 5988   4.675   6.354   9.716 -1.7042  1.8897  0.6391
   48CHL1   C12 5989   4.884   6.612   9.630 -0.8484  0.2891  0.2139
   48CHL1  H12A 5990   4.949   6.560   9.557 -0.3155  1.3166 -0.0520
   48CHL1  H12B 5991   4.868   6.713   9.586 -1.1602  0.7453  1.3572
   48CHL1   C11 5992   4.952   6.614   9.763 -0.8430  0.3602  0.5772
   48CHL1  H11A 5993   4.995   6.513   9.782  1.1649  1.2862  1.1308
   48CHL1  H11B 5994   5.034   6.688   9.754 -1.6644  1.0967 -1.0583
   48CHL1    C9 5995   4.867   6.658   9.880  0.1343  0.0387 -0.5890
   48CHL1    H9 5996   4.861   6.767   9.860  0.4578  0.2660  0.5189
   48CHL1   C10 5997   4.934   6.659  10.021  0.4162  0.4755 -0.4828
   48CHL1   C19 5998   4.992   6.515  10.041 -0.3699  0.5263  0.6175
   48CHL1  H19A 5999   4.914   6.436  10.030 -1.0100  1.1378  0.7097
   48CHL1  H19B 6000   5.068   6.482   9.968 -1.3602  0.2402 -0.2987
   48CHL1  H19C 6001   5.053   6.495  10.132 -0.1035 -1.3580  0.0541
   48CHL1    C1 6002   5.051   6.754  10.019 -0.3964  0.0853  0.1584
   48CHL1   H1A 6003   5.130   6.710   9.955  0.1478  0.8351  0.3076
   48CHL1   H1B 6004   5.032   6.856   9.980 -2.2219 -0.0766  0.5758
   48CHL1    C2 6005   5.123   6.768  10.151  0.3014  0.5931 -0.0462
   48CHL1   H2A 6006   5.206   6.842  10.153  1.0301 -0.2589  2.1604
   48CHL1   H2B 6007   5.176   6.673  10.173 -0.9816 -0.3553 -0.9440
   48CHL1   C20 6008   4.683   6.447   9.407 -0.2797  0.1801 -0.0586
   48CHL1   H20 6009   4.674   6.343   9.444 -1.2662  0.3159  0.0921
   48CHL1   C21 6010   4.824   6.456   9.338  0.6804 -0.3710 -0.1500
   48CHL1  H21A 6011   4.902   6.420   9.408 -0.2723  1.3742  1.8849
   48CHL1  H21B 6012   4.854   6.558   9.306  2.5337 -0.5011  1.1008
   48CHL1  H21C 6013   4.823   6.386   9.252 -1.1557  0.6399 -0.9774
   48CHL1   C22 6014   4.576   6.463   9.299  0.5455 -0.6621 -0.2814
   48CHL1  H22A 6015   4.585   6.379   9.226  2.3593  0.8372 -1.8412
   48CHL1  H22B 6016   4.474   6.457   9.341  1.0919 -1.1616  1.0083
   48CHL1   C23 6017   4.584   6.602   9.226 -0.3214 -0.4258  0.4218
   48CHL1  H23A 6018   4.589   6.679   9.306 -0.5163  3.0674 -2.7914
   48CHL1  H23B 6019   4.680   6.615   9.171 -1.1608  2.0601 -0.5152
   48CHL1   C24 6020   4.455   6.609   9.136  0.6747  0.3681 -0.0807
   48CHL1  H24A 6021   4.442   6.519   9.073 -0.1814  0.5312 -0.1524
   48CHL1  H24B 6022   4.367   6.611   9.204 -0.3172 -1.3949 -1.2717
   48CHL1   C25 6023   4.431   6.739   9.065  0.1775  0.4506  0.1289
   48CHL1   H25 6024   4.451   6.822   9.135  1.4908 -0.8521  1.3461
   48CHL1   C26 6025   4.522   6.754   8.937  0.0513 -0.1774  0.4433
   48CHL1  H26A 6026   4.505   6.851   8.885  2.6717  0.3331  0.4835
   48CHL1  H26B 6027   4.630   6.745   8.962  0.1222  1.4739  0.7637
   48CHL1  H26C 6028   4.504   6.667   8.871 -0.6300 -0.9330  1.5919
   48CHL1   C27 6029   4.287   6.751   9.021  0.3807 -0.7216 -0.4473
   48CHL1  H27A 6030   4.221   6.738   9.110  1.1480 -3.2367 -0.2177
   48CHL1  H27B 6031   4.263   6.853   8.985  2.7104 -0.9377 -2.7494
   48CHL1  H27C 6032   4.271   6.676   8.941 -0.0331  0.1542 -1.1930
   49CHL1    C3 6033   2.768   1.944  10.093  0.2923 -0.1875  0.1431
   49CHL1    H3 6034   2.830   2.034  10.113 -0.5142  0.6220 -0.9983
   49CHL1    O3 6035   2.728   1.885  10.217 -0.3552 -0.4292  0.2682
   49CHL1   H3' 6036   2.654   1.829  10.195  0.8661 -0.7655 -3.2216
   49CHL1    C4 6037   2.647   1.991  10.008  0.4209 -0.4052  0.8812
   49CHL1   H4A 6038   2.567   1.915  10.002 -0.9005  1.0504 -0.3003
   49CHL1   H4B 6039   2.604   2.076  10.066  0.8470 -0.1828  0.8795
   49CHL1    C5 6040   2.686   2.032   9.867  0.0012 -0.0472  0.0423
   49CHL1    C6 6041   2.658   2.153   9.816 -0.1005 -0.1824  0.1282
   49CHL1    H6 6042   2.613   2.231   9.880  1.2632 -0.6886  1.7284
   49CHL1    C7 6043   2.684   2.195   9.671 -0.4366  0.4899  0.1805
   49CHL1   H7A 6044   2.596   2.257   9.644  0.8381  0.8333 -3.5282
   49CHL1   H7B 6045   2.771   2.261   9.651 -1.3449  1.8253  0.5787
   49CHL1    C8 6046   2.706   2.065   9.581 -0.0178 -0.6966  0.0717
   49CHL1    H8 6047   2.610   2.011   9.573 -0.4369  0.0917 -0.2603
   49CHL1   C14 6048   2.758   2.109   9.444  0.6867 -0.3478 -0.1802
   49CHL1   H14 6049   2.858   2.158   9.445 -0.4293  2.1944 -3.5842
   49CHL1   C15 6050   2.671   2.199   9.355  0.1026 -0.1566  0.5010
   49CHL1  H15A 6051   2.571   2.156   9.378 -0.2088  0.3591  0.1348
   49CHL1  H15B 6052   2.689   2.303   9.390  1.5741 -0.2158 -0.0638
   49CHL1   C16 6053   2.711   2.168   9.204 -0.0679  0.1068 -0.7036
   49CHL1  H16A 6054   2.624   2.130   9.147  0.6691 -1.5117 -0.7810
   49CHL1  H16B 6055   2.768   2.251   9.158 -1.3330 -0.5733 -3.5990
   49CHL1   C17 6056   2.823   2.056   9.217 -0.2000 -0.3816 -0.0806
   49CHL1   H17 6057   2.922   2.104   9.218 -0.7124  0.7165 -1.1845
   49CHL1   C13 6058   2.798   1.993   9.357 -0.2327  0.0686 -0.3298
   49CHL1   C18 6059   2.685   1.892   9.338  0.4578  0.2710 -0.1902
   49CHL1  H18A 6060   2.737   1.815   9.277  1.9305  1.2025 -0.1623
   49CHL1  H18B 6061   2.645   1.844   9.430  1.7713 -2.4551 -0.9795
   49CHL1  H18C 6062   2.604   1.945   9.284 -0.8157 -0.1616  1.2582
   49CHL1   C12 6063   2.921   1.909   9.418 -0.0484  0.1576  0.0504
   49CHL1  H12A 6064   2.964   1.831   9.352  0.8496 -0.3059  1.1662
   49CHL1  H12B 6065   2.992   1.994   9.420 -1.4488  1.3572 -0.2256
   49CHL1   C11 6066   2.880   1.865   9.562 -0.1419  0.0784 -0.1540
   49CHL1  H11A 6067   2.810   1.779   9.553  1.3963 -1.0608 -1.5769
   49CHL1  H11B 6068   2.974   1.831   9.611 -1.1043  1.0547  2.4053
   49CHL1    C9 6069   2.817   1.977   9.649  0.6734 -1.1030  0.7129
   49CHL1    H9 6070   2.897   2.052   9.670  1.1290 -1.0924 -0.9588
   49CHL1   C10 6071   2.768   1.929   9.790  0.4741  0.1863  0.0679
   49CHL1   C19 6072   2.682   1.794   9.779  0.0633 -0.7104 -0.2145
   49CHL1  H19A 6073   2.752   1.708   9.768  0.0960 -0.7269  0.1102
   49CHL1  H19B 6074   2.641   1.771   9.880 -0.0821  1.6945  0.3148
   49CHL1  H19C 6075   2.602   1.797   9.703 -0.3523  1.2226  0.2621
   49CHL1    C1 6076   2.898   1.901   9.876  0.7125  0.3536  0.1570
   49CHL1   H1A 6077   2.967   1.836   9.819  0.9985  0.1615  0.7215
   49CHL1   H1B 6078   2.945   2.000   9.892  0.3132  0.6654 -0.5352
   49CHL1    C2 6079   2.856   1.838  10.011  0.7572 -0.0089 -0.1734
   49CHL1   H2A 6080   2.947   1.821  10.072  0.4916 -0.5908  0.0648
   49CHL1   H2B 6081   2.798   1.744  10.003 -0.3659  0.5908  0.7180
   49CHL1   C20 6082   2.838   1.969   9.085  0.0247  0.1119  0.0994
   49CHL1   H20 6083   2.748   1.907   9.066  0.0536 -0.2541  1.1190
   49CHL1   C21 6084   2.959   1.867   9.094  0.1075 -0.5358 -0.5054
   49CHL1  H21A 6085   3.001   1.840   8.995  1.5999  2.0768 -0.6408
   49CHL1  H21B 6086   2.920   1.775   9.142  0.6850 -0.6444 -0.2368
   49CHL1  H21C 6087   3.032   1.917   9.162 -0.3933 -1.4044  0.6920
   49CHL1   C22 6088   2.849   2.057   8.953  1.0447  0.1597 -0.3131
   49CHL1  H22A 6089   2.763   2.127   8.957  0.2790 -0.7906  0.1614
   49CHL1  H22B 6090   2.950   2.103   8.959  0.0681  2.7000 -2.6665
   49CHL1   C23 6091   2.853   1.982   8.815  0.2701 -0.2913  0.3074
   49CHL1  H23A 6092   2.928   1.900   8.815  1.3784  0.6914  2.1831
   49CHL1  H23B 6093   2.753   1.934   8.803 -0.5035  1.7472 -1.6298
   49CHL1   C24 6094   2.887   2.069   8.691  0.6484 -0.4801  0.7967
   49CHL1  H24A 6095   2.974   2.134   8.711 -1.2491  1.5494  2.8350
   49CHL1  H24B 6096   2.904   1.994   8.611 -1.7517  0.2637 -0.4627
   49CHL1   C25 6097   2.773   2.160   8.647 -0.0341  0.2437  0.9608
   49CHL1   H25 6098   2.744   2.216   8.738 -0.3045  1.5432  0.0976
   49CHL1   C26 6099   2.799   2.270   8.535 -1.1733 -0.5140  0.3022
   49CHL1  H26A 6100   2.718   2.346   8.528 -1.7011 -1.0182  0.9197
   49CHL1  H26B 6101   2.900   2.312   8.554 -1.2942  0.3290 -0.8693
   49CHL1  H26C 6102   2.799   2.204   8.446  0.9119 -1.2868  0.8578
   49CHL1   C27 6103   2.654   2.077   8.595  0.5056 -0.3542  0.4737
   49CHL1  H27A 6104   2.687   2.023   8.504 -0.5962 -0.7301  0.3008
   49CHL1  H27B 6105   2.627   2.002   8.672  1.6428 -1.2481  0.0129
   49CHL1  H27C 6106   2.566   2.139   8.567  0.3940 -2.2356 -3.6570
   50CHL1    C3 6107   5.991   3.804  10.228  0.1491  0.2518 -0.2808
   50CHL1    H3 6108   5.887   3.826  10.197  0.1797  1.5007  0.4527
   50CHL1    O3 6109   6.015   3.781  10.374 -0.2251 -0.1291 -0.5772
   50CHL1   H3' 6110   6.107   3.754  10.382  0.5155  1.2548 -3.6380
   50CHL1    C4 6111   6.017   3.665  10.157 -0.3808  0.3455 -0.0337
   50CHL1   H4A 6112   6.119   3.632  10.189 -0.1793 -0.2276 -1.2543
   50CHL1   H4B 6113   5.951   3.588  10.201 -0.9274  0.8872  0.1094
   50CHL1    C5 6114   5.999   3.681  10.002 -0.3819 -0.0857 -0.0942
   50CHL1    C6 6115   5.916   3.603   9.936 -0.0771  0.7491 -0.6208
   50CHL1    H6 6116   5.856   3.528   9.989  1.3083  0.3068  0.3412
   50CHL1    C7 6117   5.895   3.612   9.787  0.1934  0.4722 -0.2491
   50CHL1   H7A 6118   5.910   3.507   9.753  0.4445  0.2475  0.5465
   50CHL1   H7B 6119   5.792   3.646   9.763 -0.8479 -0.9609  2.0341
   50CHL1    C8 6120   6.007   3.700   9.722 -0.7964 -0.1449 -0.0733
   50CHL1    H8 6121   6.095   3.635   9.706 -1.0533 -0.6558  0.5298
   50CHL1   C14 6122   5.975   3.744   9.572 -0.2297  0.1542 -0.4044
   50CHL1   H14 6123   5.884   3.808   9.578  0.8482  1.6902 -0.1108
   50CHL1   C15 6124   5.931   3.636   9.468 -0.1484  0.0615 -0.5011
   50CHL1  H15A 6125   6.002   3.550   9.469 -2.1065 -1.6352  3.8262
   50CHL1  H15B 6126   5.833   3.594   9.499  0.0636  1.4656  2.2220
   50CHL1   C16 6127   5.946   3.706   9.331 -0.3410 -0.2623  0.4927
   50CHL1  H16A 6128   6.017   3.650   9.266 -0.6838  0.4368 -0.4883
   50CHL1  H16B 6129   5.845   3.711   9.286 -0.1534  2.4974  0.3163
   50CHL1   C17 6130   6.006   3.845   9.366 -0.0156  0.6641 -0.3284
   50CHL1   H17 6131   5.919   3.911   9.389 -1.1999 -1.6164  2.1223
   50CHL1   C13 6132   6.082   3.827   9.500  0.2974 -0.2279 -0.6324
   50CHL1   C18 6133   6.214   3.743   9.488 -0.3687 -0.1454 -0.1395
   50CHL1  H18A 6134   6.245   3.689   9.580 -1.7616  0.6465  0.8132
   50CHL1  H18B 6135   6.202   3.673   9.403 -0.0578  0.0991 -0.3885
   50CHL1  H18C 6136   6.295   3.819   9.473 -1.1738  0.8198  0.3212
   50CHL1   C12 6137   6.110   3.956   9.585  0.4144 -0.4073 -0.5788
   50CHL1  H12A 6138   6.183   4.028   9.542  0.3418 -0.3615 -0.6249
   50CHL1  H12B 6139   6.010   4.001   9.569 -0.0058 -0.9177  0.5856
   50CHL1   C11 6140   6.140   3.930   9.734 -0.2308 -0.1818 -0.6700
   50CHL1  H11A 6141   6.246   3.897   9.733 -0.4416 -0.8631 -0.6618
   50CHL1  H11B 6142   6.143   4.027   9.789 -0.4540 -0.1326 -0.7424
   50CHL1    C9 6143   6.045   3.831   9.800 -0.6631  0.2814 -0.4685
   50CHL1    H9 6144   5.947   3.882   9.802 -1.1453 -0.6448  0.8641
   50CHL1   C10 6145   6.086   3.805   9.944  0.4588  0.1321 -0.1026
   50CHL1   C19 6146   6.234   3.748   9.942  0.3387  0.4507  0.2374
   50CHL1  H19A 6147   6.296   3.839   9.926 -0.3292  0.6916 -1.0445
   50CHL1  H19B 6148   6.260   3.698  10.038 -1.4409  2.5066  1.8590
   50CHL1  H19C 6149   6.244   3.681   9.854 -2.3430 -0.9722  0.9625
   50CHL1    C1 6150   6.080   3.934  10.028  0.3974 -0.5876  0.3222
   50CHL1   H1A 6151   6.148   4.016   9.996  0.0621 -0.7221 -0.7472
   50CHL1   H1B 6152   5.974   3.964  10.019  0.0838 -1.9972 -0.8196
   50CHL1    C2 6153   6.086   3.905  10.182  0.0202  0.3306 -1.4697
   50CHL1   H2A 6154   6.074   4.003  10.234  0.5134 -0.7358  0.6909
   50CHL1   H2B 6155   6.186   3.867  10.212  1.3587  3.0504 -2.2555
   50CHL1   C20 6156   6.085   3.905   9.244  0.2667  0.1068  0.8887
   50CHL1   H20 6157   6.191   3.880   9.265  0.5179  0.6566  0.3032
   50CHL1   C21 6158   6.069   4.051   9.242 -0.0003  0.6889  0.2095
   50CHL1  H21A 6159   6.147   4.096   9.177  0.6670 -0.5906  0.1123
   50CHL1  H21B 6160   6.087   4.090   9.345  1.1523  1.8616 -0.4212
   50CHL1  H21C 6161   5.966   4.079   9.210  0.2524  0.5545 -0.7314
   50CHL1   C22 6162   6.051   3.845   9.105 -0.0477 -0.7229  0.2586
   50CHL1  H22A 6163   6.057   3.735   9.096  2.6480 -0.7369  1.7733
   50CHL1  H22B 6164   5.949   3.889   9.095  0.8885  1.4934  0.2554
   50CHL1   C23 6165   6.145   3.885   8.987 -0.2705  0.0834  0.0469
   50CHL1  H23A 6166   6.102   3.843   8.893  3.1475  0.6920 -1.8607
   50CHL1  H23B 6167   6.153   3.995   8.978  1.1919  0.1215  1.5309
   50CHL1   C24 6168   6.286   3.830   8.985  0.9836 -0.6783 -1.0016
   50CHL1  H24A 6169   6.342   3.876   9.070  0.3621 -1.0942 -0.3638
   50CHL1  H24B 6170   6.272   3.722   9.009  2.4577 -1.2281 -2.4883
   50CHL1   C25 6171   6.367   3.848   8.858  0.1194 -0.6391  0.0393
   50CHL1   H25 6172   6.463   3.799   8.886 -0.7779 -2.0863  0.6055
   50CHL1   C26 6173   6.316   3.785   8.726 -0.0815  0.2355 -0.7022
   50CHL1  H26A 6174   6.245   3.856   8.680  1.9401  2.8358  0.0631
   50CHL1  H26B 6175   6.399   3.774   8.653  0.6523 -5.4265  0.7431
   50CHL1  H26C 6176   6.273   3.686   8.752 -1.2932  0.9532  0.0891
   50CHL1   C27 6177   6.385   3.998   8.824  0.1128  0.1664  0.1657
   50CHL1  H27A 6178   6.401   4.052   8.920  1.0311  0.0299  0.0944
   50CHL1  H27B 6179   6.474   4.012   8.759  0.5809 -0.3204  0.7036
   50CHL1  H27C 6180   6.295   4.036   8.772  0.1002  1.6964  1.2737
   51CHL1    C3 6181   0.680   0.033  10.257  0.2600 -0.6507 -0.1819
   51CHL1    H3 6182   0.632   0.133  10.247  3.3329  0.8870  0.0362
   51CHL1    O3 6183   0.686   0.007  10.394 -0.7910  0.0002 -0.1844
   51CHL1   H3' 6184   0.736  -0.073  10.408  0.3516  0.5341 -1.0953
   51CHL1    C4 6185   0.582  -0.065  10.184 -0.7069 -0.2607 -0.1480
   51CHL1   H4A 6186   0.605  -0.170  10.213  0.8181  0.7019  2.3290
   51CHL1   H4B 6187   0.481  -0.039  10.222 -0.3853  0.2400  0.3869
   51CHL1    C5 6188   0.594  -0.057  10.027  0.5344  0.0650  0.3017
   51CHL1    C6 6189   0.481  -0.036   9.952 -0.2033 -0.0583  0.3887
   51CHL1    H6 6190   0.387  -0.042  10.009  0.3228 -4.2602  0.9849
   51CHL1    C7 6191   0.476  -0.037   9.808  0.0267  0.4693  0.0397
   51CHL1   H7A 6192   0.390  -0.103   9.783  1.9934 -1.4801 -1.8583
   51CHL1   H7B 6193   0.453   0.064   9.768 -0.7710 -0.2597 -1.3843
   51CHL1    C8 6194   0.604  -0.093   9.740  0.1546  0.2522  0.5707
   51CHL1    H8 6195   0.608  -0.203   9.748 -0.6155  0.0947 -0.9901
   51CHL1   C14 6196   0.615  -0.053   9.587  0.0243  0.0745 -0.1491
   51CHL1   H14 6197   0.592   0.055   9.588  1.4655  0.4045 -0.6932
   51CHL1   C15 6198   0.502  -0.099   9.508 -0.4106  0.5331 -0.0225
   51CHL1  H15A 6199   0.500  -0.207   9.533  0.0907  0.8076  1.2400
   51CHL1  H15B 6200   0.397  -0.064   9.511 -0.3297  0.8433 -0.6515
   51CHL1   C16 6201   0.550  -0.100   9.365 -0.1863 -0.8385 -0.2052
   51CHL1  H16A 6202   0.535  -0.196   9.310  0.1114 -1.3479  0.5879
   51CHL1  H16B 6203   0.497  -0.032   9.295  0.4397  0.2874  0.4068
   51CHL1   C17 6204   0.702  -0.047   9.369  0.1970 -0.4557  0.4648
   51CHL1   H17 6205   0.698   0.064   9.364 -0.9918 -0.5075  0.1237
   51CHL1   C13 6206   0.743  -0.093   9.516 -0.2660 -0.3324  0.4129
   51CHL1   C18 6207   0.757  -0.248   9.514 -0.3515 -0.2685  0.4129
   51CHL1  H18A 6208   0.840  -0.291   9.455 -2.4761 -3.4969 -0.3869
   51CHL1  H18B 6209   0.782  -0.275   9.619 -3.7050 -2.5151  0.7109
   51CHL1  H18C 6210   0.668  -0.305   9.480 -1.1853  1.7480 -0.8383
   51CHL1   C12 6211   0.861  -0.024   9.595 -0.3257 -0.5877  0.7477
   51CHL1  H12A 6212   0.956  -0.056   9.546 -0.7779  0.9505 -1.1858
   51CHL1  H12B 6213   0.844   0.085   9.592  1.3160 -0.3376  0.3444
   51CHL1   C11 6214   0.865  -0.056   9.741  0.8663 -0.4708 -0.6207
   51CHL1  H11A 6215   0.898  -0.162   9.747 -0.3279 -0.9947 -2.6871
   51CHL1  H11B 6216   0.949   0.005   9.780  0.0354  0.4268 -0.1954
   51CHL1    C9 6217   0.731  -0.030   9.814  0.4016  0.1225  0.3820
   51CHL1    H9 6218   0.713   0.079   9.802  0.0679 -0.1044 -1.3270
   51CHL1   C10 6219   0.733  -0.060   9.964 -0.1079  0.1847  0.1505
   51CHL1   C19 6220   0.799  -0.198   9.981  0.9972  0.1475  0.0402
   51CHL1  H19A 6221   0.758  -0.265   9.903  1.7689 -0.9995  0.6037
   51CHL1  H19B 6222   0.909  -0.196   9.966  1.3056 -0.9294  1.8918
   51CHL1  H19C 6223   0.771  -0.242  10.080 -1.2252  1.3269 -0.0321
   51CHL1    C1 6224   0.806   0.057  10.034  1.2268 -0.0136  0.1554
   51CHL1   H1A 6225   0.908   0.058   9.991  0.9330  3.1209 -0.6448
   51CHL1   H1B 6226   0.755   0.156  10.028  0.3523 -0.3061  2.3120
   51CHL1    C2 6227   0.816   0.028  10.183 -0.0792  0.6360 -0.1227
   51CHL1   H2A 6228   0.884   0.100  10.235 -1.2898  1.6394  0.1026
   51CHL1   H2B 6229   0.850  -0.076  10.201 -0.1541  0.3598 -1.5402
   51CHL1   C20 6230   0.779  -0.093   9.246  0.6183  0.2324 -0.0033
   51CHL1   H20 6231   0.781  -0.203   9.263  0.4953  0.1358 -0.6071
   51CHL1   C21 6232   0.923  -0.042   9.246  0.2915 -0.1208 -0.1171
   51CHL1  H21A 6233   0.921   0.068   9.264  0.8415 -0.0643 -0.3854
   51CHL1  H21B 6234   0.971  -0.055   9.147 -1.7784 -1.5197 -0.9619
   51CHL1  H21C 6235   0.996  -0.086   9.317  0.3730  0.5105  0.1939
   51CHL1   C22 6236   0.714  -0.056   9.108  0.2180  0.3744 -0.2380
   51CHL1  H22A 6237   0.606  -0.079   9.117  0.3192 -0.4341 -1.0177
   51CHL1  H22B 6238   0.730   0.052   9.087  1.4758  0.4301  0.9231
   51CHL1   C23 6239   0.745  -0.151   8.996 -0.8137  0.1443  0.1506
   51CHL1  H23A 6240   0.856  -0.152   8.996 -0.8153 -0.3771  0.6217
   51CHL1  H23B 6241   0.711  -0.255   9.015  2.1618 -1.2504 -1.9027
   51CHL1   C24 6242   0.705  -0.104   8.860  0.3246 -0.2502 -0.3644
   51CHL1  H24A 6243   0.743   0.000   8.862  1.1042 -0.5374  0.3243
   51CHL1  H24B 6244   0.758  -0.164   8.782 -1.0943 -2.5724  0.3888
   51CHL1   C25 6245   0.551  -0.103   8.834 -0.4707  0.3180  0.0175
   51CHL1   H25 6246   0.503  -0.054   8.921 -0.1825  0.1617  0.2652
   51CHL1   C26 6247   0.521  -0.016   8.711  0.0407 -0.4490  0.3179
   51CHL1  H26A 6248   0.560   0.088   8.715  0.7760 -0.7272  0.3346
   51CHL1  H26B 6249   0.551  -0.067   8.617  1.6021  1.7034 -0.3803
   51CHL1  H26C 6250   0.411   0.001   8.703  0.5410  2.7725 -0.3884
   51CHL1   C27 6251   0.497  -0.248   8.805  0.4239 -0.3223  0.8605
   51CHL1  H27A 6252   0.519  -0.313   8.892 -1.7941 -1.6193  0.4869
   51CHL1  H27B 6253   0.387  -0.243   8.790  0.3210  0.7210  1.8458
   51CHL1  H27C 6254   0.541  -0.286   8.711 -0.9720  1.6102 -0.6258
   52CHL1    C3 6255   4.081   4.964   9.950  0.8310 -0.3556  1.0713
   52CHL1    H3 6256   4.061   5.073   9.942  2.4633 -0.2560 -2.4144
   52CHL1    O3 6257   4.063   4.909  10.076 -0.0589  0.0582 -0.4177
   52CHL1   H3' 6258   4.126   4.943  10.140  0.9390  0.6371 -1.6586
   52CHL1    C4 6259   3.986   4.897   9.846  0.1869 -0.3755  0.1289
   52CHL1   H4A 6260   3.977   4.789   9.867  0.6866 -0.4060  0.1981
   52CHL1   H4B 6261   3.880   4.925   9.867  0.1603  1.4256 -2.2070
   52CHL1    C5 6262   4.012   4.931   9.701  0.2008 -0.0390 -0.7778
   52CHL1    C6 6263   3.921   4.993   9.621 -0.3907  0.7860  0.4626
   52CHL1    H6 6264   3.831   5.024   9.675 -0.5897 -0.1792  0.6977
   52CHL1    C7 6265   3.937   5.019   9.475 -0.4183 -0.1917  0.5290
   52CHL1   H7A 6266   3.847   4.985   9.420 -1.7602  1.2544  1.7984
   52CHL1   H7B 6267   3.950   5.129   9.466  1.3743 -0.5104 -1.3515
   52CHL1    C8 6268   4.069   4.951   9.426  0.0181  0.0158 -0.9412
   52CHL1    H8 6269   4.055   4.841   9.420 -1.3404 -0.0049  1.6538
   52CHL1   C14 6270   4.107   5.012   9.291 -0.2329 -0.3106  0.1353
   52CHL1   H14 6271   4.111   5.123   9.299 -1.7872 -0.4563  4.0114
   52CHL1   C15 6272   3.997   4.996   9.190  0.0975  0.0305  0.5710
   52CHL1  H15A 6273   3.951   4.895   9.190  2.5522 -1.1540 -1.5361
   52CHL1  H15B 6274   3.921   5.077   9.189 -1.0350 -1.0235 -0.7541
   52CHL1   C16 6275   4.072   5.023   9.060 -0.4714 -0.3662  0.5486
   52CHL1  H16A 6276   4.053   4.951   8.978  0.2055 -0.5034  0.5156
   52CHL1  H16B 6277   4.043   5.123   9.021  0.7424 -0.0315  0.5133
   52CHL1   C17 6278   4.228   5.010   9.087  0.5530 -0.0164 -0.2769
   52CHL1   H17 6279   4.272   5.110   9.104  3.5200 -1.5493  1.5323
   52CHL1   C13 6280   4.233   4.946   9.229  0.1301  0.2056 -0.7306
   52CHL1   C18 6281   4.216   4.787   9.217  0.0326  0.3133 -0.1602
   52CHL1  H18A 6282   4.314   4.750   9.181  0.4209  0.8077  0.3664
   52CHL1  H18B 6283   4.206   4.752   9.322  0.4448  0.4585 -0.0680
   52CHL1  H18C 6284   4.128   4.753   9.159  0.8414 -0.5896 -0.8806
   52CHL1   C12 6285   4.342   4.982   9.324  0.0312  0.0282  0.2691
   52CHL1  H12A 6286   4.439   4.945   9.286  0.8429 -0.7815  3.0374
   52CHL1  H12B 6287   4.364   5.091   9.328 -0.5364  0.1580 -0.0616
   52CHL1   C11 6288   4.320   4.929   9.462  0.4121 -0.7941 -0.8321
   52CHL1  H11A 6289   4.342   4.821   9.458  0.7585 -0.9393  3.0820
   52CHL1  H11B 6290   4.399   4.958   9.534 -0.2525 -0.6688 -0.1405
   52CHL1    C9 6291   4.184   4.970   9.526  0.6821 -0.3203  0.2851
   52CHL1    H9 6292   4.189   5.080   9.537 -1.1033 -0.4497  2.7655
   52CHL1   C10 6293   4.157   4.901   9.664  0.0414  0.0847  0.4164
   52CHL1   C19 6294   4.178   4.749   9.649  0.8437  0.2913 -0.7625
   52CHL1  H19A 6295   4.286   4.726   9.650  1.1780  1.6809 -2.1598
   52CHL1  H19B 6296   4.123   4.691   9.726  0.9709 -0.6193 -1.3456
   52CHL1  H19C 6297   4.139   4.712   9.552 -0.1237  1.5715 -0.8862
   52CHL1    C1 6298   4.253   4.971   9.767  0.0328  0.3058 -0.4563
   52CHL1   H1A 6299   4.358   4.962   9.732  0.5220  1.8140  0.5635
   52CHL1   H1B 6300   4.232   5.080   9.769 -2.2173 -0.1069  0.2944
   52CHL1    C2 6301   4.223   4.939   9.911 -0.2173  0.2347 -0.3926
   52CHL1   H2A 6302   4.297   4.985   9.980 -0.0482  0.1368 -0.5079
   52CHL1   H2B 6303   4.241   4.829   9.920 -0.1886  0.2304 -0.4988
   52CHL1   C20 6304   4.303   4.950   8.975 -0.3368  0.5303  0.3111
   52CHL1   H20 6305   4.285   4.841   8.966  2.0692 -0.0312  1.9672
   52CHL1   C21 6306   4.450   4.948   9.008  0.6669 -0.0388  0.0610
   52CHL1  H21A 6307   4.485   5.053   8.999 -0.0695  0.3425  1.5298
   52CHL1  H21B 6308   4.501   4.899   8.922 -0.9985 -1.3978 -0.1753
   52CHL1  H21C 6309   4.485   4.906   9.105  1.5241 -1.5101 -0.8595
   52CHL1   C22 6310   4.279   5.012   8.835  0.2449  0.0058  0.2145
   52CHL1  H22A 6311   4.360   4.977   8.767  0.1680  1.2948 -0.5572
   52CHL1  H22B 6312   4.179   4.979   8.802  0.5977 -1.8022  0.8867
   52CHL1   C23 6313   4.281   5.168   8.828  0.0803  0.0552  0.4405
   52CHL1  H23A 6314   4.204   5.224   8.885 -0.7992  0.7684 -1.4106
   52CHL1  H23B 6315   4.385   5.199   8.855 -0.8441  0.5437  3.5904
   52CHL1   C24 6316   4.271   5.213   8.679  0.2409  0.0864 -0.3591
   52CHL1  H24A 6317   4.310   5.316   8.672  1.4936 -0.2557  1.2711
   52CHL1  H24B 6318   4.342   5.155   8.615  1.0110  1.1012 -0.4305
   52CHL1   C25 6319   4.128   5.203   8.626 -0.1605  0.3929 -0.1227
   52CHL1   H25 6320   4.071   5.112   8.655 -1.1953  1.1735  0.3481
   52CHL1   C26 6321   4.051   5.332   8.673 -0.3556 -0.1613  0.1662
   52CHL1  H26A 6322   3.952   5.330   8.623  0.2425  0.4187 -1.0433
   52CHL1  H26B 6323   4.038   5.321   8.783  1.8510  0.7333  0.5377
   52CHL1  H26C 6324   4.114   5.423   8.660  0.9801 -0.9829  0.7123
   52CHL1   C27 6325   4.139   5.192   8.472 -1.1390 -0.1729  0.0852
   52CHL1  H27A 6326   4.048   5.201   8.410  0.9979  1.2895 -3.0103
   52CHL1  H27B 6327   4.180   5.291   8.441  0.6857 -1.5132 -1.9474
   52CHL1  H27C 6328   4.207   5.112   8.435  1.4563  2.1173 -0.3127
   53CHL1    C3 6329   5.300   4.949  10.031 -0.5330  0.2739 -0.3607
   53CHL1    H3 6330   5.291   5.049   9.983  1.5267  0.0930 -1.1988
   53CHL1    O3 6331   5.291   4.961  10.170 -0.3803 -0.2713 -0.6095
   53CHL1   H3' 6332   5.312   4.872  10.197 -1.4947 -0.7091 -1.1788
   53CHL1    C4 6333   5.198   4.852   9.971 -0.5400 -0.0688  0.6342
   53CHL1   H4A 6334   5.212   4.757  10.027  1.5723  0.7913  1.6377
   53CHL1   H4B 6335   5.099   4.896   9.996 -0.1867  0.2520  1.5078
   53CHL1    C5 6336   5.216   4.821   9.824  0.1995 -0.0412 -0.0393
   53CHL1    C6 6337   5.124   4.839   9.729  0.3728  0.3652 -1.1066
   53CHL1    H6 6338   5.026   4.874   9.764  0.2226 -0.5884 -0.5802
   53CHL1    C7 6339   5.138   4.815   9.585  0.4257  0.5276  0.1024
   53CHL1   H7A 6340   5.053   4.763   9.537  0.6734  0.8729 -0.7309
   53CHL1   H7B 6341   5.142   4.916   9.538 -4.1151  0.5881 -0.3306
   53CHL1    C8 6342   5.272   4.741   9.552  0.2474 -0.0527 -0.2414
   53CHL1    H8 6343   5.270   4.633   9.575  0.4032  0.1960  0.9825
   53CHL1   C14 6344   5.311   4.773   9.412 -0.0538  0.1836 -0.1828
   53CHL1   H14 6345   5.327   4.882   9.397  0.2130  0.1373 -0.2380
   53CHL1   C15 6346   5.201   4.772   9.301  0.2319  1.2845 -0.9368
   53CHL1  H15A 6347   5.133   4.686   9.319  2.4368 -0.0847  0.9478
   53CHL1  H15B 6348   5.139   4.864   9.286  0.5169  1.8009  0.9152
   53CHL1   C16 6349   5.275   4.751   9.165  0.0377  0.5879  0.1527
   53CHL1  H16A 6350   5.241   4.651   9.130 -1.1641  1.2946 -0.7146
   53CHL1  H16B 6351   5.262   4.833   9.091  1.5081  2.0398  1.4660
   53CHL1   C17 6352   5.428   4.735   9.205 -0.4059  0.2796  0.1501
   53CHL1   H17 6353   5.467   4.838   9.195 -2.0190  0.8332 -0.4435
   53CHL1   C13 6354   5.436   4.700   9.355  0.0725  0.1796 -0.0031
   53CHL1   C18 6355   5.428   4.549   9.381  0.0064 -0.1886 -0.1526
   53CHL1  H18A 6356   5.355   4.499   9.314 -2.1702  0.6799  1.5027
   53CHL1  H18B 6357   5.530   4.506   9.369  1.2189  2.6564 -0.4182
   53CHL1  H18C 6358   5.394   4.526   9.485 -1.9975 -1.8115 -1.1258
   53CHL1   C12 6359   5.555   4.763   9.439 -0.2661  0.0980 -0.4656
   53CHL1  H12A 6360   5.644   4.700   9.420  0.0749  0.6732 -0.7945
   53CHL1  H12B 6361   5.573   4.870   9.414 -1.7168  0.4401 -0.1326
   53CHL1   C11 6362   5.530   4.745   9.593 -0.0534  0.5620  0.7935
   53CHL1  H11A 6363   5.549   4.637   9.610 -4.1064 -0.5915 -1.2703
   53CHL1  H11B 6364   5.605   4.804   9.650 -0.4139  2.9197 -1.0842
   53CHL1    C9 6365   5.387   4.795   9.633  0.2035 -0.0668  0.1176
   53CHL1    H9 6366   5.391   4.905   9.618  0.2987  0.3336  2.7791
   53CHL1   C10 6367   5.362   4.787   9.784 -0.5682 -0.1340  0.4374
   53CHL1   C19 6368   5.378   4.642   9.838 -0.1141 -0.2930 -0.0060
   53CHL1  H19A 6369   5.482   4.609   9.815  0.0161 -0.3840  0.7024
   53CHL1  H19B 6370   5.383   4.646   9.949  0.7203 -0.0035 -0.0492
   53CHL1  H19C 6371   5.292   4.575   9.817 -0.4873  0.6124 -1.3720
   53CHL1    C1 6372   5.462   4.879   9.858  0.1386 -0.3089 -0.2587
   53CHL1   H1A 6373   5.570   4.852   9.851  0.0029 -0.9236  0.0147
   53CHL1   H1B 6374   5.464   4.972   9.797 -1.1014  0.8863  1.4511
   53CHL1    C2 6375   5.443   4.903  10.008  0.1498 -0.4689 -0.1488
   53CHL1   H2A 6376   5.509   4.985  10.044 -0.8763  0.2313  0.1391
   53CHL1   H2B 6377   5.461   4.807  10.062  0.6864 -0.7949 -0.8940
   53CHL1   C20 6378   5.497   4.646   9.102 -0.0691 -0.0916  0.0606
   53CHL1   H20 6379   5.452   4.544   9.102 -2.9338  1.1285 -1.4029
   53CHL1   C21 6380   5.647   4.651   9.136  0.1299 -0.4257 -0.0991
   53CHL1  H21A 6381   5.689   4.753   9.123 -0.4103  0.0073  1.4198
   53CHL1  H21B 6382   5.704   4.576   9.078  0.0713 -0.1008 -0.5749
   53CHL1  H21C 6383   5.654   4.620   9.243  0.8758  0.1545  0.0234
   53CHL1   C22 6384   5.473   4.687   8.956  0.3336  0.2395  0.0412
   53CHL1  H22A 6385   5.367   4.678   8.926  1.1288 -0.9498 -2.5656
   53CHL1  H22B 6386   5.492   4.795   8.938 -0.9380  0.0343 -2.6360
   53CHL1   C23 6387   5.560   4.604   8.857 -0.0404  0.5126 -0.3291
   53CHL1  H23A 6388   5.669   4.605   8.876 -0.1349 -1.1882  0.4518
   53CHL1  H23B 6389   5.533   4.496   8.855 -0.7920  0.7112 -3.6146
   53CHL1   C24 6390   5.537   4.652   8.713 -0.7273 -0.1037 -0.6164
   53CHL1  H24A 6391   5.434   4.618   8.688 -1.0242 -0.9974  1.7084
   53CHL1  H24B 6392   5.540   4.763   8.702 -0.5519  0.1040  1.3829
   53CHL1   C25 6393   5.639   4.591   8.610 -0.2419  0.2762 -0.0338
   53CHL1   H25 6394   5.739   4.620   8.648  0.2279 -0.7387 -0.4609
   53CHL1   C26 6395   5.653   4.436   8.608 -0.0673  0.9379  0.0572
   53CHL1  H26A 6396   5.725   4.404   8.687 -2.5512  3.0924  3.2965
   53CHL1  H26B 6397   5.551   4.397   8.630 -0.9891  3.1545 -0.1426
   53CHL1  H26C 6398   5.674   4.397   8.506  1.8939 -0.6168  1.0100
   53CHL1   C27 6399   5.606   4.636   8.469  0.0418 -0.1933  0.5928
   53CHL1  H27A 6400   5.512   4.587   8.433  0.5396 -0.2851 -0.5952
   53CHL1  H27B 6401   5.580   4.744   8.469  1.3928  0.1450 -1.1196
   53CHL1  H27C 6402   5.693   4.632   8.400  1.3713  2.0951  2.0758
   54CHL1    C3 6403   4.904   6.060  10.098  0.4140 -0.0176  0.3294
   54CHL1    H3 6404   4.900   5.950  10.112 -2.1688  0.1525  1.0662
   54CHL1    O3 6405   4.826   6.122  10.201  0.2454 -0.0539  0.7016
   54CHL1   H3' 6406   4.762   6.177  10.156 -1.1019 -0.8518  1.6365
   54CHL1    C4 6407   5.042   6.130  10.095 -0.0026  0.6942  0.2302
   54CHL1   H4A 6408   5.026   6.240  10.084  0.0170  0.6403 -0.3340
   54CHL1   H4B 6409   5.093   6.121  10.194  0.4330  2.3366  0.1849
   54CHL1    C5 6410   5.124   6.063   9.987  0.5653  0.0190  0.0817
   54CHL1    C6 6411   5.230   5.991  10.022  0.2230  0.5320  0.2531
   54CHL1    H6 6412   5.248   5.975  10.129  1.3836  0.3800  0.0455
   54CHL1    C7 6413   5.337   5.921   9.938  0.3454  0.6964  0.0347
   54CHL1   H7A 6414   5.441   5.951   9.962  0.3777 -0.9777  2.1030
   54CHL1   H7B 6415   5.347   5.811   9.948 -0.0979  0.6733  0.2482
   54CHL1    C8 6416   5.306   5.955   9.790  0.9427 -0.7188 -0.3064
   54CHL1    H8 6417   5.351   6.053   9.764  2.3857 -1.0612  0.8922
   54CHL1   C14 6418   5.378   5.854   9.697 -0.8127 -0.0077  0.3226
   54CHL1   H14 6419   5.332   5.755   9.715 -1.1723  0.3941  1.6337
   54CHL1   C15 6420   5.530   5.833   9.709 -0.5835  0.0858 -0.3570
   54CHL1  H15A 6421   5.591   5.926   9.705  2.7936 -2.0522 -0.2995
   54CHL1  H15B 6422   5.553   5.781   9.803  0.2294  1.7644  0.3921
   54CHL1   C16 6423   5.566   5.753   9.583  0.6583 -0.1940  0.6213
   54CHL1  H16A 6424   5.648   5.801   9.527 -2.2046  4.7456  0.3480
   54CHL1  H16B 6425   5.588   5.645   9.594  1.2665 -0.1578 -0.2175
   54CHL1   C17 6426   5.436   5.757   9.494  0.3552 -0.0235  0.0625
   54CHL1   H17 6427   5.368   5.674   9.522 -1.7313  1.7161  0.2784
   54CHL1   C13 6428   5.352   5.871   9.546  0.2004 -0.1443 -0.4824
   54CHL1   C18 6429   5.413   6.002   9.493  0.4376 -0.3359  0.0702
   54CHL1  H18A 6430   5.374   6.087   9.552  2.1859 -1.0548  2.3321
   54CHL1  H18B 6431   5.523   5.996   9.512  1.0783  1.2566 -2.7892
   54CHL1  H18C 6432   5.402   6.024   9.385  3.2823 -0.5725 -0.3011
   54CHL1   C12 6433   5.200   5.867   9.515  0.3468 -0.3152 -0.0607
   54CHL1  H12A 6434   5.192   5.894   9.407  0.0454  1.7590  0.4728
   54CHL1  H12B 6435   5.162   5.763   9.527  1.4819 -0.6971  0.3241
   54CHL1   C11 6436   5.117   5.970   9.605 -0.0387 -0.5275  0.0250
   54CHL1  H11A 6437   5.148   6.064   9.556 -2.7913  0.4009 -0.0511
   54CHL1  H11B 6438   5.007   5.963   9.591 -0.0624  2.1315 -1.3229
   54CHL1    C9 6439   5.158   5.962   9.760  0.2265  0.3230 -0.4415
   54CHL1    H9 6440   5.122   5.861   9.787  0.1531  0.1034 -1.3467
   54CHL1   C10 6441   5.080   6.066   9.844 -0.4786  0.4283  0.4011
   54CHL1   C19 6442   5.094   6.208   9.792  0.7028  0.3071 -0.1028
   54CHL1  H19A 6443   5.050   6.228   9.692 -1.1225  1.9719  1.0060
   54CHL1  H19B 6444   5.042   6.283   9.855 -1.4942 -0.8171 -0.5111
   54CHL1  H19C 6445   5.201   6.237   9.786 -0.0142  2.8581 -1.3875
   54CHL1    C1 6446   4.923   6.030   9.838 -0.0792 -0.0835 -0.2731
   54CHL1   H1A 6447   4.886   6.068   9.740  1.3625  2.5590  0.1673
   54CHL1   H1B 6448   4.905   5.920   9.839 -1.6673  0.1677  0.0286
   54CHL1    C2 6449   4.839   6.094   9.956 -0.2457 -0.0380  0.4079
   54CHL1   H2A 6450   4.737   6.051   9.961  0.5402 -2.0851 -0.9377
   54CHL1   H2B 6451   4.833   6.202   9.928 -1.7452 -0.0794  0.5054
   54CHL1   C20 6452   5.450   5.735   9.338 -0.1922  0.0956 -0.0538
   54CHL1   H20 6453   5.368   5.792   9.289 -0.4819  0.5216  0.9140
   54CHL1   C21 6454   5.423   5.585   9.304 -0.0258  0.0004 -0.5975
   54CHL1  H21A 6455   5.318   5.559   9.325  0.4409 -1.5753 -0.1631
   54CHL1  H21B 6456   5.487   5.522   9.369 -0.7990  0.6874  0.8540
   54CHL1  H21C 6457   5.441   5.567   9.196  2.1676 -0.1517 -0.2308
   54CHL1   C22 6458   5.572   5.787   9.269  0.1409  0.7926  0.4361
   54CHL1  H22A 6459   5.637   5.856   9.327  1.6172 -0.4914  0.3263
   54CHL1  H22B 6460   5.632   5.699   9.238 -1.3720 -0.4088  0.8928
   54CHL1   C23 6461   5.545   5.866   9.144  0.3163 -0.9417  0.0613
   54CHL1  H23A 6462   5.460   5.823   9.087 -1.0712 -0.6526  1.8641
   54CHL1  H23B 6463   5.503   5.964   9.176 -2.6003 -1.4488 -2.0515
   54CHL1   C24 6464   5.676   5.881   9.063 -0.2028  0.3556 -0.0740
   54CHL1  H24A 6465   5.760   5.918   9.124  0.5546 -0.9900 -0.2689
   54CHL1  H24B 6466   5.703   5.782   9.019  3.2826  0.7944  0.9564
   54CHL1   C25 6467   5.681   5.983   8.947  0.0784  0.1483  0.2054
   54CHL1   H25 6468   5.782   5.986   8.900  0.1479  1.5693  0.4339
   54CHL1   C26 6469   5.564   5.962   8.851  0.5540 -0.2002  0.4353
   54CHL1  H26A 6470   5.546   5.857   8.821 -0.0309  0.5040 -1.7873
   54CHL1  H26B 6471   5.473   6.010   8.892 -1.1960 -0.5076 -2.9119
   54CHL1  H26C 6472   5.578   6.017   8.755 -1.4476 -1.5646 -0.6703
   54CHL1   C27 6473   5.674   6.124   9.013 -0.0962  1.4155 -0.2365
   54CHL1  H27A 6474   5.747   6.122   9.096 -1.6022 -0.1797  1.0938
   54CHL1  H27B 6475   5.693   6.203   8.937  0.8004 -0.4231 -1.9881
   54CHL1  H27C 6476   5.578   6.151   9.063 -1.0626 -0.3227 -1.0862
   55CHL1    C3 6477   5.479   3.067  10.199 -0.0504  0.0970 -0.4082
   55CHL1    H3 6478   5.464   2.963  10.164  2.0275 -0.4994  0.3674
   55CHL1    O3 6479   5.450   3.062  10.337  0.4163  0.0865 -0.1884
   55CHL1   H3' 6480   5.433   3.154  10.359  0.1926 -0.3685  1.6166
   55CHL1    C4 6481   5.631   3.117  10.182  0.2898 -0.4536 -0.2449
   55CHL1   H4A 6482   5.640   3.214  10.235 -1.3524 -1.3552  1.7871
   55CHL1   H4B 6483   5.702   3.047  10.233  2.3300  3.9399  3.3526
   55CHL1    C5 6484   5.653   3.117  10.033  0.3514  0.1779 -0.2748
   55CHL1    C6 6485   5.755   3.042   9.977 -0.4325 -0.5662  0.3784
   55CHL1    H6 6486   5.816   2.996  10.056 -1.1046  0.0118  1.2354
   55CHL1    C7 6487   5.802   3.050   9.838  0.2075  0.0452  0.3668
   55CHL1   H7A 6488   5.905   3.092   9.829  0.1680  0.2684  0.9441
   55CHL1   H7B 6489   5.796   2.950   9.790  0.4373 -0.0246  0.4841
   55CHL1    C8 6490   5.720   3.146   9.746  0.4936 -0.4044  0.0521
   55CHL1    H8 6491   5.757   3.248   9.768 -0.3575 -0.4701  1.9057
   55CHL1   C14 6492   5.728   3.104   9.604  0.7317 -0.4025 -0.0640
   55CHL1   H14 6493   5.667   3.012   9.593  1.4462 -0.8350 -0.4634
   55CHL1   C15 6494   5.860   3.073   9.541 -0.5698  0.3154 -0.5601
   55CHL1  H15A 6495   5.932   3.154   9.567  2.1226 -1.9640 -0.6355
   55CHL1  H15B 6496   5.896   2.973   9.574  2.5288  0.7523 -2.4261
   55CHL1   C16 6497   5.839   3.078   9.387  0.2070 -0.5579  0.4954
   55CHL1  H16A 6498   5.923   3.136   9.344  1.8321 -3.7990 -0.8782
   55CHL1  H16B 6499   5.833   2.978   9.340  0.3166 -1.5982  2.6402
   55CHL1   C17 6500   5.697   3.134   9.364  0.4288  0.0350  0.4679
   55CHL1   H17 6501   5.628   3.048   9.352  1.7077 -0.8809 -0.5376
   55CHL1   C13 6502   5.658   3.193   9.500 -0.1527 -0.1542  0.1165
   55CHL1   C18 6503   5.713   3.334   9.508  0.3186  0.1684  0.5851
   55CHL1  H18A 6504   5.816   3.345   9.468  0.4764  0.8575  1.1716
   55CHL1  H18B 6505   5.663   3.404   9.437 -1.2367  1.5300  2.9644
   55CHL1  H18C 6506   5.705   3.375   9.611 -0.9450  2.1913 -0.2745
   55CHL1   C12 6507   5.509   3.186   9.537 -0.2157  0.7417 -0.5272
   55CHL1  H12A 6508   5.453   3.242   9.459  0.6362  0.4886 -1.3262
   55CHL1  H12B 6509   5.471   3.082   9.534  0.1062  0.5792  0.7013
   55CHL1   C11 6510   5.485   3.225   9.680 -0.3549 -0.2845 -0.5142
   55CHL1  H11A 6511   5.508   3.334   9.685  3.8237 -1.1293  0.0813
   55CHL1  H11B 6512   5.377   3.221   9.708 -0.2693 -0.8693 -0.2617
   55CHL1    C9 6513   5.571   3.148   9.782 -0.5882 -0.3823 -0.2646
   55CHL1    H9 6514   5.528   3.046   9.784 -0.9934 -0.2127 -0.3049
   55CHL1   C10 6515   5.550   3.196   9.939 -0.1712  0.2413  1.1335
   55CHL1   C19 6516   5.571   3.350   9.959  0.3141 -0.3969 -0.5676
   55CHL1  H19A 6517   5.551   3.374  10.066  3.3027  1.6742 -0.4006
   55CHL1  H19B 6518   5.668   3.388   9.920 -0.4295  0.5956 -1.4875
   55CHL1  H19C 6519   5.498   3.406   9.898  1.7106  1.6124 -0.4627
   55CHL1    C1 6520   5.406   3.163   9.975  0.9575 -0.4140  0.0099
   55CHL1   H1A 6521   5.330   3.222   9.919 -0.6708 -1.6479  0.8583
   55CHL1   H1B 6522   5.379   3.062   9.937 -3.0386  0.4203  0.4588
   55CHL1    C2 6523   5.383   3.163  10.125  0.0646 -0.2268  0.2789
   55CHL1   H2A 6524   5.286   3.122  10.162 -0.0670 -0.7126 -0.5804
   55CHL1   H2B 6525   5.409   3.261  10.170  3.4778 -0.1523 -1.6926
   55CHL1   C20 6526   5.688   3.222   9.236 -0.2030  0.1447 -0.5731
   55CHL1   H20 6527   5.755   3.309   9.254 -0.8333  0.7188 -1.0003
   55CHL1   C21 6528   5.543   3.277   9.228  0.0745 -0.1011  0.0596
   55CHL1  H21A 6529   5.513   3.344   9.311  2.8038  0.5011  0.6178
   55CHL1  H21B 6530   5.484   3.184   9.224  0.3748 -0.3961  2.0594
   55CHL1  H21C 6531   5.519   3.342   9.141 -0.1518 -0.5184 -0.1894
   55CHL1   C22 6532   5.726   3.163   9.099  0.1480 -0.3420  0.1615
   55CHL1  H22A 6533   5.823   3.110   9.094 -0.4487 -1.4006 -0.4124
   55CHL1  H22B 6534   5.650   3.085   9.074  0.5712  0.3673 -3.7748
   55CHL1   C23 6535   5.721   3.260   8.974 -0.3097 -0.2141 -0.0259
   55CHL1  H23A 6536   5.628   3.322   8.969 -1.0397 -1.2131  0.9735
   55CHL1  H23B 6537   5.800   3.336   8.988 -1.8409  1.4386 -0.1019
   55CHL1   C24 6538   5.739   3.194   8.843 -0.7154  0.1186  0.4929
   55CHL1  H24A 6539   5.793   3.264   8.776 -3.3481  0.6158 -1.2071
   55CHL1  H24B 6540   5.801   3.102   8.855 -2.0846 -0.8203  0.4740
   55CHL1   C25 6541   5.610   3.166   8.760  0.4017 -0.9889 -0.0243
   55CHL1   H25 6542   5.527   3.117   8.816  0.3651 -0.3242  0.5000
   55CHL1   C26 6543   5.553   3.299   8.713  0.2293 -0.3933 -0.2333
   55CHL1  H26A 6544   5.481   3.274   8.633  1.8343 -0.8470 -1.5599
   55CHL1  H26B 6545   5.506   3.362   8.791  0.6545  1.5594 -1.5239
   55CHL1  H26C 6546   5.643   3.353   8.679  0.7734  0.0399  1.8049
   55CHL1   C27 6547   5.629   3.061   8.649  0.4722 -0.2517  0.5319
   55CHL1  H27A 6548   5.669   2.962   8.679 -1.3572 -1.5037 -1.0709
   55CHL1  H27B 6549   5.535   3.034   8.596  0.4651 -1.7695  1.2854
   55CHL1  H27C 6550   5.704   3.099   8.576  0.5511 -1.3433  0.0393
   56CHL1    C3 6551   3.407   1.792  10.166 -0.6363  0.0994  0.4953
   56CHL1    H3 6552   3.369   1.887  10.122  2.6634 -0.0462 -2.8786
   56CHL1    O3 6553   3.391   1.778  10.307 -0.0105  0.1190 -0.4053
   56CHL1   H3' 6554   3.408   1.686  10.326  2.8869  0.9455  1.3277
   56CHL1    C4 6555   3.322   1.683  10.096 -0.2744 -0.2424  0.1022
   56CHL1   H4A 6556   3.354   1.583  10.131 -0.5184  0.5386  2.6581
   56CHL1   H4B 6557   3.217   1.688  10.132 -0.4451 -1.6442 -0.1853
   56CHL1    C5 6558   3.322   1.690   9.946  0.6480  0.0008 -0.4686
   56CHL1    C6 6559   3.210   1.707   9.879 -0.3619 -0.1735 -1.0591
   56CHL1    H6 6560   3.115   1.712   9.935  0.0155  1.1196 -0.5315
   56CHL1    C7 6561   3.211   1.716   9.730 -0.4913 -0.2256  0.0250
   56CHL1   H7A 6562   3.122   1.668   9.684 -0.3583 -1.0543  0.6292
   56CHL1   H7B 6563   3.193   1.823   9.708  1.5290  0.5217  1.7895
   56CHL1    C8 6564   3.347   1.665   9.670 -0.5194  0.5525  0.1215
   56CHL1    H8 6565   3.358   1.555   9.679  0.5210  0.5565 -0.9678
   56CHL1   C14 6566   3.347   1.689   9.522  0.9234 -0.5761  0.2181
   56CHL1   H14 6567   3.333   1.799   9.508  3.9674 -0.3003 -1.2400
   56CHL1   C15 6568   3.231   1.625   9.437 -0.0810 -0.3262  0.6219
   56CHL1  H15A 6569   3.231   1.518   9.466  3.6811 -0.5583  0.0476
   56CHL1  H15B 6570   3.132   1.675   9.447 -1.1077 -2.0816 -0.5445
   56CHL1   C16 6571   3.286   1.646   9.299 -0.4416  0.2848 -0.1301
   56CHL1  H16A 6572   3.286   1.548   9.247  0.3301  0.6770 -0.8669
   56CHL1  H16B 6573   3.232   1.724   9.240  0.6519  2.1543  1.2649
   56CHL1   C17 6574   3.431   1.693   9.310 -0.2938  0.2433  0.1230
   56CHL1   H17 6575   3.437   1.804   9.301 -2.2885  0.6968  3.4737
   56CHL1   C13 6576   3.476   1.652   9.453  0.2581 -0.6217 -0.3924
   56CHL1   C18 6577   3.507   1.506   9.449  1.0014  0.0164 -0.5755
   56CHL1  H18A 6578   3.429   1.457   9.388  0.0961  1.7960 -0.8649
   56CHL1  H18B 6579   3.606   1.478   9.406  0.8084  2.3997 -2.6659
   56CHL1  H18C 6580   3.489   1.472   9.553 -3.8887  0.2829 -1.2337
   56CHL1   C12 6581   3.587   1.743   9.518  0.2798  0.2263  0.0980
   56CHL1  H12A 6582   3.684   1.720   9.467 -0.3788 -0.5521 -0.8289
   56CHL1  H12B 6583   3.567   1.850   9.494  5.1807  1.1913 -0.3956
   56CHL1   C11 6584   3.600   1.706   9.667 -0.6917 -0.0686  0.8625
   56CHL1  H11A 6585   3.637   1.601   9.665 -1.6288 -0.4394  2.1063
   56CHL1  H11B 6586   3.670   1.782   9.707 -1.1502  1.2651 -0.8051
   56CHL1    C9 6587   3.469   1.721   9.743 -0.2297  0.0903 -0.1584
   56CHL1    H9 6588   3.442   1.828   9.737  0.3480  0.0855 -4.2264
   56CHL1   C10 6589   3.472   1.681   9.893  0.8863 -1.3731 -0.2658
   56CHL1   C19 6590   3.525   1.543   9.917 -0.4159  0.8382  0.4536
   56CHL1  H19A 6591   3.522   1.525  10.026  1.0576  0.6588  0.4735
   56CHL1  H19B 6592   3.467   1.470   9.857  2.4269 -0.6873 -0.5529
   56CHL1  H19C 6593   3.629   1.541   9.879 -0.6962  0.4682 -0.2996
   56CHL1    C1 6594   3.564   1.792   9.964 -0.2916  0.0883 -0.3502
   56CHL1   H1A 6595   3.665   1.761   9.930 -1.0292 -1.3504 -1.3027
   56CHL1   H1B 6596   3.557   1.897   9.931  0.4455 -0.6695 -3.0684
   56CHL1    C2 6597   3.551   1.778  10.123 -0.1588 -0.4733  0.4169
   56CHL1   H2A 6598   3.608   1.867  10.158  0.0725 -1.1145  1.6957
   56CHL1   H2B 6599   3.594   1.683  10.162  0.7638 -0.4880 -0.6034
   56CHL1   C20 6600   3.507   1.639   9.188 -0.3942  0.2436  0.8937
   56CHL1   H20 6601   3.542   1.535   9.204 -1.2753 -0.5313 -1.9668
   56CHL1   C21 6602   3.641   1.709   9.190  0.0442  0.1763 -0.1648
   56CHL1  H21A 6603   3.707   1.672   9.271  1.4110  2.2466 -0.3029
   56CHL1  H21B 6604   3.638   1.820   9.201  0.2430  0.0499  1.2007
   56CHL1  H21C 6605   3.692   1.679   9.096 -1.8335  0.6289 -1.3607
   56CHL1   C22 6606   3.442   1.642   9.046  0.0534 -0.5354 -0.3253
   56CHL1  H22A 6607   3.528   1.599   8.990  1.7888  1.6291  0.6339
   56CHL1  H22B 6608   3.354   1.573   9.047  0.4023 -1.0177  2.3427
   56CHL1   C23 6609   3.403   1.779   8.987  0.2193  0.9621  0.0718
   56CHL1  H23A 6610   3.317   1.821   9.043 -0.8708  0.1301 -0.9421
   56CHL1  H23B 6611   3.481   1.858   8.992 -0.1897  1.4933 -1.5521
   56CHL1   C24 6612   3.349   1.763   8.840 -0.0829 -0.2598 -0.1858
   56CHL1  H24A 6613   3.440   1.748   8.778 -0.1278  1.1007 -0.6141
   56CHL1  H24B 6614   3.281   1.676   8.827  0.0645 -0.5035  0.6692
   56CHL1   C25 6615   3.277   1.888   8.785 -0.4203  0.4076  0.5050
   56CHL1   H25 6616   3.206   1.929   8.860 -0.7389  0.3900  0.2095
   56CHL1   C26 6617   3.377   2.011   8.771  0.9093 -0.3122  0.2725
   56CHL1  H26A 6618   3.329   2.109   8.750  0.4118 -0.4016  1.0170
   56CHL1  H26B 6619   3.444   2.021   8.859 -0.1216  0.1329  1.0109
   56CHL1  H26C 6620   3.443   1.979   8.687  1.1765  1.2985 -0.1451
   56CHL1   C27 6621   3.207   1.865   8.650 -0.2766  0.4310 -0.4526
   56CHL1  H27A 6622   3.277   1.828   8.572 -1.7241 -0.9237 -1.1381
   56CHL1  H27B 6623   3.139   1.778   8.663 -0.7271  0.7778 -0.4409
   56CHL1  H27C 6624   3.152   1.954   8.611 -1.0268  0.7671  1.3322
   57CHL1    C3 6625   6.141   4.643  10.386 -0.4518 -0.2717 -0.3672
   57CHL1    H3 6626   6.052   4.665  10.323 -1.4129 -1.7866  0.4288
   57CHL1    O3 6627   6.118   4.671  10.527  0.4625  0.2904  0.3978
   57CHL1   H3' 6628   6.189   4.733  10.548 -0.5008  1.9240 -1.0218
   57CHL1    C4 6629   6.195   4.502  10.366 -0.1049  0.3353 -0.5860
   57CHL1   H4A 6630   6.286   4.498  10.429 -0.5505  0.7771  0.0903
   57CHL1   H4B 6631   6.117   4.428  10.396 -0.2557  0.2977 -1.0556
   57CHL1    C5 6632   6.218   4.469  10.223 -0.2627 -0.1021  0.0388
   57CHL1    C6 6633   6.163   4.371  10.142 -0.4669  0.3917 -0.0420
   57CHL1    H6 6634   6.099   4.294  10.187 -1.1895  0.6733 -0.5765
   57CHL1    C7 6635   6.188   4.342  10.002  0.3679 -0.2764 -0.7385
   57CHL1   H7A 6636   6.210   4.235   9.981 -0.0349 -0.4314 -0.3799
   57CHL1   H7B 6637   6.098   4.375   9.944 -0.3255 -3.0033 -1.2726
   57CHL1    C8 6638   6.312   4.418   9.953 -0.4233 -0.1684  0.2645
   57CHL1    H8 6639   6.402   4.369   9.996 -2.5433 -2.2050  2.5140
   57CHL1   C14 6640   6.320   4.416   9.805  0.1463 -0.2721  0.7412
   57CHL1   H14 6641   6.227   4.459   9.761 -0.0656 -0.2533  1.2042
   57CHL1   C15 6642   6.316   4.277   9.741  0.3017 -0.5446  0.1792
   57CHL1  H15A 6643   6.383   4.208   9.797  2.2499  0.1537 -1.2080
   57CHL1  H15B 6644   6.217   4.231   9.758 -0.2006  0.1990 -0.7114
   57CHL1   C16 6645   6.360   4.298   9.601  1.1592 -0.4116 -0.1380
   57CHL1  H16A 6646   6.441   4.229   9.571  3.5069  1.7896  0.9536
   57CHL1  H16B 6647   6.275   4.283   9.531  0.8585  0.4756  0.0310
   57CHL1   C17 6648   6.406   4.444   9.595 -0.7566 -0.4582 -0.0813
   57CHL1   H17 6649   6.322   4.509   9.561  1.2663  1.9650 -0.5816
   57CHL1   C13 6650   6.441   4.484   9.741 -0.0044 -0.1930 -0.4924
   57CHL1   C18 6651   6.576   4.418   9.787  0.3679  0.0283 -0.3533
   57CHL1  H18A 6652   6.576   4.308   9.771 -0.6545  0.2394 -1.9311
   57CHL1  H18B 6653   6.661   4.476   9.743  0.3180  1.4028  1.3124
   57CHL1  H18C 6654   6.589   4.430   9.897 -0.4487 -0.3184 -0.2158
   57CHL1   C12 6655   6.434   4.635   9.779  0.3982  0.2726  0.5913
   57CHL1  H12A 6656   6.527   4.691   9.757 -0.2728  0.5609 -1.7060
   57CHL1  H12B 6657   6.352   4.686   9.722  1.2301 -0.6334 -1.4716
   57CHL1   C11 6658   6.424   4.658   9.937 -0.1164  0.4013  0.0631
   57CHL1  H11A 6659   6.527   4.637   9.973 -0.9261 -1.1669  1.5297
   57CHL1  H11B 6660   6.389   4.761   9.959 -0.3381  0.0189  1.5404
   57CHL1    C9 6661   6.318   4.564   9.998 -0.2923 -0.7902  0.0492
   57CHL1    H9 6662   6.220   4.600   9.962 -0.2332  0.1412  0.8168
   57CHL1   C10 6663   6.314   4.570  10.153 -0.5048  0.0023  0.7279
   57CHL1   C19 6664   6.460   4.537  10.207 -0.1371  0.0039  0.0968
   57CHL1  H19A 6665   6.529   4.619  10.178 -0.0490  0.1648  0.7581
   57CHL1  H19B 6666   6.459   4.522  10.317 -2.7957  1.8513  0.3718
   57CHL1  H19C 6667   6.492   4.442  10.159  0.2879 -0.5882  1.5454
   57CHL1    C1 6668   6.285   4.720  10.192  0.0800 -0.4260  0.9165
   57CHL1   H1A 6669   6.377   4.781  10.175 -1.0646  1.0909  0.0356
   57CHL1   H1B 6670   6.202   4.765  10.133  0.0293  0.0935  1.3764
   57CHL1    C2 6671   6.250   4.745  10.339 -0.8675 -0.2038  0.4789
   57CHL1   H2A 6672   6.228   4.852  10.362  2.3924  0.5752  0.1815
   57CHL1   H2B 6673   6.338   4.719  10.402 -0.1402  1.7019  0.2929
   57CHL1   C20 6674   6.514   4.462   9.491  1.0970 -0.4988  0.3322
   57CHL1   H20 6675   6.591   4.384   9.511  2.4008  0.7330  0.2242
   57CHL1   C21 6676   6.585   4.602   9.493 -0.5339  1.3177  0.4221
   57CHL1  H21A 6677   6.516   4.688   9.476 -1.3908  0.5126 -0.1911
   57CHL1  H21B 6678   6.666   4.611   9.418  1.7893 -0.4600  2.5991
   57CHL1  H21C 6679   6.626   4.620   9.595  1.0172  0.1402  0.0222
   57CHL1   C22 6680   6.483   4.444   9.340  0.1178  0.1201 -0.1417
   57CHL1  H22A 6681   6.411   4.360   9.327 -0.7036  0.7923  0.1082
   57CHL1  H22B 6682   6.442   4.539   9.300  0.6422  1.8826  3.3117
   57CHL1   C23 6683   6.605   4.391   9.266  0.6263 -0.3851  0.3890
   57CHL1  H23A 6684   6.699   4.450   9.273  0.4448  0.5094 -3.4389
   57CHL1  H23B 6685   6.621   4.286   9.301 -0.3787 -0.3745  0.8849
   57CHL1   C24 6686   6.568   4.387   9.117  0.0361 -0.3552  0.9241
   57CHL1  H24A 6687   6.650   4.338   9.060 -0.3164 -1.2025  1.1378
   57CHL1  H24B 6688   6.479   4.321   9.114 -0.6961  0.6878 -0.5217
   57CHL1   C25 6689   6.540   4.529   9.049 -0.3482  0.2272 -0.0852
   57CHL1   H25 6690   6.455   4.574   9.105 -0.0817  0.2169  0.3262
   57CHL1   C26 6691   6.658   4.618   9.060 -0.2589  0.9904  0.1217
   57CHL1  H26A 6692   6.698   4.626   9.163  1.5862 -2.0558 -0.2775
   57CHL1  H26B 6693   6.747   4.575   9.008  2.3588  1.3079  4.1491
   57CHL1  H26C 6694   6.640   4.722   9.025  2.1000  1.8153  1.2306
   57CHL1   C27 6695   6.497   4.508   8.907 -0.3914 -0.9835  0.3145
   57CHL1  H27A 6696   6.573   4.461   8.841 -0.1653 -0.0305 -0.1038
   57CHL1  H27B 6697   6.410   4.440   8.899 -0.4800 -0.5696 -2.7462
   57CHL1  H27C 6698   6.473   4.605   8.859  0.0301 -1.7668 -1.5298
   58CHL1    C3 6699   1.813   2.990  10.185  0.5334  0.0190 -0.2296
   58CHL1    H3 6700   1.837   2.882  10.183 -0.9220 -0.3159 -0.3283
   58CHL1    O3 6701   1.849   3.044  10.309  0.5352  0.0934  0.4707
   58CHL1   H3' 6702   1.796   3.121  10.330  2.2392  0.9290  1.8494
   58CHL1    C4 6703   1.895   3.066  10.079 -0.4778 -0.5266 -0.2738
   58CHL1   H4A 6704   1.867   3.171  10.103  0.7076 -0.5530  1.2598
   58CHL1   H4B 6705   2.005   3.062  10.094 -0.5820  2.7172  1.9254
   58CHL1    C5 6706   1.845   3.034   9.935  0.4388 -0.2013 -0.9173
   58CHL1    C6 6707   1.933   2.997   9.841 -0.5354  0.1593  0.0851
   58CHL1    H6 6708   2.042   2.990   9.858 -0.5900 -1.1632 -0.0776
   58CHL1    C7 6709   1.893   2.969   9.699  1.1873 -0.8194 -0.0370
   58CHL1   H7A 6710   1.967   2.999   9.622  0.1570 -0.5796 -0.9479
   58CHL1   H7B 6711   1.888   2.858   9.693 -0.4802 -0.8226  1.0827
   58CHL1    C8 6712   1.755   3.029   9.660 -0.0841  0.0790 -0.0366
   58CHL1    H8 6713   1.758   3.140   9.648 -0.9379  0.3176  1.7087
   58CHL1   C14 6714   1.714   2.981   9.524 -0.1510  0.3963  0.4077
   58CHL1   H14 6715   1.711   2.870   9.527 -0.0025  0.3923  0.3635
   58CHL1   C15 6716   1.809   3.011   9.406 -0.0608  0.6000 -0.8468
   58CHL1  H15A 6717   1.841   3.117   9.398 -0.0933  0.5568 -1.5693
   58CHL1  H15B 6718   1.902   2.950   9.401 -1.9905 -2.5873  0.6003
   58CHL1   C16 6719   1.720   2.998   9.285  0.0275 -0.0183 -0.2006
   58CHL1  H16A 6720   1.717   3.098   9.237  1.8691 -0.1273 -0.5673
   58CHL1  H16B 6721   1.760   2.924   9.213  1.5844  0.2231  0.4095
   58CHL1   C17 6722   1.572   2.964   9.332 -0.1974 -0.0163 -0.2627
   58CHL1   H17 6723   1.578   2.854   9.353  2.5046  0.0290 -0.5954
   58CHL1   C13 6724   1.569   3.023   9.475  0.0216 -0.6567  0.4287
   58CHL1   C18 6725   1.558   3.177   9.461  0.5973 -0.4475  0.0235
   58CHL1  H18A 6726   1.636   3.232   9.404 -2.3628  2.3144 -1.4905
   58CHL1  H18B 6727   1.457   3.204   9.424  1.2673  0.4809 -1.1419
   58CHL1  H18C 6728   1.548   3.224   9.561 -0.7751  0.2066 -0.4081
   58CHL1   C12 6729   1.471   2.959   9.577  1.0235  0.2582 -0.8574
   58CHL1  H12A 6730   1.370   2.994   9.547  1.0688  1.1671  0.0132
   58CHL1  H12B 6731   1.482   2.850   9.595  1.8938  0.5059  0.1698
   58CHL1   C11 6732   1.506   3.020   9.716 -0.3117 -0.1977 -0.5521
   58CHL1  H11A 6733   1.489   3.129   9.708  1.0036 -0.0868 -2.1834
   58CHL1  H11B 6734   1.428   2.992   9.790  0.3573  1.1561  0.6914
   58CHL1    C9 6735   1.650   2.996   9.764 -0.7110 -0.2131 -0.3184
   58CHL1    H9 6736   1.658   2.886   9.777 -0.3692 -0.3717 -1.8687
   58CHL1   C10 6737   1.687   3.059   9.904 -0.0256  0.2032  0.5030
   58CHL1   C19 6738   1.664   3.204   9.899  0.1284  0.5247  0.3553
   58CHL1  H19A 6739   1.727   3.257   9.824 -1.2766  0.3861 -0.9505
   58CHL1  H19B 6740   1.558   3.226   9.875  0.3683  0.1639 -1.1101
   58CHL1  H19C 6741   1.697   3.250   9.994  0.3475 -0.2936  0.6801
   58CHL1    C1 6742   1.610   2.989  10.015  0.0577  0.0497 -0.3081
   58CHL1   H1A 6743   1.500   2.999  10.003  0.0043  1.7273  1.3314
   58CHL1   H1B 6744   1.615   2.878  10.004 -1.8414  0.0847 -1.7638
   58CHL1    C2 6745   1.660   3.022  10.163  0.0346  0.0892 -0.1316
   58CHL1   H2A 6746   1.594   2.966  10.233  0.8789  1.2355  1.5899
   58CHL1   H2B 6747   1.637   3.128  10.184 -0.0326 -0.0119  0.3157
   58CHL1   C20 6748   1.476   2.998   9.221  0.1738 -0.3090 -0.8055
   58CHL1   H20 6749   1.474   3.107   9.203  2.2615  0.0319  0.8818
   58CHL1   C21 6750   1.336   2.940   9.260  0.2265  0.4874  0.0248
   58CHL1  H21A 6751   1.348   2.833   9.284 -0.2620  0.2529 -0.7583
   58CHL1  H21B 6752   1.270   2.961   9.173 -0.4811  2.2907  0.9766
   58CHL1  H21C 6753   1.293   2.989   9.350 -1.7976  0.1636 -0.7466
   58CHL1   C22 6754   1.517   2.929   9.081 -0.9211  0.7353 -0.2043
   58CHL1  H22A 6755   1.619   2.957   9.048 -0.9727 -0.1616 -1.1317
   58CHL1  H22B 6756   1.523   2.820   9.100 -1.2927  0.9250  1.0412
   58CHL1   C23 6757   1.419   2.958   8.966 -0.3863 -0.1570 -0.2554
   58CHL1  H23A 6758   1.327   2.898   8.980  0.9592 -2.3206 -0.3098
   58CHL1  H23B 6759   1.408   3.068   8.978  1.6952  0.0804 -0.2588
   58CHL1   C24 6760   1.478   2.923   8.831  0.3494  0.4671 -0.6312
   58CHL1  H24A 6761   1.572   2.981   8.823 -0.6429  2.3736  1.2762
   58CHL1  H24B 6762   1.495   2.813   8.830  1.4801  0.6231  1.1709
   58CHL1   C25 6763   1.397   2.966   8.708 -0.1314 -0.8908  0.0900
   58CHL1   H25 6764   1.397   3.077   8.702 -0.1748 -0.6902  2.9337
   58CHL1   C26 6765   1.460   2.921   8.569 -0.3430  0.2802 -0.2771
   58CHL1  H26A 6766   1.391   2.939   8.483  1.3307  2.1540 -1.2966
   58CHL1  H26B 6767   1.565   2.950   8.547 -0.7962  1.4730 -0.9159
   58CHL1  H26C 6768   1.470   2.811   8.565 -0.1683  0.2921 -0.1590
   58CHL1   C27 6769   1.254   2.923   8.716 -0.1758  0.7282  0.4615
   58CHL1  H27A 6770   1.196   2.949   8.807 -3.9244  0.3323 -1.7030
   58CHL1  H27B 6771   1.197   2.942   8.622 -2.0129 -0.7786  1.2333
   58CHL1  H27C 6772   1.256   2.812   8.725 -1.2349  0.6051 -0.5673
   59CHL1    C3 6773   1.139   2.027  10.344  0.0791  0.6669  0.5575
   59CHL1    H3 6774   1.215   1.947  10.328  0.0089  0.5336  0.8869
   59CHL1    O3 6775   1.105   2.031  10.485  0.2668 -0.3740 -0.1457
   59CHL1   H3' 6776   1.054   2.112  10.480  0.7281  0.0128  0.9546
   59CHL1    C4 6777   1.194   2.160  10.302 -0.3710 -0.8668  0.6807
   59CHL1   H4A 6778   1.110   2.225  10.334 -0.9048 -0.7576 -0.8715
   59CHL1   H4B 6779   1.292   2.182  10.349 -0.8797  0.7750  1.0104
   59CHL1    C5 6780   1.213   2.170  10.147  0.5789  0.4463 -0.4917
   59CHL1    C6 6781   1.326   2.198  10.087 -0.1812  0.2601 -0.3925
   59CHL1    H6 6782   1.414   2.240  10.138 -3.1284  3.4283  2.3670
   59CHL1    C7 6783   1.348   2.203   9.940 -0.2160 -0.0246  0.4367
   59CHL1   H7A 6784   1.393   2.301   9.914 -1.4525  0.7309  1.1201
   59CHL1   H7B 6785   1.422   2.127   9.906  0.7503  0.6141  1.0612
   59CHL1    C8 6786   1.219   2.199   9.853  0.1287  0.1662 -0.1078
   59CHL1    H8 6787   1.171   2.299   9.867  2.0858  0.8660  1.9966
   59CHL1   C14 6788   1.247   2.175   9.714 -0.3281  0.5254  0.5420
   59CHL1   H14 6789   1.288   2.072   9.708  0.6995  0.7442  2.9859
   59CHL1   C15 6790   1.355   2.255   9.640 -0.3003  0.1565 -1.2026
   59CHL1  H15A 6791   1.337   2.361   9.669  0.4637  0.4273 -1.6797
   59CHL1  H15B 6792   1.460   2.226   9.663 -0.9947 -0.5914  1.1343
   59CHL1   C16 6793   1.324   2.234   9.488  0.1875 -0.2533  0.6355
   59CHL1  H16A 6794   1.322   2.333   9.438  0.0272 -0.1928  0.7643
   59CHL1  H16B 6795   1.399   2.172   9.435 -0.4409  1.3325 -2.2075
   59CHL1   C17 6796   1.182   2.162   9.479  0.1754  0.2848  0.6881
   59CHL1   H17 6797   1.200   2.053   9.469 -2.6599 -0.2259  0.8378
   59CHL1   C13 6798   1.123   2.178   9.625  0.0807 -0.4181  0.2029
   59CHL1   C18 6799   1.038   2.303   9.636 -0.2227  0.1211 -0.3146
   59CHL1  H18A 6800   1.093   2.392   9.599 -1.6429  0.7178 -1.0208
   59CHL1  H18B 6801   0.952   2.299   9.566 -0.4658 -0.9073  0.0255
   59CHL1  H18C 6802   1.011   2.333   9.739 -0.0585 -1.6847  0.2805
   59CHL1   C12 6803   1.051   2.048   9.665  0.3312  0.1199 -0.6161
   59CHL1  H12A 6804   0.959   2.042   9.603  0.6510  1.9881 -1.2983
   59CHL1  H12B 6805   1.109   1.958   9.635 -1.5318 -0.6339 -2.0783
   59CHL1   C11 6806   1.007   2.065   9.815  0.1223 -0.5162 -0.2324
   59CHL1  H11A 6807   0.914   2.125   9.807 -0.5034 -1.4933 -0.3848
   59CHL1  H11B 6808   0.973   1.965   9.850 -1.3703 -0.2968 -1.0483
   59CHL1    C9 6809   1.130   2.090   9.916  0.1216 -0.3549 -0.4538
   59CHL1    H9 6810   1.191   1.998   9.905  1.7839  0.9729 -2.8652
   59CHL1   C10 6811   1.088   2.117  10.064 -0.1658  0.0316 -0.6569
   59CHL1   C19 6812   0.974   2.222  10.073  0.9276 -0.5109  0.5217
   59CHL1  H19A 6813   0.880   2.170  10.044  1.3895 -1.0774  0.0388
   59CHL1  H19B 6814   0.956   2.262  10.175 -0.5737 -3.0733  1.3104
   59CHL1  H19C 6815   0.999   2.305  10.004 -2.0525  0.0045 -0.0417
   59CHL1    C1 6816   1.034   1.987  10.127 -0.1001  0.0409 -0.2147
   59CHL1   H1A 6817   0.939   1.968  10.073 -0.6019  1.3561  0.1830
   59CHL1   H1B 6818   1.099   1.902  10.096 -0.5261 -0.0909 -0.7569
   59CHL1    C2 6819   1.013   1.996  10.277 -0.1274  0.1368  0.4407
   59CHL1   H2A 6820   0.969   1.895  10.294 -0.5914  0.3882  0.7327
   59CHL1   H2B 6821   0.928   2.064  10.297 -2.6473 -2.7447 -0.1292
   59CHL1   C20 6822   1.097   2.203   9.361  0.1806 -0.2497 -0.6742
   59CHL1   H20 6823   1.067   2.310   9.366 -1.2273 -0.7252  1.8863
   59CHL1   C21 6824   0.975   2.110   9.352 -0.2196  0.1863  0.2178
   59CHL1  H21A 6825   0.927   2.102   9.252  0.7645 -3.0072 -0.0718
   59CHL1  H21B 6826   0.903   2.156   9.423  0.9635 -0.5338  1.9239
   59CHL1  H21C 6827   1.001   2.006   9.381  1.3398  0.4993 -0.0102
   59CHL1   C22 6828   1.169   2.196   9.219  0.2913  0.0392 -0.1376
   59CHL1  H22A 6829   1.096   2.243   9.150 -2.6395 -2.7744  0.9000
   59CHL1  H22B 6830   1.256   2.265   9.210 -0.7542  1.2084 -1.3630
   59CHL1   C23 6831   1.206   2.051   9.180 -0.5268  0.1741  0.6096
   59CHL1  H23A 6832   1.256   2.006   9.269 -1.1515 -2.7471 -0.4597
   59CHL1  H23B 6833   1.116   1.992   9.152 -1.1083  1.2759  0.1223
   59CHL1   C24 6834   1.302   2.053   9.058 -0.3125 -0.0396 -0.1549
   59CHL1  H24A 6835   1.280   2.144   8.998 -2.0561  0.8843  1.8307
   59CHL1  H24B 6836   1.405   2.076   9.094 -0.2413 -2.5580  1.3758
   59CHL1   C25 6837   1.308   1.921   8.972 -0.9486 -0.2555 -0.1269
   59CHL1   H25 6838   1.406   1.937   8.922 -1.3651  0.6639 -0.6584
   59CHL1   C26 6839   1.337   1.792   9.054 -0.1337 -0.5474  0.0418
   59CHL1  H26A 6840   1.353   1.707   8.984 -2.1090 -1.3981  0.6020
   59CHL1  H26B 6841   1.421   1.806   9.126 -1.2219 -0.8592  1.3889
   59CHL1  H26C 6842   1.248   1.755   9.109 -0.4132 -3.4653 -2.2461
   59CHL1   C27 6843   1.185   1.913   8.887  0.3455 -0.1449  0.5226
   59CHL1  H27A 6844   1.085   1.918   8.935 -0.0203 -2.7059  0.1464
   59CHL1  H27B 6845   1.193   1.988   8.805  1.9446  0.1466  0.9413
   59CHL1  H27C 6846   1.196   1.811   8.843  2.4892  0.3522 -0.1217
   60CHL1    C3 6847   0.910   1.444  10.176  0.5725 -0.0393 -0.1627
   60CHL1    H3 6848   0.823   1.381  10.147 -0.1101  1.4681 -1.5006
   60CHL1    O3 6849   0.917   1.455  10.317 -0.5389 -0.1967 -0.1364
   60CHL1   H3' 6850   0.855   1.526  10.336 -0.6965 -0.4337  0.2465
   60CHL1    C4 6851   1.037   1.377  10.120 -1.4909  0.2557 -0.3806
   60CHL1   H4A 6852   1.113   1.438  10.172  0.3627 -2.9347  0.8479
   60CHL1   H4B 6853   1.043   1.274  10.164  0.1682  0.3806 -0.2863
   60CHL1    C5 6854   1.029   1.377   9.969  0.5855  0.1235 -0.3109
   60CHL1    C6 6855   1.037   1.264   9.897  0.0365  1.0521  0.5781
   60CHL1    H6 6856   1.075   1.180   9.957 -0.6686 -0.8265 -1.5514
   60CHL1    C7 6857   1.038   1.259   9.746  0.1657  0.2609 -0.1624
   60CHL1   H7A 6858   1.102   1.172   9.719 -1.6960  0.2292 -4.8170
   60CHL1   H7B 6859   0.936   1.244   9.705  0.5620  1.1926 -1.5401
   60CHL1    C8 6860   1.071   1.390   9.680 -0.2485  1.1506 -0.0249
   60CHL1    H8 6861   1.176   1.409   9.711  0.3341 -2.9236  0.7044
   60CHL1   C14 6862   1.038   1.392   9.532 -0.1335  0.3018 -0.0514
   60CHL1   H14 6863   0.930   1.367   9.526  0.1075 -1.2849  1.6270
   60CHL1   C15 6864   1.106   1.288   9.444 -0.4849  0.2137 -0.1465
   60CHL1  H15A 6865   1.216   1.281   9.463 -0.2802 -1.0787 -1.7259
   60CHL1  H15B 6866   1.070   1.188   9.476 -0.9856  0.4547  0.0479
   60CHL1   C16 6867   1.065   1.324   9.298 -0.4952  0.1472 -0.3975
   60CHL1  H16A 6868   1.160   1.328   9.240  0.7004  0.6856  1.5243
   60CHL1  H16B 6869   0.988   1.253   9.262  0.0391 -1.1323  0.9310
   60CHL1   C17 6870   1.006   1.465   9.307 -0.0544 -0.1423 -0.2150
   60CHL1   H17 6871   0.895   1.464   9.311 -0.0979  1.4173 -0.4989
   60CHL1   C13 6872   1.051   1.520   9.451 -0.5868  0.1575 -0.8571
   60CHL1   C18 6873   1.201   1.569   9.447  0.6028  0.2411  0.4891
   60CHL1  H18A 6874   1.263   1.508   9.377  1.2116  2.0480 -0.5761
   60CHL1  H18B 6875   1.213   1.678   9.433 -0.7607  0.1929 -1.2139
   60CHL1  H18C 6876   1.249   1.550   9.545 -2.9820  3.2993  2.9778
   60CHL1   C12 6877   0.955   1.623   9.522  0.1481 -0.0828 -0.4938
   60CHL1  H12A 6878   0.969   1.725   9.481 -0.4304  0.1595 -0.1023
   60CHL1  H12B 6879   0.849   1.613   9.492 -0.3940 -0.4113  1.4455
   60CHL1   C11 6880   0.972   1.626   9.673 -0.0738 -0.0590 -0.7062
   60CHL1  H11A 6881   1.066   1.682   9.688  0.6211 -1.5863  0.8926
   60CHL1  H11B 6882   0.890   1.689   9.713  0.1042 -0.6353  0.6090
   60CHL1    C9 6883   0.980   1.493   9.746 -0.5619 -0.1024 -0.4822
   60CHL1    H9 6884   0.877   1.451   9.742 -0.6598  0.1340 -0.4443
   60CHL1   C10 6885   1.011   1.510   9.900 -0.3385  0.6086  0.2692
   60CHL1   C19 6886   1.137   1.590   9.922 -0.3971  0.2550 -0.2048
   60CHL1  H19A 6887   1.104   1.694   9.903 -2.5003 -0.3248  0.1374
   60CHL1  H19B 6888   1.175   1.585  10.027 -0.2449  1.5818 -0.1858
   60CHL1  H19C 6889   1.212   1.554   9.848  0.2190 -0.2790  0.6629
   60CHL1    C1 6890   0.891   1.578   9.964 -0.0169 -0.3323  0.1647
   60CHL1   H1A 6891   0.871   1.675   9.913  0.8614 -0.6774 -0.8554
   60CHL1   H1B 6892   0.812   1.507   9.931 -0.6840  1.6879 -2.7562
   60CHL1    C2 6893   0.891   1.583  10.115 -0.2796  0.3940 -0.6026
   60CHL1   H2A 6894   0.790   1.612  10.153 -1.6852 -0.8044 -3.2322
   60CHL1   H2B 6895   0.974   1.647  10.151  2.0774 -2.1281 -1.3811
   60CHL1   C20 6896   1.043   1.548   9.188 -0.6936  0.4140 -0.0001
   60CHL1   H20 6897   1.152   1.567   9.198 -0.6123 -0.7740  1.5344
   60CHL1   C21 6898   0.974   1.689   9.202 -0.3085 -0.5126  0.0184
   60CHL1  H21A 6899   1.004   1.744   9.293  0.6652 -1.2271  0.1334
   60CHL1  H21B 6900   0.864   1.674   9.197 -0.3371 -0.5430  0.7675
   60CHL1  H21C 6901   0.996   1.750   9.112  0.4733 -1.4833 -0.4610
   60CHL1   C22 6902   1.020   1.482   9.050  0.5140 -0.4167 -0.3773
   60CHL1  H22A 6903   1.058   1.378   9.053  0.9671 -0.2415 -0.0314
   60CHL1  H22B 6904   0.913   1.483   9.021 -0.2743  0.2798  2.4217
   60CHL1   C23 6905   1.096   1.539   8.926 -0.7514 -0.0504 -0.1947
   60CHL1  H23A 6906   1.043   1.634   8.901 -1.5985 -0.7939 -1.3003
   60CHL1  H23B 6907   1.201   1.560   8.953 -0.5644 -0.7462 -0.3710
   60CHL1   C24 6908   1.088   1.431   8.819  0.4170 -0.8507  0.3137
   60CHL1  H24A 6909   1.139   1.340   8.856 -0.9336 -0.3980  3.3647
   60CHL1  H24B 6910   0.983   1.397   8.813 -1.0105  3.0704  1.0722
   60CHL1   C25 6911   1.149   1.485   8.686 -0.2908  0.7481 -0.5157
   60CHL1   H25 6912   1.246   1.535   8.710  0.4427 -0.8446 -0.1199
   60CHL1   C26 6913   1.175   1.361   8.596 -0.5514 -0.5552 -0.4144
   60CHL1  H26A 6914   1.244   1.294   8.653  1.1449 -0.2368 -2.0639
   60CHL1  H26B 6915   1.079   1.313   8.567  0.4248 -1.5613 -2.0476
   60CHL1  H26C 6916   1.238   1.388   8.509  0.4581  2.3129  1.1254
   60CHL1   C27 6917   1.059   1.589   8.623 -0.0928 -0.0118 -0.2127
   60CHL1  H27A 6918   1.040   1.660   8.707 -1.0460 -1.1141  0.5136
   60CHL1  H27B 6919   1.111   1.635   8.536 -2.4181  0.1283 -1.5632
   60CHL1  H27C 6920   0.965   1.544   8.587 -0.0873 -1.1805  1.1850
   61CHL1    C3 6921   4.716   0.804  10.330 -0.6207  0.2935 -0.0586
   61CHL1    H3 6922   4.727   0.693  10.322 -1.8577  0.1370  0.2558
   61CHL1    O3 6923   4.729   0.844  10.468  0.5828 -0.0608  0.7194
   61CHL1   H3' 6924   4.713   0.938  10.455  0.8452 -0.1553 -0.4018
   61CHL1    C4 6925   4.820   0.865  10.236  0.0130  0.4832  0.7156
   61CHL1   H4A 6926   4.816   0.975  10.253 -2.0747  0.7892 -1.4134
   61CHL1   H4B 6927   4.918   0.826  10.271 -0.4293 -0.8683  0.4912
   61CHL1    C5 6928   4.792   0.818  10.095 -0.2148  0.6881  0.5171
   61CHL1    C6 6929   4.895   0.766  10.022  0.1051 -0.5670 -0.0935
   61CHL1    H6 6930   4.998   0.767  10.063 -0.2107 -2.8349  0.8636
   61CHL1    C7 6931   4.882   0.718   9.881 -0.1681 -0.0901 -0.0222
   61CHL1   H7A 6932   4.969   0.727   9.812  0.0301  2.0414  0.4916
   61CHL1   H7B 6933   4.868   0.608   9.886 -1.0186  0.0641  1.1243
   61CHL1    C8 6934   4.763   0.788   9.808 -0.7022  0.1334 -0.3484
   61CHL1    H8 6935   4.785   0.897   9.801  2.1699 -0.2776  1.3273
   61CHL1   C14 6936   4.754   0.731   9.664 -0.1944  0.7825  0.2892
   61CHL1   H14 6937   4.757   0.621   9.681  1.2050  0.4933 -1.6943
   61CHL1   C15 6938   4.866   0.755   9.560  0.6351  0.2859 -0.3626
   61CHL1  H15A 6939   4.878   0.865   9.574  0.3943  0.2701 -0.0161
   61CHL1  H15B 6940   4.965   0.714   9.588  0.3962 -1.1747 -1.5778
   61CHL1   C16 6941   4.804   0.714   9.428 -0.2276 -0.6558 -0.2905
   61CHL1  H16A 6942   4.809   0.804   9.363 -1.3117 -1.4451 -1.4885
   61CHL1  H16B 6943   4.861   0.630   9.383  0.4289  0.3886 -1.4342
   61CHL1   C17 6944   4.652   0.686   9.454 -0.6955 -0.4772 -0.0170
   61CHL1   H17 6945   4.645   0.577   9.469  0.8633 -0.8514 -1.7691
   61CHL1   C13 6946   4.627   0.762   9.588  0.2032  0.2474  0.8817
   61CHL1   C18 6947   4.625   0.914   9.562  0.1324 -0.2632 -0.0223
   61CHL1  H18A 6948   4.521   0.929   9.524  0.0555 -1.5212 -0.3290
   61CHL1  H18B 6949   4.632   0.966   9.661 -1.3467  0.4599 -0.2804
   61CHL1  H18C 6950   4.694   0.958   9.487 -0.2160  0.9851  0.3630
   61CHL1   C12 6951   4.513   0.718   9.684  0.8278 -0.0911  0.7009
   61CHL1  H12A 6952   4.418   0.741   9.631  1.4399 -2.6411 -1.6022
   61CHL1  H12B 6953   4.520   0.608   9.696 -0.6503 -0.7312 -3.3359
   61CHL1   C11 6954   4.512   0.780   9.825  0.1687  0.5321  0.3596
   61CHL1  H11A 6955   4.498   0.888   9.802  2.1459  1.2028  2.2059
   61CHL1  H11B 6956   4.426   0.744   9.886  0.7103 -0.9754  0.2558
   61CHL1    C9 6957   4.642   0.760   9.899 -0.1423  0.0668  0.0775
   61CHL1    H9 6958   4.640   0.652   9.927 -0.4182 -0.2590 -1.1650
   61CHL1   C10 6959   4.654   0.831  10.042  0.2690 -0.7536  0.3471
   61CHL1   C19 6960   4.636   0.978  10.015  0.0855  0.3280 -0.2381
   61CHL1  H19A 6961   4.533   1.000   9.978 -1.0836 -1.0493  2.0459
   61CHL1  H19B 6962   4.647   1.041  10.107  0.2215 -1.0056  0.6745
   61CHL1  H19C 6963   4.703   1.012   9.934  0.6966 -0.8539 -0.2340
   61CHL1    C1 6964   4.546   0.789  10.141 -0.5343  1.1397 -0.3643
   61CHL1   H1A 6965   4.456   0.839  10.099 -0.3089  0.3285 -1.8489
   61CHL1   H1B 6966   4.551   0.680  10.122  0.5310  1.5994 -2.9414
   61CHL1    C2 6967   4.570   0.828  10.285 -0.1257 -0.2449 -0.2371
   61CHL1   H2A 6968   4.496   0.786  10.357  0.9299  1.5228  1.9683
   61CHL1   H2B 6969   4.555   0.938  10.283 -1.6119 -0.4323 -0.0650
   61CHL1   C20 6970   4.564   0.727   9.337  0.5334  0.2177 -0.5151
   61CHL1   H20 6971   4.556   0.837   9.326 -0.6615  0.0758 -1.2105
   61CHL1   C21 6972   4.418   0.683   9.369 -0.4065  0.4154  0.0089
   61CHL1  H21A 6973   4.347   0.694   9.284 -0.2463 -1.1776 -0.3486
   61CHL1  H21B 6974   4.367   0.750   9.442 -0.1019  1.7620 -1.0078
   61CHL1  H21C 6975   4.416   0.581   9.413 -2.0426  0.8161  0.9044
   61CHL1   C22 6976   4.614   0.657   9.203  0.2702 -0.6437 -0.1707
   61CHL1  H22A 6977   4.723   0.671   9.188  0.7916 -3.2656  0.8116
   61CHL1  H22B 6978   4.583   0.550   9.205  0.0546 -0.6111 -1.5894
   61CHL1   C23 6979   4.549   0.711   9.074 -0.1194 -0.7393  0.6717
   61CHL1  H23A 6980   4.441   0.687   9.064 -0.2511 -0.1115  0.5892
   61CHL1  H23B 6981   4.563   0.820   9.063  2.1367 -0.9867  0.9032
   61CHL1   C24 6982   4.614   0.650   8.940 -0.2771 -0.5352  0.1900
   61CHL1  H24A 6983   4.725   0.664   8.947 -0.3913  0.7386 -0.3052
   61CHL1  H24B 6984   4.604   0.540   8.944 -1.3673 -0.3799  1.9364
   61CHL1   C25 6985   4.577   0.713   8.810  0.7613 -0.1414  0.5884
   61CHL1   H25 6986   4.578   0.824   8.817  1.0300 -0.1050 -0.0157
   61CHL1   C26 6987   4.672   0.657   8.696 -0.3223 -0.1983 -0.1495
   61CHL1  H26A 6988   4.659   0.547   8.686  0.1404 -0.1283 -1.6405
   61CHL1  H26B 6989   4.662   0.698   8.593 -0.3727 -1.6451 -0.7260
   61CHL1  H26C 6990   4.780   0.671   8.720 -0.7339 -1.6532  2.7808
   61CHL1   C27 6991   4.434   0.671   8.774  0.0921  0.4590 -0.3572
   61CHL1  H27A 6992   4.366   0.720   8.847  0.7345  1.4936 -0.4407
   61CHL1  H27B 6993   4.409   0.701   8.670 -1.7694 -0.0270 -0.0640
   61CHL1  H27C 6994   4.422   0.561   8.779 -1.0889  0.5701 -0.4770
   62CHL1    C3 6995   5.698   4.213   9.927  0.3041 -0.5286 -0.1045
   62CHL1    H3 6996   5.809   4.217   9.926  0.2764  0.5746  1.0189
   62CHL1    O3 6997   5.648   4.241  10.055  0.2241 -0.2134 -0.1974
   62CHL1   H3' 6998   5.649   4.155  10.098 -1.4195  0.4273  1.1625
   62CHL1    C4 6999   5.632   4.311   9.827 -0.1909  0.5262 -0.2617
   62CHL1   H4A 7000   5.524   4.314   9.851  0.1440  1.3925  1.2302
   62CHL1   H4B 7001   5.666   4.417   9.839 -0.5078  0.6045 -0.0468
   62CHL1    C5 7002   5.659   4.269   9.682  0.0063 -0.0655  0.4421
   62CHL1    C6 7003   5.718   4.348   9.593  0.2261  0.4918  0.4854
   62CHL1    H6 7004   5.743   4.450   9.625 -0.5011  0.4517  1.1932
   62CHL1    C7 7005   5.732   4.321   9.450 -0.2255  0.1873  0.1936
   62CHL1   H7A 7006   5.701   4.411   9.392 -2.2175 -0.9923 -0.6124
   62CHL1   H7B 7007   5.837   4.293   9.428  0.2752  1.3038  1.1044
   62CHL1    C8 7008   5.638   4.207   9.406 -0.3405  0.0034 -0.8822
   62CHL1    H8 7009   5.539   4.257   9.405 -0.1963  0.4572  2.4550
   62CHL1   C14 7010   5.663   4.162   9.265  0.5958  0.3429 -0.2672
   62CHL1   H14 7011   5.769   4.131   9.262  0.7419  0.9090 -2.6776
   62CHL1   C15 7012   5.665   4.276   9.158  0.0652 -0.1487 -0.4880
   62CHL1  H15A 7013   5.576   4.341   9.170  0.1110  0.0370 -1.1089
   62CHL1  H15B 7014   5.762   4.330   9.154  0.4990 -0.9340 -0.7971
   62CHL1   C16 7015   5.644   4.197   9.029 -0.0240 -0.3721  0.6322
   62CHL1  H16A 7016   5.552   4.230   8.977  1.7875 -0.1312 -2.5628
   62CHL1  H16B 7017   5.730   4.205   8.959 -0.6979  0.5319 -0.0950
   62CHL1   C17 7018   5.624   4.043   9.067 -0.1831 -0.4448 -0.1417
   62CHL1   H17 7019   5.729   4.007   9.063  0.1480  0.3163  1.3890
   62CHL1   C13 7020   5.580   4.047   9.216  0.1168 -0.1387  0.1984
   62CHL1   C18 7021   5.432   4.091   9.216  0.0420 -0.3529 -0.5886
   62CHL1  H18A 7022   5.400   4.126   9.317  1.8369 -1.3613  0.3528
   62CHL1  H18B 7023   5.411   4.181   9.154 -0.3308  0.8493  1.2329
   62CHL1  H18C 7024   5.354   4.019   9.182  0.2885  0.0935 -2.1179
   62CHL1   C12 7025   5.601   3.925   9.305  0.1544  0.1487 -0.3099
   62CHL1  H12A 7026   5.536   3.842   9.271 -1.3927  0.6407  1.3364
   62CHL1  H12B 7027   5.707   3.894   9.297 -0.4439 -2.4109  1.2269
   62CHL1   C11 7028   5.574   3.955   9.454 -0.1932  0.3150 -0.5146
   62CHL1  H11A 7029   5.463   3.965   9.461 -0.0928  0.2940  1.2109
   62CHL1  H11B 7030   5.600   3.863   9.509 -0.9027  0.8434  0.7094
   62CHL1    C9 7031   5.644   4.086   9.504 -0.7584  0.4584  0.3642
   62CHL1    H9 7032   5.753   4.063   9.503 -0.7448  0.5598 -0.3744
   62CHL1   C10 7033   5.604   4.125   9.645  0.1247 -0.8093  0.2920
   62CHL1   C19 7034   5.458   4.119   9.666 -0.2665  0.2513  0.7174
   62CHL1  H19A 7035   5.406   4.190   9.598  0.5666  0.6658  0.5112
   62CHL1  H19B 7036   5.420   4.016   9.648  2.4134 -0.9345  1.4697
   62CHL1  H19C 7037   5.430   4.150   9.769  1.2159 -2.2477  1.9262
   62CHL1    C1 7038   5.670   4.027   9.743  0.8278 -0.0611  0.1229
   62CHL1   H1A 7039   5.616   3.932   9.724  1.0937 -0.2322  0.2194
   62CHL1   H1B 7040   5.779   4.017   9.723  0.6291  0.5120 -1.3080
   62CHL1    C2 7041   5.663   4.068   9.890 -0.3706 -0.2135  0.3148
   62CHL1   H2A 7042   5.731   4.002   9.948 -0.7220  0.0973  1.0850
   62CHL1   H2B 7043   5.557   4.055   9.920 -0.8457  0.9136 -0.8363
   62CHL1   C20 7044   5.547   3.966   8.958  1.0185  0.0515  0.3383
   62CHL1   H20 7045   5.443   4.004   8.962  0.1913 -2.1768  0.2339
   62CHL1   C21 7046   5.546   3.814   8.997  0.3153 -0.7406  0.5926
   62CHL1  H21A 7047   5.513   3.743   8.918 -2.0019 -0.8745  1.6543
   62CHL1  H21B 7048   5.476   3.796   9.081  0.1908  1.0617  0.8890
   62CHL1  H21C 7049   5.648   3.789   9.033  0.2567  0.1080  1.3599
   62CHL1   C22 7050   5.610   3.988   8.816  0.6875 -0.4991 -0.4563
   62CHL1  H22A 7051   5.606   4.090   8.773  1.1316 -1.1327 -2.0471
   62CHL1  H22B 7052   5.720   3.973   8.813  0.5741 -1.2540 -0.8478
   62CHL1   C23 7053   5.541   3.910   8.696 -1.1265  0.0227  0.6114
   62CHL1  H23A 7054   5.541   3.800   8.712  1.5975  0.1277  1.6765
   62CHL1  H23B 7055   5.437   3.947   8.682 -0.4485  1.6308 -0.3151
   62CHL1   C24 7056   5.626   3.920   8.566  0.2653  0.1725  0.7710
   62CHL1  H24A 7057   5.651   4.027   8.553 -1.0179  0.1244 -2.5763
   62CHL1  H24B 7058   5.718   3.859   8.580 -0.2231 -0.8201 -0.2659
   62CHL1   C25 7059   5.546   3.874   8.441  0.2464  0.4161 -0.5423
   62CHL1   H25 7060   5.440   3.899   8.459 -0.1436 -0.1599 -1.9310
   62CHL1   C26 7061   5.594   3.936   8.313  0.0361  0.5548 -0.2142
   62CHL1  H26A 7062   5.517   3.929   8.233  0.1669 -0.3853 -0.2606
   62CHL1  H26B 7063   5.634   4.039   8.327  1.3637 -0.0288  0.3152
   62CHL1  H26C 7064   5.686   3.886   8.276 -0.6993 -0.2502 -0.9676
   62CHL1   C27 7065   5.534   3.719   8.437 -0.4745  0.3760  0.6577
   62CHL1  H27A 7066   5.634   3.670   8.437  0.3998  2.1424 -0.6500
   62CHL1  H27B 7067   5.477   3.681   8.525  0.5379 -0.6179  0.8993
   62CHL1  H27C 7068   5.489   3.691   8.339  0.9154  0.3933  0.0010
   63CHL1    C3 7069   0.161   5.607  10.133 -0.6893  0.1501  0.4262
   63CHL1    H3 7070   0.082   5.551  10.080 -1.5540  1.9228 -0.2064
   63CHL1    O3 7071   0.159   5.560  10.269  0.4144 -0.1179  0.2008
   63CHL1   H3' 7072   0.255   5.557  10.275  0.6469 -0.3849 -3.0328
   63CHL1    C4 7073   0.295   5.576  10.067  0.0528  0.1858  0.0815
   63CHL1   H4A 7074   0.379   5.618  10.127 -0.8413  0.5922  1.0657
   63CHL1   H4B 7075   0.302   5.465  10.069 -0.7227  0.1237 -0.3120
   63CHL1    C5 7076   0.289   5.624   9.922 -0.2160 -0.3706  0.0294
   63CHL1    C6 7077   0.326   5.539   9.826 -0.2627 -0.2772 -0.9913
   63CHL1    H6 7078   0.366   5.443   9.860  1.0784  0.8382  0.6626
   63CHL1    C7 7079   0.328   5.562   9.678 -0.4364 -0.2620  0.5014
   63CHL1   H7A 7080   0.422   5.529   9.629 -0.5284  1.2986 -0.7450
   63CHL1   H7B 7081   0.238   5.509   9.641 -0.7637  0.9512 -0.4535
   63CHL1    C8 7082   0.307   5.713   9.644  0.0718 -0.1594 -0.3263
   63CHL1    H8 7083   0.405   5.765   9.637  0.0945 -0.2258 -0.5031
   63CHL1   C14 7084   0.261   5.723   9.499 -0.0409  0.5235  0.0452
   63CHL1   H14 7085   0.161   5.675   9.496  0.0687  0.2916  0.1597
   63CHL1   C15 7086   0.338   5.650   9.381  0.2882 -0.2598  0.2771
   63CHL1  H15A 7087   0.442   5.672   9.412  0.2415  0.6101 -0.1649
   63CHL1  H15B 7088   0.331   5.540   9.394  0.7689 -0.0340  2.5984
   63CHL1   C16 7089   0.290   5.728   9.266  0.8110  0.3262  0.4901
   63CHL1  H16A 7090   0.381   5.758   9.209 -0.5624  0.3966 -1.7266
   63CHL1  H16B 7091   0.242   5.661   9.192 -0.6533  0.4060  1.3558
   63CHL1   C17 7092   0.204   5.851   9.305  0.1323 -0.2389  0.0209
   63CHL1   H17 7093   0.097   5.825   9.292  0.5496 -0.5369 -3.3658
   63CHL1   C13 7094   0.239   5.874   9.456  0.0661  0.2199  0.0951
   63CHL1   C18 7095   0.376   5.945   9.457 -0.1908 -0.3765 -0.0773
   63CHL1  H18A 7096   0.418   5.967   9.558 -0.5289  1.4014 -0.3067
   63CHL1  H18B 7097   0.450   5.879   9.407 -2.0163 -0.0258 -3.3848
   63CHL1  H18C 7098   0.362   6.045   9.412 -0.5270 -0.2165  0.3724
   63CHL1   C12 7099   0.128   5.941   9.549  0.1583 -0.0432 -0.7740
   63CHL1  H12A 7100   0.094   6.042   9.517 -1.3763 -0.3553 -0.2096
   63CHL1  H12B 7101   0.039   5.874   9.547  0.4643 -0.4373 -1.0976
   63CHL1   C11 7102   0.178   5.929   9.693 -1.0138 -0.0046 -0.0141
   63CHL1  H11A 7103   0.272   5.988   9.698 -1.4020  0.7725 -1.7594
   63CHL1  H11B 7104   0.109   5.987   9.757  0.0282 -0.5184  1.6229
   63CHL1    C9 7105   0.206   5.784   9.738 -0.4559 -0.2613 -0.7880
   63CHL1    H9 7106   0.114   5.722   9.724 -0.5650 -0.7140  1.7990
   63CHL1   C10 7107   0.243   5.763   9.887 -0.0728  1.0263 -0.3839
   63CHL1   C19 7108   0.344   5.869   9.925  0.2987  0.3269  0.3092
   63CHL1  H19A 7109   0.442   5.846   9.878  0.4138 -0.3882  0.8847
   63CHL1  H19B 7110   0.301   5.966   9.893 -1.2194 -0.1637  0.8515
   63CHL1  H19C 7111   0.366   5.854  10.033  0.5637  1.1031  0.3650
   63CHL1    C1 7112   0.110   5.788   9.969  0.1238  0.3738  0.1738
   63CHL1   H1A 7113   0.085   5.896   9.960  1.0433  0.7023  1.4967
   63CHL1   H1B 7114   0.026   5.731   9.922  0.1979  0.7637 -0.4442
   63CHL1    C2 7115   0.115   5.752  10.119 -0.0899  0.4968  0.4039
   63CHL1   H2A 7116   0.009   5.758  10.150 -0.0653  0.7266  0.4400
   63CHL1   H2B 7117   0.183   5.827  10.164  0.3691 -1.5472  3.2699
   63CHL1   C20 7118   0.219   5.975   9.201 -0.3447  0.2101 -0.3049
   63CHL1   H20 7119   0.328   5.992   9.191 -0.5547  1.6692 -0.2007
   63CHL1   C21 7120   0.133   6.099   9.250  0.2901 -0.4251  0.5081
   63CHL1  H21A 7121   0.142   6.187   9.182  0.8937 -1.3291 -0.5775
   63CHL1  H21B 7122   0.169   6.130   9.351  0.3002  0.1636  0.3292
   63CHL1  H21C 7123   0.028   6.070   9.274  0.3168  0.0623  1.2579
   63CHL1   C22 7124   0.171   5.940   9.060 -0.0153 -0.0535  0.8271
   63CHL1  H22A 7125   0.234   5.856   9.024 -1.1213 -1.0876  1.2290
   63CHL1  H22B 7126   0.065   5.906   9.069 -0.0730 -0.1482 -0.1846
   63CHL1   C23 7127   0.196   6.055   8.956 -0.0038  0.1222  0.1074
   63CHL1  H23A 7128   0.145   6.152   8.974  0.4447  0.2751  0.5434
   63CHL1  H23B 7129   0.304   6.079   8.964  0.0366  0.3349 -0.9344
   63CHL1   C24 7130   0.155   6.006   8.813  0.5043 -0.7966  0.4305
   63CHL1  H24A 7131   0.201   5.906   8.800  1.0141 -0.3115 -1.7343
   63CHL1  H24B 7132   0.044   6.005   8.807  0.4659  1.3396  0.2694
   63CHL1   C25 7133   0.204   6.101   8.701  0.0439  0.0963 -0.3684
   63CHL1   H25 7134   0.313   6.089   8.717  0.1014 -0.3160 -1.0335
   63CHL1   C26 7135   0.165   6.040   8.563 -0.4839  0.0722  0.4812
   63CHL1  H26A 7136   0.257   6.017   8.504  0.2395 -0.2040  1.7024
   63CHL1  H26B 7137   0.100   5.950   8.561 -2.1356  1.2630  0.4963
   63CHL1  H26C 7138   0.116   6.116   8.499  0.3298 -2.5837 -3.4967
   63CHL1   C27 7139   0.162   6.244   8.708 -0.3513 -0.5304 -0.7067
   63CHL1  H27A 7140   0.206   6.306   8.627 -2.0516 -0.0908 -1.3054
   63CHL1  H27B 7141   0.052   6.256   8.700 -0.2074  2.6694  1.3043
   63CHL1  H27C 7142   0.201   6.295   8.799  2.3348 -2.3027 -0.7836
   64CHL1    C3 7143   6.201   5.054   9.983  0.9747  0.5554  0.1561
   64CHL1    H3 7144   6.220   4.945   9.983  0.6067  0.4569 -2.2723
   64CHL1    O3 7145   6.171   5.092  10.116 -0.0771  0.0209 -0.3185
   64CHL1   H3' 7146   6.254   5.070  10.160  0.7734  1.3086 -1.2438
   64CHL1    C4 7147   6.315   5.134   9.926  0.3869 -0.1806  0.1100
   64CHL1   H4A 7148   6.306   5.244   9.937  2.4630  0.3629 -3.0641
   64CHL1   H4B 7149   6.404   5.103   9.985 -0.2807 -1.0581  0.6709
   64CHL1    C5 7150   6.339   5.107   9.776  0.0328  0.6474  0.0964
   64CHL1    C6 7151   6.455   5.067   9.726  0.0624 -0.2187 -0.0121
   64CHL1    H6 7152   6.528   5.026   9.796 -1.3055 -1.5385  0.6674
   64CHL1    C7 7153   6.481   5.037   9.586 -0.1342 -1.0025  0.7148
   64CHL1   H7A 7154   6.585   5.066   9.560 -1.0070  1.0327 -0.6720
   64CHL1   H7B 7155   6.473   4.927   9.574  0.4475 -0.9757  0.0333
   64CHL1    C8 7156   6.380   5.107   9.491 -0.1877  0.2260 -0.4878
   64CHL1    H8 7157   6.393   5.217   9.500 -1.4998  0.3333  0.2575
   64CHL1   C14 7158   6.409   5.065   9.346 -0.3408  0.7052  0.0117
   64CHL1   H14 7159   6.410   4.954   9.338 -1.6929  0.4901  2.2549
   64CHL1   C15 7160   6.547   5.101   9.294  0.3240  0.1219  0.2084
   64CHL1  H15A 7161   6.562   5.210   9.310 -1.0292  0.0238  2.3994
   64CHL1  H15B 7162   6.627   5.045   9.347 -0.9921 -2.8184 -0.8115
   64CHL1   C16 7163   6.525   5.093   9.145  0.2991  0.1036 -0.8400
   64CHL1  H16A 7164   6.554   5.194   9.111  1.7023  0.3610  1.0408
   64CHL1  H16B 7165   6.597   5.019   9.103  2.4063  0.9756  1.1173
   64CHL1   C17 7166   6.376   5.058   9.115 -0.2441  0.1414 -0.5873
   64CHL1   H17 7167   6.357   4.949   9.121  2.0909 -0.2393  0.3858
   64CHL1   C13 7168   6.309   5.114   9.242 -0.1808  0.3619  0.0292
   64CHL1   C18 7169   6.294   5.271   9.237 -0.3285 -0.9593 -0.3142
   64CHL1  H18A 7170   6.382   5.317   9.187  0.9604 -2.0894  0.8660
   64CHL1  H18B 7171   6.207   5.300   9.175  1.8334  0.9654 -2.5704
   64CHL1  H18C 7172   6.283   5.308   9.341  1.0177 -0.2942 -0.3972
   64CHL1   C12 7173   6.171   5.059   9.289  0.1033 -0.2362  0.7353
   64CHL1  H12A 7174   6.085   5.094   9.227 -0.4990  0.2447  1.8250
   64CHL1  H12B 7175   6.173   4.948   9.296 -2.4584 -0.3301  0.6012
   64CHL1   C11 7176   6.134   5.101   9.433 -0.5273  0.3489  0.6536
   64CHL1  H11A 7177   6.130   5.212   9.428  1.1962  0.4044 -0.0072
   64CHL1  H11B 7178   6.034   5.061   9.457  0.5229 -2.5673  0.3993
   64CHL1    C9 7179   6.240   5.072   9.538  0.7271 -0.2036 -0.5966
   64CHL1    H9 7180   6.235   4.962   9.550 -0.4269 -0.0884  0.0837
   64CHL1   C10 7181   6.215   5.124   9.682 -0.2978 -0.4282  0.0933
   64CHL1   C19 7182   6.188   5.277   9.677  0.5516 -0.1920 -0.0182
   64CHL1  H19A 7183   6.269   5.334   9.626  0.9256  0.9600  1.7912
   64CHL1  H19B 7184   6.082   5.297   9.650 -0.1162 -2.1998  1.0372
   64CHL1  H19C 7185   6.206   5.330   9.773 -0.2075  1.2720 -0.6579
   64CHL1    C1 7186   6.091   5.057   9.746  0.0484  0.2728 -0.1591
   64CHL1   H1A 7187   6.003   5.089   9.688  0.1728  1.1622  0.1299
   64CHL1   H1B 7188   6.096   4.946   9.735  1.4374  0.3290 -0.1544
   64CHL1    C2 7189   6.074   5.079   9.899  0.7076  0.5630  1.0684
   64CHL1   H2A 7190   5.989   5.022   9.942  0.6064  0.0483  0.2187
   64CHL1   H2B 7191   6.046   5.186   9.905 -0.6801  0.2371  0.5851
   64CHL1   C20 7192   6.311   5.106   8.985 -0.0723  0.2672  0.3531
   64CHL1   H20 7193   6.214   5.149   9.018 -0.5864 -1.4655  1.1069
   64CHL1   C21 7194   6.293   4.978   8.906  0.1694  0.2227 -0.7229
   64CHL1  H21A 7195   6.396   4.937   8.901  0.1682 -0.2097  1.9285
   64CHL1  H21B 7196   6.248   4.998   8.807 -2.8453 -1.5698  0.1828
   64CHL1  H21C 7197   6.225   4.908   8.960  1.8870 -0.0398  1.1600
   64CHL1   C22 7198   6.395   5.201   8.903 -0.4085 -0.1586 -0.3263
   64CHL1  H22A 7199   6.406   5.290   8.968  0.2632 -0.8650  0.5278
   64CHL1  H22B 7200   6.497   5.158   8.896 -0.4499  0.0603 -2.6639
   64CHL1   C23 7201   6.328   5.240   8.766  0.7329 -0.8219  0.0335
   64CHL1  H23A 7202   6.373   5.175   8.688  2.1603 -0.0869  0.2171
   64CHL1  H23B 7203   6.217   5.240   8.759  0.6002  3.4719  0.7760
   64CHL1   C24 7204   6.372   5.389   8.748 -1.1582  0.3219  0.3819
   64CHL1  H24A 7205   6.335   5.453   8.831 -0.7916  0.3444  0.5263
   64CHL1  H24B 7206   6.483   5.386   8.748 -1.1340  1.0143 -1.1365
   64CHL1   C25 7207   6.300   5.457   8.629  0.2390  0.1132 -0.1737
   64CHL1   H25 7208   6.192   5.434   8.640 -0.0665  1.2918 -0.5537
   64CHL1   C26 7209   6.326   5.605   8.631  0.8715 -0.6808  0.0933
   64CHL1  H26A 7210   6.267   5.667   8.560  0.6276 -1.1124 -0.0816
   64CHL1  H26B 7211   6.301   5.643   8.732 -0.5939  0.1568 -0.5761
   64CHL1  H26C 7212   6.434   5.616   8.609  0.7736  3.5126  1.2276
   64CHL1   C27 7213   6.353   5.410   8.494 -0.4769 -0.6877  0.3262
   64CHL1  H27A 7214   6.293   5.469   8.421  0.4818 -1.3152 -0.9829
   64CHL1  H27B 7215   6.462   5.418   8.478 -0.1193 -0.6431  2.5450
   64CHL1  H27C 7216   6.343   5.301   8.471 -2.6121 -0.6566  0.9534
   65CHL1    C3 7217   2.134   2.353  10.246 -0.1032  0.1539 -0.1553
   65CHL1    H3 7218   2.157   2.245  10.233 -0.2101 -0.0627  1.4149
   65CHL1    O3 7219   2.141   2.391  10.381 -0.5628  0.5478  0.1709
   65CHL1   H3' 7220   2.131   2.486  10.387  1.0978  0.8402 -1.3691
   65CHL1    C4 7221   2.235   2.431  10.166 -0.6145 -0.0597 -0.0512
   65CHL1   H4A 7222   2.219   2.541  10.178 -0.6077  0.0194 -0.7489
   65CHL1   H4B 7223   2.336   2.405  10.204  0.0658 -0.1124 -1.8431
   65CHL1    C5 7224   2.222   2.392  10.023  0.2823  0.4450  0.0221
   65CHL1    C6 7225   2.322   2.335   9.953  0.3300 -0.3532 -0.1108
   65CHL1    H6 7226   2.422   2.306   9.990 -0.1048 -0.8056  0.7135
   65CHL1    C7 7227   2.319   2.313   9.803  0.3565  0.1137  0.4593
   65CHL1   H7A 7228   2.411   2.350   9.753  0.2524 -0.4152 -0.1165
   65CHL1   H7B 7229   2.314   2.203   9.786  1.5319  0.3458 -1.5620
   65CHL1    C8 7230   2.210   2.395   9.739 -0.3460  1.3415 -0.4160
   65CHL1    H8 7231   2.239   2.502   9.752 -1.2144  1.5025  0.2629
   65CHL1   C14 7232   2.201   2.363   9.589 -0.2230 -0.2224  0.3848
   65CHL1   H14 7233   2.186   2.254   9.573 -0.4084 -0.1475  0.0400
   65CHL1   C15 7234   2.333   2.376   9.505  0.0589  0.0362 -0.3091
   65CHL1  H15A 7235   2.384   2.468   9.540  2.7222 -1.2348 -0.7355
   65CHL1  H15B 7236   2.400   2.290   9.525 -1.5168 -0.5743  2.6566
   65CHL1   C16 7237   2.270   2.381   9.359  0.4169  0.4628  0.6885
   65CHL1  H16A 7238   2.316   2.467   9.306 -0.0043  0.7083  0.7232
   65CHL1  H16B 7239   2.300   2.286   9.309 -1.2029  0.7684 -0.9069
   65CHL1   C17 7240   2.116   2.381   9.377 -0.4111 -0.1292  0.2004
   65CHL1   H17 7241   2.085   2.274   9.374  1.9512 -0.7891 -2.1132
   65CHL1   C13 7242   2.096   2.439   9.517  0.1515  0.4334 -0.6971
   65CHL1   C18 7243   2.113   2.592   9.522 -0.2019  0.4122 -0.5144
   65CHL1  H18A 7244   2.214   2.623   9.486 -0.5625  2.0630 -0.1471
   65CHL1  H18B 7245   2.031   2.644   9.470  1.5438  2.7249 -1.0228
   65CHL1  H18C 7246   2.135   2.633   9.623 -0.9532 -0.5184  0.0298
   65CHL1   C12 7247   1.964   2.397   9.581 -0.2357  0.0756 -0.0131
   65CHL1  H12A 7248   1.886   2.457   9.530  1.1697  2.2443  0.3548
   65CHL1  H12B 7249   1.946   2.288   9.568 -3.0156  0.3751  0.9330
   65CHL1   C11 7250   1.956   2.434   9.732  0.7905 -0.0638 -0.2517
   65CHL1  H11A 7251   1.935   2.542   9.749  1.3673 -0.0421  0.3550
   65CHL1  H11B 7252   1.868   2.378   9.770 -0.1633  0.0536 -2.2365
   65CHL1    C9 7253   2.076   2.375   9.811  0.1071 -0.7200 -0.2845
   65CHL1    H9 7254   2.074   2.264   9.815 -1.5962 -0.6826  0.2594
   65CHL1   C10 7255   2.086   2.429   9.958 -0.6927  0.6125  0.0039
   65CHL1   C19 7256   2.063   2.584   9.965 -0.5981 -0.0028  0.6144
   65CHL1  H19A 7257   2.094   2.626  10.063 -0.2145  1.4206 -0.0965
   65CHL1  H19B 7258   2.125   2.645   9.896 -1.1656 -0.4665 -0.3075
   65CHL1  H19C 7259   1.954   2.604   9.958 -0.3369  0.9478 -1.0576
   65CHL1    C1 7260   1.983   2.360  10.044  1.3178 -0.5704  0.7926
   65CHL1   H1A 7261   1.879   2.387  10.014  1.2544  0.3199  1.7703
   65CHL1   H1B 7262   1.988   2.251  10.024  0.2636 -0.5823  0.5395
   65CHL1    C2 7263   1.989   2.382  10.197 -0.0634  0.4273 -0.0492
   65CHL1   H2A 7264   1.922   2.319  10.260  2.3908  1.8877  4.2673
   65CHL1   H2B 7265   1.941   2.481  10.213 -1.8526 -0.3452 -0.4890
   65CHL1   C20 7266   2.042   2.446   9.257 -0.3194 -0.5737 -0.0948
   65CHL1   H20 7267   1.944   2.475   9.301 -0.4498  1.5209 -1.7024
   65CHL1   C21 7268   2.026   2.340   9.151  0.4013 -0.3870 -0.0156
   65CHL1  H21A 7269   1.952   2.373   9.075  0.1437 -0.8945  0.0127
   65CHL1  H21B 7270   1.994   2.241   9.190  1.8653 -0.6040  0.6575
   65CHL1  H21C 7271   2.123   2.325   9.099  2.0729 -1.7940  3.3496
   65CHL1   C22 7272   2.088   2.589   9.199  0.7079  0.3056 -0.1971
   65CHL1  H22A 7273   2.087   2.676   9.269 -1.0570  0.9530 -1.0042
   65CHL1  H22B 7274   2.194   2.569   9.170  1.4285  1.0481  1.8371
   65CHL1   C23 7275   2.002   2.643   9.079  0.1758 -0.3486 -0.2565
   65CHL1  H23A 7276   2.013   2.577   8.990 -2.7974 -1.1285 -0.0884
   65CHL1  H23B 7277   1.895   2.631   9.104 -0.1760 -1.4177 -2.1941
   65CHL1   C24 7278   2.061   2.778   9.046 -0.6443 -0.6272  0.2740
   65CHL1  H24A 7279   2.045   2.848   9.131 -0.0469 -0.6529  0.4029
   65CHL1  H24B 7280   2.170   2.775   9.028 -0.6345  0.7087  0.0432
   65CHL1   C25 7281   2.011   2.850   8.910 -0.7360  0.3675 -0.0764
   65CHL1   H25 7282   1.902   2.829   8.899 -1.0452  1.6899  0.4124
   65CHL1   C26 7283   2.027   3.008   8.937 -0.0280 -0.2596  0.9257
   65CHL1  H26A 7284   2.020   3.072   8.847  0.9965 -3.2441 -1.3517
   65CHL1  H26B 7285   1.962   3.045   9.020 -0.0571  4.0964 -0.9066
   65CHL1  H26C 7286   2.131   3.016   8.976  0.0079  0.2653  0.7261
   65CHL1   C27 7287   2.088   2.806   8.781  0.2828 -0.2322  0.6460
   65CHL1  H27A 7288   2.043   2.708   8.754  1.3489 -0.0185 -1.9998
   65CHL1  H27B 7289   2.052   2.874   8.702 -2.3091 -2.7050 -0.3771
   65CHL1  H27C 7290   2.199   2.808   8.791  0.3300  0.4366 -0.0039
   66CHL1    C3 7291   6.699   0.567  10.688  0.2761 -0.4588  0.1561
   66CHL1    H3 7292   6.679   0.673  10.716  2.3661  0.0593 -0.2045
   66CHL1    O3 7293   6.733   0.494  10.806  0.0168  0.3256 -0.2123
   66CHL1   H3' 7294   6.647   0.493  10.849  0.6643 -1.7336  1.0820
   66CHL1    C4 7295   6.587   0.479  10.619  0.4582 -0.3731  0.0454
   66CHL1   H4A 7296   6.607   0.370  10.619 -0.6547 -0.5799  0.5349
   66CHL1   H4B 7297   6.500   0.478  10.687 -1.0006 -0.8522 -1.7842
   66CHL1    C5 7298   6.541   0.529  10.485 -0.3288 -0.2340 -0.3959
   66CHL1    C6 7299   6.409   0.559  10.460  0.3197 -0.4338 -0.2225
   66CHL1    H6 7300   6.331   0.525  10.529 -1.3172  3.0260 -0.2671
   66CHL1    C7 7301   6.364   0.621  10.330 -0.5687 -0.4020  0.3377
   66CHL1   H7A 7302   6.268   0.579  10.293 -2.3661  2.9721  0.9219
   66CHL1   H7B 7303   6.351   0.729  10.353  2.4867  0.4159 -1.4622
   66CHL1    C8 7304   6.472   0.624  10.212  0.7713  0.3469  0.9929
   66CHL1    H8 7305   6.487   0.520  10.178 -1.2237  0.5980 -0.7380
   66CHL1   C14 7306   6.436   0.714  10.091 -0.3956 -0.3909 -0.7131
   66CHL1   H14 7307   6.439   0.816  10.135  0.1532 -0.6996 -0.0229
   66CHL1   C15 7308   6.304   0.696  10.019 -0.2744 -0.1778  0.0751
   66CHL1  H15A 7309   6.279   0.590   9.995 -2.5507 -0.0106  1.5008
   66CHL1  H15B 7310   6.225   0.742  10.082 -0.0846  1.4495 -0.8632
   66CHL1   C16 7311   6.323   0.791   9.898 -0.2886  0.4176  0.9428
   66CHL1  H16A 7312   6.294   0.726   9.813 -0.4637 -2.0738  2.8580
   66CHL1  H16B 7313   6.270   0.889   9.901 -1.2971 -0.0733 -0.6551
   66CHL1   C17 7314   6.473   0.826   9.884 -0.2131  0.1411  0.0600
   66CHL1   H17 7315   6.476   0.931   9.920 -1.9869 -0.0403  0.7796
   66CHL1   C13 7316   6.545   0.736   9.988 -0.0506  0.3722  0.8442
   66CHL1   C18 7317   6.571   0.601   9.916  0.2737  0.0490  0.2855
   66CHL1  H18A 7318   6.591   0.517   9.986  0.0363  0.2616  0.6109
   66CHL1  H18B 7319   6.490   0.565   9.849  0.8739 -0.3308 -0.2442
   66CHL1  H18C 7320   6.663   0.605   9.853 -1.0170  0.0453 -1.6485
   66CHL1   C12 7321   6.670   0.790  10.057  0.0467 -0.7743 -0.2732
   66CHL1  H12A 7322   6.759   0.802   9.992  0.6301 -0.1480  0.6222
   66CHL1  H12B 7323   6.648   0.889  10.101 -1.1563 -0.7431 -0.9278
   66CHL1   C11 7324   6.717   0.693  10.171 -0.4438  0.3093 -0.4284
   66CHL1  H11A 7325   6.739   0.600  10.114  0.0779 -0.3395  0.8016
   66CHL1  H11B 7326   6.803   0.752  10.210 -0.1102  0.6004 -1.6020
   66CHL1    C9 7327   6.608   0.661  10.271  0.7511  1.5379 -1.9527
   66CHL1    H9 7328   6.586   0.750  10.334  0.8412 -1.4420  2.6063
   66CHL1   C10 7329   6.650   0.566  10.387 -0.4040  0.7398  0.0438
   66CHL1   C19 7330   6.697   0.431  10.328 -0.7989 -0.3631  0.3592
   66CHL1  H19A 7331   6.610   0.383  10.277 -0.6921 -0.6139  0.4077
   66CHL1  H19B 7332   6.776   0.431  10.249  0.2690 -0.1445  1.4222
   66CHL1  H19C 7333   6.740   0.364  10.406  0.7524  0.8424  0.5707
   66CHL1    C1 7334   6.773   0.632  10.453 -0.4180  0.3468  0.2033
   66CHL1   H1A 7335   6.857   0.624  10.380 -1.1366 -1.6669 -0.4216
   66CHL1   H1B 7336   6.739   0.737  10.468 -4.5003 -1.0874  1.6984
   66CHL1    C2 7337   6.816   0.576  10.591  0.1281 -0.0630  0.2773
   66CHL1   H2A 7338   6.904   0.624  10.641  0.5618  0.2024 -0.7150
   66CHL1   H2B 7339   6.866   0.477  10.583  1.7280  0.8469 -1.3555
   66CHL1   C20 7340   6.529   0.835   9.739 -0.0865 -0.0709 -0.7608
   66CHL1   H20 7341   6.520   0.736   9.689  1.6835 -0.9415  0.5712
   66CHL1   C21 7342   6.677   0.881   9.732 -0.3820 -0.1828  0.0429
   66CHL1  H21A 7343   6.695   0.981   9.777  2.2076 -0.0202 -1.2204
   66CHL1  H21B 7344   6.710   0.900   9.628  1.7563  0.6445  0.8329
   66CHL1  H21C 7345   6.739   0.804   9.784  0.2961 -0.6995 -1.5069
   66CHL1   C22 7346   6.458   0.951   9.657 -0.4318 -0.0634  0.4440
   66CHL1  H22A 7347   6.384   0.990   9.730  0.9259  1.7963  0.8657
   66CHL1  H22B 7348   6.528   1.037   9.646  0.0635 -0.5383 -0.1318
   66CHL1   C23 7349   6.399   0.911   9.516 -0.0705  0.0269 -0.4226
   66CHL1  H23A 7350   6.479   0.858   9.460 -0.1377 -0.2794 -0.2344
   66CHL1  H23B 7351   6.314   0.841   9.532  0.3492 -0.5460 -0.6796
   66CHL1   C24 7352   6.341   1.023   9.429 -1.0191  0.0521 -0.7752
   66CHL1  H24A 7353   6.266   1.087   9.480 -1.2203 -1.0066  0.2950
   66CHL1  H24B 7354   6.422   1.086   9.386  0.4500 -1.0408  0.3480
   66CHL1   C25 7355   6.279   0.970   9.293 -0.4453 -0.1405  0.5040
   66CHL1   H25 7356   6.206   0.890   9.314 -0.0220 -0.3679  1.1146
   66CHL1   C26 7357   6.199   1.084   9.232  0.1374  1.3668 -1.1003
   66CHL1  H26A 7358   6.266   1.153   9.178  1.1182 -0.5176 -2.3269
   66CHL1  H26B 7359   6.116   1.050   9.167 -0.8856 -0.4650  1.0891
   66CHL1  H26C 7360   6.149   1.138   9.315  0.8069  0.3493 -0.0263
   66CHL1   C27 7361   6.381   0.901   9.198  0.5721 -0.2722  1.6132
   66CHL1  H27A 7362   6.310   0.869   9.119  0.7653 -0.4550  1.5137
   66CHL1  H27B 7363   6.452   0.979   9.164 -0.5659  0.0587 -0.0333
   66CHL1  H27C 7364   6.440   0.817   9.241 -0.1969 -1.5955  0.1281
   67CHL1    C3 7365   3.630   1.067  10.134 -0.9651  0.2325  0.9160
   67CHL1    H3 7366   3.665   1.173  10.132 -2.4912  0.7656  1.1071
   67CHL1    O3 7367   3.691   1.009  10.246  0.0252 -0.3985  0.0562
   67CHL1   H3' 7368   3.654   0.921  10.250 -0.4516 -0.1743  0.7847
   67CHL1    C4 7369   3.483   1.052  10.145 -1.2904  0.3088  0.5672
   67CHL1   H4A 7370   3.463   0.943  10.146  1.5447 -0.2418  2.2505
   67CHL1   H4B 7371   3.438   1.097  10.237 -1.7830 -0.2242  0.5867
   67CHL1    C5 7372   3.422   1.112  10.021  0.2941  0.0048 -0.3166
   67CHL1    C6 7373   3.328   1.206  10.028 -0.2755  0.5339 -0.7505
   67CHL1    H6 7374   3.294   1.245  10.125 -3.0704  0.0124 -1.4831
   67CHL1    C7 7375   3.240   1.255   9.912 -0.3961 -0.5833 -0.0039
   67CHL1   H7A 7376   3.131   1.259   9.936 -0.3785  1.5429 -0.1517
   67CHL1   H7B 7377   3.272   1.355   9.875  0.1522 -0.8090 -0.1438
   67CHL1    C8 7378   3.252   1.152   9.793 -0.0011  0.1437 -0.6151
   67CHL1    H8 7379   3.191   1.063   9.822  0.4479  0.2261  0.5897
   67CHL1   C14 7380   3.187   1.221   9.670  0.2863  0.0058  0.1165
   67CHL1   H14 7381   3.254   1.308   9.650  3.3225 -2.1819  0.4702
   67CHL1   C15 7382   3.048   1.291   9.683 -0.2987  0.9989 -0.2829
   67CHL1  H15A 7383   2.976   1.229   9.740  3.4308 -1.9949  1.3628
   67CHL1  H15B 7384   3.055   1.390   9.734  0.8460  1.8681 -2.0762
   67CHL1   C16 7385   3.005   1.310   9.535  0.3445  0.3882  0.4572
   67CHL1  H16A 7386   2.905   1.264   9.518  0.2645  1.0322 -0.8653
   67CHL1  H16B 7387   2.995   1.416   9.504 -3.3492 -0.3886 -1.4267
   67CHL1   C17 7388   3.113   1.230   9.451 -0.3856  0.7145 -0.1701
   67CHL1   H17 7389   3.186   1.310   9.424 -1.7451  2.0329 -0.0277
   67CHL1   C13 7390   3.186   1.129   9.553  0.6925  0.0270  0.0148
   67CHL1   C18 7391   3.094   1.003   9.575 -0.1088 -0.1238 -0.2468
   67CHL1  H18A 7392   3.102   0.937   9.486 -2.9151  1.8104 -1.9974
   67CHL1  H18B 7393   3.119   0.950   9.669  0.0396  0.9407  0.3310
   67CHL1  H18C 7394   2.988   1.034   9.583 -0.1583 -0.1677 -0.6846
   67CHL1   C12 7395   3.329   1.091   9.518  0.2677 -0.6249 -0.2003
   67CHL1  H12A 7396   3.337   1.032   9.425  0.5409  1.0556 -1.2634
   67CHL1  H12B 7397   3.392   1.181   9.504  2.1595 -1.9262 -0.2698
   67CHL1   C11 7398   3.395   1.016   9.633 -0.9669 -0.3054 -0.3362
   67CHL1  H11A 7399   3.336   0.923   9.650 -0.1564 -1.0058 -1.3116
   67CHL1  H11B 7400   3.500   0.984   9.615 -1.5370 -2.7110  0.4807
   67CHL1    C9 7401   3.396   1.103   9.764  0.3378 -0.3835  0.4753
   67CHL1    H9 7402   3.446   1.197   9.733  0.2313 -0.2329  0.7694
   67CHL1   C10 7403   3.457   1.043   9.888 -0.4193 -0.5127 -1.0058
   67CHL1   C19 7404   3.408   0.892   9.895  0.6194  0.3398  0.3402
   67CHL1  H19A 7405   3.306   0.889   9.850 -0.7623  1.0199  3.3451
   67CHL1  H19B 7406   3.463   0.831   9.820 -2.7708 -1.1934 -0.9898
   67CHL1  H19C 7407   3.404   0.833   9.989  2.8654  1.0938  0.9398
   67CHL1    C1 7408   3.616   1.048   9.879 -0.3945 -1.1268 -0.0474
   67CHL1   H1A 7409   3.648   0.987   9.792 -0.7027  1.5469 -2.0859
   67CHL1   H1B 7410   3.649   1.154   9.871  4.0614 -2.4110  0.3490
   67CHL1    C2 7411   3.680   0.993  10.010 -0.3238  0.0205  0.3730
   67CHL1   H2A 7412   3.790   1.006  10.004 -0.1093 -1.4566  0.7624
   67CHL1   H2B 7413   3.657   0.884  10.013  0.4640 -0.1524  0.2706
   67CHL1   C20 7414   3.057   1.176   9.321 -0.3869 -0.0099 -0.1335
   67CHL1   H20 7415   2.997   1.084   9.338  0.5028 -1.0521 -2.4406
   67CHL1   C21 7416   3.172   1.144   9.227 -0.5300 -0.1354 -0.4965
   67CHL1  H21A 7417   3.134   1.140   9.123  0.0582 -0.0159 -0.7179
   67CHL1  H21B 7418   3.212   1.043   9.253 -1.1894 -0.7272 -1.7610
   67CHL1  H21C 7419   3.257   1.214   9.237 -1.0011  0.1580  1.8267
   67CHL1   C22 7420   2.952   1.269   9.252 -0.7282 -0.2907 -0.6953
   67CHL1  H22A 7421   2.907   1.215   9.166  2.1904 -2.4014 -0.9762
   67CHL1  H22B 7422   2.867   1.278   9.324  0.4247 -2.5335  0.9973
   67CHL1   C23 7423   2.994   1.404   9.199 -0.1635  0.5231 -0.7985
   67CHL1  H23A 7424   3.036   1.460   9.285  0.4008  0.9558 -1.3524
   67CHL1  H23B 7425   3.070   1.383   9.121 -0.0131 -0.4486 -0.3884
   67CHL1   C24 7426   2.882   1.483   9.126 -0.2730  0.2832  0.3367
   67CHL1  H24A 7427   2.791   1.453   9.182  0.2082 -1.9025  0.0337
   67CHL1  H24B 7428   2.890   1.593   9.136 -0.1969  0.5410 -2.2093
   67CHL1   C25 7429   2.857   1.468   8.970  0.0784  0.0897  0.2796
   67CHL1   H25 7430   2.814   1.366   8.955 -1.8643  0.8982  0.1649
   67CHL1   C26 7431   2.756   1.572   8.935 -0.0487  0.3963  0.3561
   67CHL1  H26A 7432   2.792   1.675   8.953  0.7754  0.2300 -0.3260
   67CHL1  H26B 7433   2.755   1.582   8.825 -2.0485 -1.4231  0.1662
   67CHL1  H26C 7434   2.654   1.556   8.977 -0.4125 -0.4349 -0.8219
   67CHL1   C27 7435   2.983   1.498   8.893 -0.4334  0.0521  0.2699
   67CHL1  H27A 7436   3.037   1.585   8.937  0.6373 -0.6204  0.2823
   67CHL1  H27B 7437   3.045   1.407   8.908 -0.3044  0.0759 -0.1386
   67CHL1  H27C 7438   2.952   1.509   8.787 -3.1172  1.3407  1.1470
   68CHL1    C3 7439   1.557   1.960  10.372  0.6289 -0.6042 -0.4978
   68CHL1    H3 7440   1.487   2.045  10.355  2.4697  1.3093  1.1545
   68CHL1    O3 7441   1.555   1.940  10.509 -0.0583  0.5024 -0.4691
   68CHL1   H3' 7442   1.608   1.860  10.504  0.5287  0.9436 -1.4504
   68CHL1    C4 7443   1.514   1.835  10.288  0.9005 -0.1239  0.3756
   68CHL1   H4A 7444   1.578   1.760  10.341  1.5570  1.1068  1.3431
   68CHL1   H4B 7445   1.412   1.803  10.320  1.0672 -1.1309 -0.0699
   68CHL1    C5 7446   1.534   1.844  10.138 -0.5730  0.4095 -0.4243
   68CHL1    C6 7447   1.442   1.804  10.059 -0.4075 -0.1336  0.0760
   68CHL1    H6 7448   1.348   1.767  10.104 -0.4294  1.5437  1.4136
   68CHL1    C7 7449   1.450   1.809   9.913  0.0321 -0.0596 -0.1259
   68CHL1   H7A 7450   1.414   1.711   9.874  0.3944 -0.6733  1.0339
   68CHL1   H7B 7451   1.373   1.878   9.873  0.8599  2.0514  1.8307
   68CHL1    C8 7452   1.592   1.837   9.856  0.0334 -0.2114 -0.2452
   68CHL1    H8 7453   1.658   1.749   9.841 -0.2235 -0.7334  1.5726
   68CHL1   C14 7454   1.572   1.894   9.714  0.7619  0.2919 -0.0476
   68CHL1   H14 7455   1.503   1.981   9.723  0.1766 -0.1405 -0.3212
   68CHL1   C15 7456   1.485   1.806   9.618 -0.5490  0.0135  0.0878
   68CHL1  H15A 7457   1.524   1.703   9.634  1.2684  0.5053 -0.9757
   68CHL1  H15B 7458   1.378   1.805   9.648 -0.1879 -0.5632  1.4036
   68CHL1   C16 7459   1.522   1.873   9.480  0.1551 -0.0230  0.3562
   68CHL1  H16A 7460   1.557   1.789   9.417 -3.2456  0.1821 -1.9381
   68CHL1  H16B 7461   1.432   1.914   9.429 -0.4150 -2.4967 -0.7061
   68CHL1   C17 7462   1.635   1.974   9.504 -0.0202 -0.2405 -0.8991
   68CHL1   H17 7463   1.580   2.067   9.529 -0.9296 -1.8397  3.4700
   68CHL1   C13 7464   1.698   1.938   9.645 -0.4054  0.6297  0.0411
   68CHL1   C18 7465   1.789   1.810   9.624  0.7573 -0.2485  0.2110
   68CHL1  H18A 7466   1.883   1.842   9.574  0.0501  1.0721 -0.3191
   68CHL1  H18B 7467   1.826   1.767   9.719 -1.4809  1.8671  2.1068
   68CHL1  H18C 7468   1.740   1.720   9.580 -0.7581  0.0350  1.2793
   68CHL1   C12 7469   1.776   2.048   9.732 -0.2674 -0.4162  0.2164
   68CHL1  H12A 7470   1.872   2.083   9.687  0.1515 -1.4715  0.2727
   68CHL1  H12B 7471   1.719   2.143   9.736 -0.6555 -0.6083 -0.6470
   68CHL1   C11 7472   1.801   1.996   9.870 -0.8512  0.3544 -0.2157
   68CHL1  H11A 7473   1.872   1.912   9.862 -1.1606  0.1725 -1.2132
   68CHL1  H11B 7474   1.852   2.077   9.927 -0.2783 -0.5939  0.6174
   68CHL1    C9 7475   1.669   1.946   9.935 -0.6680  0.9029  0.1566
   68CHL1    H9 7476   1.601   2.034   9.936 -1.5129  0.3061 -2.0379
   68CHL1   C10 7477   1.669   1.908  10.090 -0.1700 -0.4620 -0.0137
   68CHL1   C19 7478   1.771   1.790  10.098 -0.5425 -0.8779  0.3361
   68CHL1  H19A 7479   1.732   1.695  10.054 -0.8998 -0.7797  0.4379
   68CHL1  H19B 7480   1.866   1.819  10.049 -0.7388 -2.0755 -0.7887
   68CHL1  H19C 7481   1.788   1.773  10.206  1.7871 -0.9153 -0.0073
   68CHL1    C1 7482   1.713   2.030  10.182  0.3406 -0.0920 -0.8505
   68CHL1   H1A 7483   1.819   2.054  10.158  1.5083 -2.0542  2.1081
   68CHL1   H1B 7484   1.657   2.123  10.158  0.3574  0.4461  1.1120
   68CHL1    C2 7485   1.699   2.014  10.330 -0.1945  0.2910  0.0783
   68CHL1   H2A 7486   1.715   2.113  10.378 -1.5734  0.9962 -0.8945
   68CHL1   H2B 7487   1.776   1.949  10.378  0.4282  2.0863  1.5633
   68CHL1   C20 7488   1.729   1.986   9.385 -0.7582 -0.0813 -0.7091
   68CHL1   H20 7489   1.790   1.893   9.378  2.6008  2.1720 -2.9387
   68CHL1   C21 7490   1.830   2.101   9.405 -0.4655  0.0463 -0.1865
   68CHL1  H21A 7491   1.765   2.191   9.411 -0.4597 -0.0950  2.8392
   68CHL1  H21B 7492   1.901   2.105   9.320  0.3287 -1.6688  0.3788
   68CHL1  H21C 7493   1.894   2.097   9.495  0.5442  1.6240 -0.8190
   68CHL1   C22 7494   1.658   2.006   9.244 -0.3126 -0.0482  0.0877
   68CHL1  H22A 7495   1.627   1.901   9.223  1.5521 -0.7073  0.4949
   68CHL1  H22B 7496   1.577   2.082   9.237  0.0395  0.2967 -0.3016
   68CHL1   C23 7497   1.747   2.037   9.120 -0.4115  0.3800 -0.3349
   68CHL1  H23A 7498   1.749   2.146   9.098  2.8464  0.0236 -2.1760
   68CHL1  H23B 7499   1.849   1.993   9.132  0.7865  3.4010  1.1037
   68CHL1   C24 7500   1.691   1.975   8.988 -0.2567 -0.1233  0.4565
   68CHL1  H24A 7501   1.631   1.883   9.005  0.1507 -0.2229  1.3921
   68CHL1  H24B 7502   1.623   2.049   8.940 -2.3009 -0.8689  2.1192
   68CHL1   C25 7503   1.797   1.930   8.881 -0.9866  0.0605 -0.1743
   68CHL1   H25 7504   1.857   1.850   8.931  0.4087  0.3979 -1.2862
   68CHL1   C26 7505   1.737   1.862   8.761  0.6152  0.0908 -0.2623
   68CHL1  H26A 7506   1.674   1.930   8.699  1.6381 -1.2634 -2.8503
   68CHL1  H26B 7507   1.822   1.842   8.692  1.4284  1.4533  0.3167
   68CHL1  H26C 7508   1.674   1.774   8.787  1.3740 -0.4794 -0.3390
   68CHL1   C27 7509   1.879   2.051   8.829 -0.1246  0.1235  0.2525
   68CHL1  H27A 7510   1.947   2.082   8.910 -0.0366  0.1423  0.1700
   68CHL1  H27B 7511   1.943   2.026   8.741  1.6982  0.7233  1.3964
   68CHL1  H27C 7512   1.817   2.141   8.812  2.9836  2.5953  1.6834
   69CHL1    C3 7513   0.748   0.122   6.793 -0.9578  0.8552 -0.0965
   69CHL1    H3 7514   0.663   0.084   6.853  0.4938 -0.1709  1.3595
   69CHL1    O3 7515   0.757   0.056   6.672  0.7266  0.6231  0.5233
   69CHL1   H3' 7516   0.811   0.113   6.617 -0.4581 -0.0515 -1.3981
   69CHL1    C4 7517   0.731   0.270   6.764  0.3039  0.7394 -0.1303
   69CHL1   H4A 7518   0.816   0.304   6.702  2.4488  0.0997  2.3819
   69CHL1   H4B 7519   0.638   0.270   6.703 -2.3848  1.4815  3.7871
   69CHL1    C5 7520   0.725   0.347   6.898  0.2836  0.0964  0.3972
   69CHL1    C6 7521   0.613   0.414   6.929  0.3273 -0.2901  0.2152
   69CHL1    H6 7522   0.534   0.427   6.853  0.0175 -1.5825  0.2953
   69CHL1    C7 7523   0.589   0.492   7.056  0.1598 -0.4152 -0.1406
   69CHL1   H7A 7524   0.570   0.600   7.038  0.8539  0.2241  2.6856
   69CHL1   H7B 7525   0.501   0.447   7.106 -0.6690 -0.8339 -1.9411
   69CHL1    C8 7526   0.717   0.505   7.143  0.8258  0.0595  0.1531
   69CHL1    H8 7527   0.776   0.590   7.103  0.2472 -0.3701 -1.6183
   69CHL1   C14 7528   0.683   0.535   7.294 -0.6397 -0.3200 -0.3503
   69CHL1   H14 7529   0.632   0.449   7.342  0.9983 -1.8612 -1.3479
   69CHL1   C15 7530   0.600   0.658   7.331  0.3993 -0.7404 -0.1724
   69CHL1  H15A 7531   0.629   0.746   7.270 -5.2436  1.9628  0.6926
   69CHL1  H15B 7532   0.494   0.633   7.309  0.0701  1.9491 -1.8731
   69CHL1   C16 7533   0.614   0.679   7.480 -0.8402 -0.2493  0.4741
   69CHL1  H16A 7534   0.636   0.787   7.490 -0.6711 -0.4158  2.0496
   69CHL1  H16B 7535   0.518   0.649   7.528 -0.9231  2.2599  1.9279
   69CHL1   C17 7536   0.736   0.589   7.526  0.6219 -0.1091  1.2905
   69CHL1   H17 7537   0.708   0.497   7.582  0.6055 -1.5477 -1.0410
   69CHL1   C13 7538   0.802   0.547   7.392 -0.5549 -0.0534  0.5534
   69CHL1   C18 7539   0.898   0.654   7.345 -0.0180 -0.6634  0.2300
   69CHL1  H18A 7540   0.868   0.759   7.359  2.6678 -0.0201  1.6513
   69CHL1  H18B 7541   0.989   0.661   7.408 -0.7142 -0.6670  1.2431
   69CHL1  H18C 7542   0.939   0.629   7.244 -0.7504  0.6664 -0.4018
   69CHL1   C12 7543   0.873   0.414   7.394  0.2450  0.0261  0.1308
   69CHL1  H12A 7544   0.957   0.404   7.466 -0.3592  0.8301  0.9630
   69CHL1  H12B 7545   0.804   0.337   7.434  0.6660 -0.9919 -1.0750
   69CHL1   C11 7546   0.915   0.367   7.251 -0.0778  0.2327  0.1130
   69CHL1  H11A 7547   0.988   0.444   7.220 -0.3520 -0.3321 -1.9760
   69CHL1  H11B 7548   0.972   0.272   7.244  0.3423  0.6019 -1.6371
   69CHL1    C9 7549   0.805   0.379   7.142 -0.0677 -0.7027  0.0893
   69CHL1    H9 7550   0.732   0.299   7.169  2.7136 -2.6110  2.2180
   69CHL1   C10 7551   0.848   0.331   6.996 -0.1512  0.4642 -0.6721
   69CHL1   C19 7552   0.973   0.416   6.953  0.2619  0.6637 -0.5073
   69CHL1  H19A 7553   0.997   0.403   6.845 -0.2848  0.5788 -0.6201
   69CHL1  H19B 7554   0.968   0.522   6.989  0.6712  0.3840  0.3814
   69CHL1  H19C 7555   1.061   0.373   7.005 -0.5065 -0.8569 -0.4508
   69CHL1    C1 7556   0.881   0.175   7.001  0.2045 -0.1542  0.1645
   69CHL1   H1A 7557   0.972   0.147   7.058  0.4220 -1.4459 -0.7958
   69CHL1   H1B 7558   0.794   0.131   7.055 -0.6324  0.9489 -0.2677
   69CHL1    C2 7559   0.882   0.107   6.868 -0.7456 -0.0747  0.4787
   69CHL1   H2A 7560   0.885  -0.001   6.893 -1.5721 -0.1111  0.4288
   69CHL1   H2B 7561   0.972   0.127   6.805 -0.1586 -0.9143  1.0522
   69CHL1   C20 7562   0.819   0.673   7.634  0.4716 -0.5175 -0.0547
   69CHL1   H20 7563   0.861   0.764   7.586  1.7075 -0.1507  1.6758
   69CHL1   C21 7564   0.930   0.586   7.696 -0.0925  0.2113  0.2132
   69CHL1  H21A 7565   1.019   0.573   7.630  1.2859  0.9550  1.8731
   69CHL1  H21B 7566   0.899   0.481   7.719  1.5915 -0.6913 -1.4723
   69CHL1  H21C 7567   0.958   0.634   7.792 -0.6550  2.4276 -0.7134
   69CHL1   C22 7568   0.719   0.728   7.743  0.1354  0.1333  0.3011
   69CHL1  H22A 7569   0.636   0.789   7.703  3.1648  3.3786 -1.2622
   69CHL1  H22B 7570   0.667   0.641   7.789 -1.7054  0.7499 -0.5911
   69CHL1   C23 7571   0.786   0.830   7.834  0.0405  0.1890  0.1788
   69CHL1  H23A 7572   0.795   0.780   7.932  0.1359  0.8357  0.5038
   69CHL1  H23B 7573   0.886   0.862   7.797  0.8403 -0.6713  1.5658
   69CHL1   C24 7574   0.702   0.957   7.848 -0.6464  0.2994 -0.2351
   69CHL1  H24A 7575   0.680   0.988   7.744 -0.5629  0.8410 -0.0920
   69CHL1  H24B 7576   0.612   0.923   7.904  0.1317  0.6425  1.2763
   69CHL1   C25 7577   0.752   1.070   7.943  0.2833  0.9621 -0.1461
   69CHL1   H25 7578   0.675   1.148   7.960  0.3460  1.1142 -0.5516
   69CHL1   C26 7579   0.795   1.014   8.079 -0.2221  0.5639 -0.3101
   69CHL1  H26A 7580   0.700   0.998   8.134 -1.8169 -0.0898 -3.1482
   69CHL1  H26B 7581   0.845   0.915   8.076  2.0551  1.6096  1.6667
   69CHL1  H26C 7582   0.861   1.074   8.144  0.2864  0.0159 -0.3147
   69CHL1   C27 7583   0.864   1.140   7.863  0.0511 -0.8727 -0.5423
   69CHL1  H27A 7584   0.829   1.192   7.772 -1.4210  1.3109  1.2001
   69CHL1  H27B 7585   0.894   1.230   7.921 -0.1996 -1.4811  0.5473
   69CHL1  H27C 7586   0.953   1.079   7.835  2.7356  1.6637  1.9832
   70CHL1    C3 7587   6.606   3.803   7.118 -0.1594 -0.4813 -0.6463
   70CHL1    H3 7588   6.584   3.912   7.108  1.2221 -0.1245  0.0690
   70CHL1    O3 7589   6.579   3.742   6.994  0.2476  0.3279 -0.0521
   70CHL1   H3' 7590   6.621   3.797   6.927  1.7191 -0.0819  0.5037
   70CHL1    C4 7591   6.757   3.783   7.139  0.4203  0.3456  0.7638
   70CHL1   H4A 7592   6.777   3.676   7.114 -4.1818 -0.9140  1.8964
   70CHL1   H4B 7593   6.807   3.846   7.062  1.2923  0.3490  1.3250
   70CHL1    C5 7594   6.806   3.828   7.277 -0.0530  0.3149  0.1463
   70CHL1    C6 7595   6.906   3.921   7.285 -0.7401  0.0180 -0.0955
   70CHL1    H6 7596   6.935   3.971   7.191  0.8398 -1.7952 -0.6024
   70CHL1    C7 7597   6.976   3.953   7.412 -0.0731  0.0241  0.3197
   70CHL1   H7A 7598   7.086   3.962   7.399 -0.1000  0.1932  0.2112
   70CHL1   H7B 7599   6.954   4.053   7.454 -0.5156 -0.3799  1.0713
   70CHL1    C8 7600   6.927   3.865   7.531  0.2036  0.6882 -0.2157
   70CHL1    H8 7601   6.974   3.765   7.523  0.2106  0.6976 -0.2942
   70CHL1   C14 7602   6.959   3.928   7.668 -0.2708  0.6781 -0.3255
   70CHL1   H14 7603   6.907   4.026   7.669  1.2194  1.4782 -0.3730
   70CHL1   C15 7604   7.110   3.963   7.698 -0.8366  0.2907  0.1124
   70CHL1  H15A 7605   7.182   3.886   7.664  0.4037  1.7241 -0.5670
   70CHL1  H15B 7606   7.128   4.065   7.657 -3.4644  0.2873 -1.1334
   70CHL1   C16 7607   7.119   3.983   7.855 -0.5474  0.3423  0.7733
   70CHL1  H16A 7608   7.195   3.918   7.904 -0.4380 -0.0885  0.0411
   70CHL1  H16B 7609   7.137   4.087   7.888 -2.2683  0.9377 -0.0672
   70CHL1   C17 7610   6.976   3.951   7.905 -0.5814 -0.4058  0.2457
   70CHL1   H17 7611   6.912   4.041   7.891  2.0014  1.7597  1.8626
   70CHL1   C13 7612   6.919   3.856   7.793  0.2170 -0.4502  0.2833
   70CHL1   C18 7613   6.983   3.713   7.807 -1.0913  0.0020 -0.8417
   70CHL1  H18A 7614   6.985   3.660   7.709 -0.3544 -2.4367  0.4591
   70CHL1  H18B 7615   7.089   3.722   7.838 -2.0214 -0.5664  2.6295
   70CHL1  H18C 7616   6.932   3.640   7.873  0.2123  1.3872  1.7748
   70CHL1   C12 7617   6.766   3.836   7.788  0.2574 -0.5422 -0.6643
   70CHL1  H12A 7618   6.729   3.775   7.873  0.4649 -0.6409 -0.6425
   70CHL1  H12B 7619   6.711   3.931   7.796 -0.6964 -1.3091  2.3042
   70CHL1   C11 7620   6.730   3.767   7.659  0.1509  0.5241 -0.1973
   70CHL1  H11A 7621   6.770   3.664   7.664 -3.0820 -0.7814 -0.1124
   70CHL1  H11B 7622   6.619   3.759   7.654  0.2607 -1.4234  0.1338
   70CHL1    C9 7623   6.771   3.838   7.529 -0.0917 -0.1044 -0.1925
   70CHL1    H9 7624   6.720   3.936   7.523 -1.0522 -0.7292 -3.1429
   70CHL1   C10 7625   6.731   3.767   7.391  0.6607  0.0768  0.0575
   70CHL1   C19 7626   6.749   3.619   7.404  0.4440  0.0227  0.2869
   70CHL1  H19A 7627   6.680   3.571   7.476  0.2927  0.3977  0.3928
   70CHL1  H19B 7628   6.729   3.564   7.309 -0.3640 -2.6405  1.9480
   70CHL1  H19C 7629   6.851   3.595   7.438  0.0935 -3.9466 -1.2320
   70CHL1    C1 7630   6.581   3.801   7.366  0.1497  0.2106 -0.5136
   70CHL1   H1A 7631   6.521   3.751   7.445  0.1874  0.8783 -0.0558
   70CHL1   H1B 7632   6.565   3.909   7.388  0.5478  0.1978 -0.1286
   70CHL1    C2 7633   6.524   3.746   7.235 -0.0429 -0.2057 -0.3720
   70CHL1   H2A 7634   6.416   3.769   7.224 -0.0686 -0.6666 -1.0594
   70CHL1   H2B 7635   6.535   3.636   7.242 -2.1599 -0.4236 -0.3155
   70CHL1   C20 7636   6.959   3.911   8.057 -0.4605 -0.0271 -0.0855
   70CHL1   H20 7637   6.852   3.886   8.074 -0.2383 -1.3531 -0.5849
   70CHL1   C21 7638   6.987   4.041   8.136  0.3850 -0.0309 -0.3073
   70CHL1  H21A 7639   7.094   4.058   8.159  0.2598 -0.2086  0.4200
   70CHL1  H21B 7640   6.946   4.024   8.238  1.8148 -3.0980 -0.1955
   70CHL1  H21C 7641   6.939   4.128   8.085  0.8771  0.4865  0.0985
   70CHL1   C22 7642   7.065   3.812   8.111 -0.4371  0.1036 -0.5592
   70CHL1  H22A 7643   7.044   3.718   8.055 -0.6917 -0.8123  1.0188
   70CHL1  H22B 7644   7.166   3.849   8.082 -0.0078 -0.3327  0.3477
   70CHL1   C23 7645   7.058   3.767   8.259  0.6609 -0.7135 -0.3244
   70CHL1  H23A 7646   7.102   3.850   8.319 -1.0284 -2.1896  3.0266
   70CHL1  H23B 7647   6.953   3.745   8.288  0.4003  0.4310 -0.3482
   70CHL1   C24 7648   7.147   3.647   8.287 -0.2921  0.1185  0.2457
   70CHL1  H24A 7649   7.109   3.553   8.241 -0.7313  0.0630  0.7157
   70CHL1  H24B 7650   7.250   3.678   8.262 -1.1155  1.0354 -2.1502
   70CHL1   C25 7651   7.136   3.608   8.437 -0.1472  0.3893 -0.3429
   70CHL1   H25 7652   7.160   3.694   8.504  1.5268 -1.0843  1.0032
   70CHL1   C26 7653   6.995   3.554   8.479 -0.1628  0.3556  0.4415
   70CHL1  H26A 7654   6.974   3.468   8.412 -0.6361  1.6009 -1.0261
   70CHL1  H26B 7655   6.985   3.510   8.581 -0.5899 -1.1082 -0.2257
   70CHL1  H26C 7656   6.908   3.623   8.467  1.1121  1.6736 -1.3842
   70CHL1   C27 7657   7.238   3.495   8.465 -0.0181  0.2343  0.7033
   70CHL1  H27A 7658   7.217   3.419   8.387 -0.6769  2.8462 -1.7786
   70CHL1  H27B 7659   7.340   3.535   8.447 -0.0935  0.0899 -0.0945
   70CHL1  H27C 7660   7.227   3.454   8.567 -0.3690  1.5174  1.1914
   71CHL1    C3 7661   5.871   6.319   6.742 -0.6773 -0.0053 -0.1726
   71CHL1    H3 7662   5.769   6.357   6.765 -1.5983 -1.9124 -1.0221
   71CHL1    O3 7663   5.902   6.340   6.607  0.5285 -0.1243 -0.2489
   71CHL1   H3' 7664   5.994   6.330   6.581  0.1995 -0.3068 -1.3590
   71CHL1    C4 7665   5.972   6.397   6.828  0.2136  0.1382  0.4376
   71CHL1   H4A 7666   6.075   6.366   6.801  1.1451  0.8174  3.1186
   71CHL1   H4B 7667   5.960   6.504   6.798 -0.9494  0.1767  1.0316
   71CHL1    C5 7668   5.945   6.381   6.974 -0.7048 -0.1505 -0.3271
   71CHL1    C6 7669   5.926   6.480   7.059 -0.8205 -0.6330  0.1933
   71CHL1    H6 7670   5.927   6.583   7.022  1.4097 -0.4169  0.7565
   71CHL1    C7 7671   5.906   6.468   7.207 -0.1204 -0.4306  1.2739
   71CHL1   H7A 7672   5.970   6.547   7.251  0.2709  1.0051 -1.7627
   71CHL1   H7B 7673   5.799   6.472   7.237 -0.4730 -3.0932  0.5055
   71CHL1    C8 7674   5.949   6.326   7.249  0.6593  1.1433  0.1583
   71CHL1    H8 7675   6.060   6.317   7.242  0.8156  2.3360  0.9490
   71CHL1   C14 7676   5.909   6.312   7.400 -0.2531  0.1815  0.2709
   71CHL1   H14 7677   5.798   6.313   7.404 -0.3904 -2.1254 -1.6628
   71CHL1   C15 7678   5.955   6.430   7.488 -0.4538 -0.3952  0.1737
   71CHL1  H15A 7679   6.064   6.451   7.481 -0.3416 -2.1214 -4.9921
   71CHL1  H15B 7680   5.906   6.529   7.474  0.8550  0.2488  0.0510
   71CHL1   C16 7681   5.933   6.364   7.626 -0.1322  0.1196 -0.0838
   71CHL1  H16A 7682   6.025   6.378   7.687 -0.2330  2.0736 -0.3410
   71CHL1  H16B 7683   5.846   6.406   7.681  0.0437  3.3606 -2.1504
   71CHL1   C17 7684   5.892   6.210   7.604 -0.2109 -0.9048 -0.0041
   71CHL1   H17 7685   5.781   6.208   7.598 -0.3736  0.6152  2.1765
   71CHL1   C13 7686   5.943   6.182   7.464 -0.4627  0.8070 -0.1413
   71CHL1   C18 7687   6.101   6.166   7.484  0.2071 -0.0303  0.6239
   71CHL1  H18A 7688   6.140   6.223   7.571  1.5844 -1.3127  0.8601
   71CHL1  H18B 7689   6.128   6.058   7.483  0.4146  0.0234  0.3940
   71CHL1  H18C 7690   6.149   6.210   7.394 -0.5515  0.9495  0.6863
   71CHL1   C12 7691   5.867   6.076   7.372  0.9640  0.6429 -0.8821
   71CHL1  H12A 7692   5.879   5.974   7.415  2.4973  0.2756 -2.1216
   71CHL1  H12B 7693   5.762   6.110   7.381 -0.1911 -2.7336 -0.8757
   71CHL1   C11 7694   5.913   6.079   7.223 -0.1644 -0.0023 -0.0240
   71CHL1  H11A 7695   6.023   6.060   7.226 -0.1079  0.3204 -0.0465
   71CHL1  H11B 7696   5.849   6.003   7.172 -0.2994 -2.1141  3.1979
   71CHL1    C9 7697   5.887   6.218   7.161 -0.3232  0.1396  0.5441
   71CHL1    H9 7698   5.777   6.229   7.159 -0.2772  0.5861  0.5076
   71CHL1   C10 7699   5.936   6.232   7.016 -0.5550  0.3063  0.3440
   71CHL1   C19 7700   6.085   6.181   7.004 -0.2509  0.2899  0.5533
   71CHL1  H19A 7701   6.159   6.242   7.060  0.7454  0.0106 -0.4463
   71CHL1  H19B 7702   6.087   6.075   7.037 -2.4085  0.7019  2.1796
   71CHL1  H19C 7703   6.111   6.180   6.896 -0.9940  0.2763  0.3729
   71CHL1    C1 7704   5.846   6.146   6.917 -0.3195 -0.4942  0.6303
   71CHL1   H1A 7705   5.852   6.037   6.936  0.3605 -0.7670 -1.0048
   71CHL1   H1B 7706   5.740   6.177   6.933 -0.2914  0.8706 -1.5560
   71CHL1    C2 7707   5.882   6.169   6.767  0.6305 -0.1030 -1.0449
   71CHL1   H2A 7708   5.815   6.105   6.706 -0.9510  1.4819 -1.0364
   71CHL1   H2B 7709   5.981   6.126   6.743  0.9576  1.7190 -3.1054
   71CHL1   C20 7710   5.939   6.126   7.722  0.0067  0.2946  0.9250
   71CHL1   H20 7711   6.049   6.140   7.723  0.2402 -0.8188 -2.0774
   71CHL1   C21 7712   5.909   5.978   7.695  0.5235  0.8233 -0.4427
   71CHL1  H21A 7713   5.799   5.968   7.678  0.2363  0.1167  1.7258
   71CHL1  H21B 7714   5.948   5.914   7.777 -1.4471 -0.8747 -0.7818
   71CHL1  H21C 7715   5.962   5.944   7.604  0.0486 -0.6854 -0.1595
   71CHL1   C22 7716   5.874   6.161   7.858 -0.0776  0.4382 -0.1138
   71CHL1  H22A 7717   5.891   6.270   7.864 -0.3947  0.4892 -0.1237
   71CHL1  H22B 7718   5.766   6.135   7.871  0.3373 -1.2871  0.0769
   71CHL1   C23 7719   5.958   6.106   7.971  0.2830  0.1267  0.3413
   71CHL1  H23A 7720   5.973   5.997   7.955 -0.3566 -0.0368  0.8288
   71CHL1  H23B 7721   6.054   6.161   7.964  0.1442  0.4822  1.2179
   71CHL1   C24 7722   5.889   6.139   8.108  0.1612  0.1451 -0.3356
   71CHL1  H24A 7723   5.887   6.250   8.108 -0.9062  0.1353 -0.6501
   71CHL1  H24B 7724   5.783   6.105   8.108  0.6115 -1.8442  4.7848
   71CHL1   C25 7725   5.955   6.074   8.227 -0.4185  0.1794 -0.2238
   71CHL1   H25 7726   5.962   5.964   8.223  0.3364  0.1432  1.7200
   71CHL1   C26 7727   6.098   6.130   8.246  0.6901 -0.2546 -0.2421
   71CHL1  H26A 7728   6.092   6.241   8.250 -3.2025 -0.3623 -1.1746
   71CHL1  H26B 7729   6.158   6.090   8.330  1.7342  0.6856 -0.5399
   71CHL1  H26C 7730   6.155   6.118   8.151  1.8745  0.6491  0.3456
   71CHL1   C27 7731   5.877   6.111   8.355  0.2838  0.1483  0.4955
   71CHL1  H27A 7732   5.878   6.222   8.365 -1.0952  0.5380 -2.8392
   71CHL1  H27B 7733   5.774   6.072   8.344  1.0115 -2.0025  1.0092
   71CHL1  H27C 7734   5.931   6.068   8.442  2.0705  0.4295 -0.4302
   72CHL1    C3 7735   6.560   4.868   7.078 -0.4268  0.4055 -0.2735
   72CHL1    H3 7736   6.530   4.973   7.097  1.5701  0.8095  0.7534
   72CHL1    O3 7737   6.500   4.832   6.948  0.0396  0.1706 -0.1705
   72CHL1   H3' 7738   6.534   4.742   6.939 -0.9745 -0.4211  1.5013
   72CHL1    C4 7739   6.705   4.873   7.049 -0.7600  0.2833  0.2138
   72CHL1   H4A 7740   6.742   4.773   7.016 -1.1968  0.9199 -2.3168
   72CHL1   H4B 7741   6.718   4.938   6.960 -2.0682 -2.0180 -1.7164
   72CHL1    C5 7742   6.776   4.921   7.173  0.7074  1.1186 -0.4658
   72CHL1    C6 7743   6.851   5.035   7.181  0.2221  0.3664 -0.4413
   72CHL1    H6 7744   6.854   5.093   7.088 -3.5874  1.7765  0.2119
   72CHL1    C7 7745   6.916   5.081   7.303  0.2611 -0.4654 -0.6002
   72CHL1   H7A 7746   7.017   5.122   7.281  0.0351  0.2852 -0.2562
   72CHL1   H7B 7747   6.852   5.158   7.351 -0.1742 -0.4537 -1.1991
   72CHL1    C8 7748   6.944   4.962   7.402  0.8400  0.3783  0.1112
   72CHL1    H8 7749   7.032   4.902   7.372  0.8549 -0.6685  2.2021
   72CHL1   C14 7750   6.980   5.023   7.542 -0.0538 -0.0817 -0.2494
   72CHL1   H14 7751   6.898   5.084   7.584  1.0702 -1.4564  4.1279
   72CHL1   C15 7752   7.100   5.116   7.541 -0.3548 -0.3234  0.0309
   72CHL1  H15A 7753   7.174   5.088   7.463  0.4326  0.9307  0.3231
   72CHL1  H15B 7754   7.058   5.210   7.499  0.6767  0.2814  0.3327
   72CHL1   C16 7755   7.147   5.113   7.686 -0.0994  0.1725  0.2611
   72CHL1  H16A 7756   7.254   5.086   7.677  0.2901  2.1657 -1.6115
   72CHL1  H16B 7757   7.128   5.212   7.733 -0.8563 -0.3672  1.1231
   72CHL1   C17 7758   7.060   5.012   7.761  0.3509 -0.2311 -0.2915
   72CHL1   H17 7759   6.970   5.063   7.801  0.0522 -0.6248 -0.4679
   72CHL1   C13 7760   7.004   4.919   7.651  0.2299 -0.0642  0.2997
   72CHL1   C18 7761   7.126   4.821   7.609  0.0040 -0.7180  0.8177
   72CHL1  H18A 7762   7.222   4.871   7.586  0.2093 -1.3031  0.3651
   72CHL1  H18B 7763   7.134   4.737   7.682 -0.5397 -0.8477  0.7313
   72CHL1  H18C 7764   7.093   4.768   7.517  1.5133  1.3255 -0.9470
   72CHL1   C12 7765   6.879   4.848   7.685  1.0831  0.3034 -0.7562
   72CHL1  H12A 7766   6.884   4.768   7.762 -0.0193  0.5756 -0.3860
   72CHL1  H12B 7767   6.810   4.927   7.723  1.5321  0.7633 -0.8983
   72CHL1   C11 7768   6.824   4.788   7.556 -0.5573  0.2687 -0.1344
   72CHL1  H11A 7769   6.885   4.699   7.529 -0.4857  0.2589  0.0604
   72CHL1  H11B 7770   6.719   4.755   7.568  0.5218 -3.0480  0.9148
   72CHL1    C9 7771   6.819   4.882   7.431 -0.1990  0.7151  0.3833
   72CHL1    H9 7772   6.745   4.958   7.464 -2.9165 -1.7942  0.2323
   72CHL1   C10 7773   6.750   4.825   7.299  0.3672 -0.1697  0.2123
   72CHL1   C19 7774   6.812   4.684   7.279  0.1305 -0.1770  0.4144
   72CHL1  H19A 7775   6.780   4.615   7.361  2.8980 -3.0591 -0.8266
   72CHL1  H19B 7776   6.780   4.636   7.184  4.7772 -2.3686 -0.1980
   72CHL1  H19C 7777   6.923   4.688   7.277  0.0289  2.8952 -0.3331
   72CHL1    C1 7778   6.597   4.802   7.318 -0.2041 -0.3815  0.1382
   72CHL1   H1A 7779   6.588   4.726   7.398  1.1017 -0.8402 -0.1349
   72CHL1   H1B 7780   6.555   4.900   7.348  0.2236  0.2381 -1.2408
   72CHL1    C2 7781   6.520   4.767   7.189  0.3477  0.5291  0.0171
   72CHL1   H2A 7782   6.410   4.771   7.192  0.3262  0.0740 -0.0772
   72CHL1   H2B 7783   6.549   4.662   7.168  4.5157  1.1664  2.0312
   72CHL1   C20 7784   7.123   4.952   7.896 -0.1251 -1.0020  0.4086
   72CHL1   H20 7785   7.218   4.896   7.886  0.5310  0.3526 -1.2180
   72CHL1   C21 7786   7.018   4.872   7.981  0.7467  0.2246 -0.1840
   72CHL1  H21A 7787   6.990   4.781   7.925  0.9954  2.2301 -3.7303
   72CHL1  H21B 7788   6.930   4.939   7.994  1.5963  1.2810  0.2479
   72CHL1  H21C 7789   7.070   4.830   8.070 -0.7665 -0.1643  0.5357
   72CHL1   C22 7790   7.172   5.069   7.990  0.8482  0.5026 -0.1389
   72CHL1  H22A 7791   7.228   5.132   7.918 -0.1594  0.9278 -0.5522
   72CHL1  H22B 7792   7.092   5.136   8.027  0.8121  0.2749  0.2032
   72CHL1   C23 7793   7.276   5.028   8.100 -0.3674  0.0840  0.4931
   72CHL1  H23A 7794   7.216   4.983   8.182  0.9038 -0.0784  1.3426
   72CHL1  H23B 7795   7.346   4.955   8.054 -2.1176 -0.6467 -1.0860
   72CHL1   C24 7796   7.355   5.150   8.153 -0.6116 -0.0581 -0.2746
   72CHL1  H24A 7797   7.417   5.186   8.068 -0.3918  0.3965  0.0715
   72CHL1  H24B 7798   7.288   5.227   8.196  0.0916  1.4865 -1.8818
   72CHL1   C25 7799   7.460   5.107   8.263  0.2061 -0.4502  0.1111
   72CHL1   H25 7800   7.513   5.018   8.222  0.8676  0.0672 -0.1664
   72CHL1   C26 7801   7.567   5.213   8.290  0.5253  0.1182 -0.0194
   72CHL1  H26A 7802   7.653   5.171   8.346  0.3845  1.1508  1.0190
   72CHL1  H26B 7803   7.605   5.248   8.192 -0.0607  2.0262  0.4004
   72CHL1  H26C 7804   7.520   5.297   8.346  2.9441  3.5558 -2.8860
   72CHL1   C27 7805   7.394   5.072   8.398 -0.6006  0.4187  0.3788
   72CHL1  H27A 7806   7.335   4.979   8.382  2.8577 -1.2894 -3.6831
   72CHL1  H27B 7807   7.472   5.061   8.477  0.1555  0.3566 -0.3672
   72CHL1  H27C 7808   7.316   5.146   8.425 -0.8836  0.6146 -0.9367
   73CHL1    C3 7809   0.237   0.505   6.881  0.1414 -0.1789 -0.2085
   73CHL1    H3 7810   0.303   0.423   6.918 -0.3451  0.1086  1.3104
   73CHL1    O3 7811   0.288   0.553   6.756  0.0632  0.1404 -0.2285
   73CHL1   H3' 7812   0.233   0.631   6.746  0.4873  0.2557 -1.7960
   73CHL1    C4 7813   0.097   0.455   6.860  0.3116  0.3014  0.0979
   73CHL1   H4A 7814   0.034   0.527   6.804  1.9061  0.3587 -1.6627
   73CHL1   H4B 7815   0.105   0.373   6.785 -3.6354  0.7293 -0.9194
   73CHL1    C5 7816   0.041   0.412   6.992  0.2079 -0.4607  0.4782
   73CHL1    C6 7817  -0.013   0.289   7.005  0.1995 -0.2890  0.2916
   73CHL1    H6 7818  -0.025   0.235   6.910 -0.4895  0.5067 -0.0825
   73CHL1    C7 7819  -0.085   0.231   7.125 -0.1073  0.4563  0.3070
   73CHL1   H7A 7820  -0.181   0.187   7.091  0.7465 -0.2429 -1.2261
   73CHL1   H7B 7821  -0.017   0.156   7.171 -0.5110 -0.5085 -0.6462
   73CHL1    C8 7822  -0.120   0.340   7.222 -0.3627 -0.2303 -0.4532
   73CHL1    H8 7823  -0.211   0.397   7.191 -0.3887  0.9358  1.7105
   73CHL1   C14 7824  -0.150   0.275   7.353 -0.1410 -0.0568 -1.0904
   73CHL1   H14 7825  -0.070   0.202   7.375 -0.9461 -1.7940 -3.6303
   73CHL1   C15 7826  -0.284   0.190   7.363  1.0870 -0.9350 -0.1783
   73CHL1  H15A 7827  -0.379   0.230   7.320  1.6285  1.1375  0.5052
   73CHL1  H15B 7828  -0.270   0.092   7.311  0.3533 -0.1910 -1.8256
   73CHL1   C16 7829  -0.317   0.173   7.507 -0.1067  0.0254  1.3528
   73CHL1  H16A 7830  -0.417   0.218   7.525 -0.5488 -0.0701 -0.7383
   73CHL1  H16B 7831  -0.308   0.068   7.543  1.9763 -1.1425 -2.2787
   73CHL1   C17 7832  -0.216   0.262   7.583  0.3971  0.0308 -0.5675
   73CHL1   H17 7833  -0.130   0.196   7.610  0.4640  0.8369  1.2489
   73CHL1   C13 7834  -0.172   0.362   7.473  0.3377  0.0189 -0.7143
   73CHL1   C18 7835  -0.284   0.472   7.454 -0.0344  0.1706 -0.4574
   73CHL1  H18A 7836  -0.272   0.543   7.539  0.8407 -2.3294  1.5536
   73CHL1  H18B 7837  -0.284   0.518   7.353 -1.4483 -0.9252 -0.9677
   73CHL1  H18C 7838  -0.385   0.427   7.464  1.3730 -2.7347  1.1563
   73CHL1   C12 7839  -0.045   0.444   7.492 -0.4936  0.1734 -0.5245
   73CHL1  H12A 7840  -0.037   0.503   7.586  0.7318 -1.3426  0.3490
   73CHL1  H12B 7841   0.026   0.360   7.511 -2.4847 -1.4644 -0.1737
   73CHL1   C11 7842  -0.010   0.528   7.364 -0.3003  0.2904 -0.2613
   73CHL1  H11A 7843  -0.088   0.607   7.351 -0.8913  0.1596  2.2804
   73CHL1  H11B 7844   0.091   0.573   7.376 -1.9765  4.5633 -1.1890
   73CHL1    C9 7845   0.002   0.431   7.242 -1.0041  0.9225  0.2758
   73CHL1    H9 7846   0.080   0.356   7.267 -1.4157 -0.2050 -1.7478
   73CHL1   C10 7847   0.051   0.505   7.113  0.2453 -0.1663  0.3958
   73CHL1   C19 7848  -0.039   0.624   7.076 -0.4300 -0.2380 -0.3683
   73CHL1  H19A 7849  -0.017   0.682   6.984 -0.8502  2.6484  1.2761
   73CHL1  H19B 7850  -0.142   0.586   7.056  0.0619 -1.6507 -0.2431
   73CHL1  H19C 7851  -0.040   0.702   7.156 -0.1661  0.1923 -0.7818
   73CHL1    C1 7852   0.196   0.558   7.118  0.7119  0.1155 -0.3543
   73CHL1   H1A 7853   0.204   0.637   7.196 -1.2426  0.5874 -0.5888
   73CHL1   H1B 7854   0.267   0.480   7.153  0.4520 -0.1971 -0.5318
   73CHL1    C2 7855   0.252   0.610   6.986  0.3150 -0.5102  0.8275
   73CHL1   H2A 7856   0.358   0.642   6.998  1.2454 -2.6040 -1.3457
   73CHL1   H2B 7857   0.187   0.692   6.948  1.9295  0.7378  0.7172
   73CHL1   C20 7858  -0.259   0.310   7.725  0.0618  0.5048  0.0966
   73CHL1   H20 7859  -0.346   0.378   7.708  0.5975  1.1848  0.0878
   73CHL1   C21 7860  -0.161   0.402   7.803 -0.1257  0.1002 -0.1370
   73CHL1  H21A 7861  -0.179   0.406   7.912 -3.6960  2.3887 -0.7500
   73CHL1  H21B 7862  -0.173   0.509   7.775 -2.4799 -0.1399 -0.0700
   73CHL1  H21C 7863  -0.057   0.365   7.784  0.4664  0.1018  2.9489
   73CHL1   C22 7864  -0.316   0.188   7.810  0.3729 -0.0490 -0.0601
   73CHL1  H22A 7865  -0.370   0.111   7.751 -0.6943  0.9486 -0.3878
   73CHL1  H22B 7866  -0.231   0.122   7.838  0.2004 -0.9457 -1.5981
   73CHL1   C23 7867  -0.395   0.227   7.938  0.7382 -0.3697  0.2313
   73CHL1  H23A 7868  -0.322   0.273   8.008  0.2548 -0.0328  0.5166
   73CHL1  H23B 7869  -0.463   0.314   7.926  2.8487  1.1825 -0.9815
   73CHL1   C24 7870  -0.459   0.113   8.013  0.4593  0.1468  0.3693
   73CHL1  H24A 7871  -0.539   0.061   7.956 -1.3130  0.5667  2.4167
   73CHL1  H24B 7872  -0.374   0.047   8.040  1.2167 -0.2541 -2.8401
   73CHL1   C25 7873  -0.521   0.141   8.152  0.0254 -0.2497 -0.5283
   73CHL1   H25 7874  -0.617   0.197   8.158 -0.1183 -0.5778  0.3183
   73CHL1   C26 7875  -0.554   0.005   8.230 -0.0411 -0.7561 -0.2897
   73CHL1  H26A 7876  -0.462  -0.050   8.258  0.3692 -0.1684 -0.5021
   73CHL1  H26B 7877  -0.605   0.016   8.329 -1.0729  0.5572 -0.9522
   73CHL1  H26C 7878  -0.609  -0.055   8.154  1.5717 -0.8814 -1.3804
   73CHL1   C27 7879  -0.416   0.220   8.237  0.5256 -0.2221  0.3629
   73CHL1  H27A 7880  -0.390   0.318   8.193  0.3816 -0.5688 -0.4964
   73CHL1  H27B 7881  -0.471   0.244   8.331 -0.7439 -0.0641 -0.4087
   73CHL1  H27C 7882  -0.320   0.165   8.246  1.0481  0.1784 -2.3770
   74CHL1    C3 7883   5.375   6.176   6.892 -0.0868 -0.7760 -0.5232
   74CHL1    H3 7884   5.424   6.267   6.934 -1.5423 -1.3691  2.6019
   74CHL1    O3 7885   5.404   6.170   6.754 -0.3062 -0.5712 -0.1376
   74CHL1   H3' 7886   5.414   6.075   6.742  1.1444 -0.6920  1.7805
   74CHL1    C4 7887   5.429   6.051   6.966  0.0291 -0.1074 -1.1772
   74CHL1   H4A 7888   5.373   5.971   6.913 -0.6980  0.8254 -1.8326
   74CHL1   H4B 7889   5.535   6.035   6.935 -0.9772 -1.2438 -4.1935
   74CHL1    C5 7890   5.403   6.056   7.110 -0.7657 -0.3407 -0.3376
   74CHL1    C6 7891   5.503   6.064   7.205 -0.6180 -0.2945 -0.3917
   74CHL1    H6 7892   5.607   6.068   7.167  0.0949  2.2545  1.6832
   74CHL1    C7 7893   5.476   6.070   7.350  0.4249 -1.1439  0.6682
   74CHL1   H7A 7894   5.556   6.010   7.399  1.1513 -1.1555 -0.5080
   74CHL1   H7B 7895   5.487   6.174   7.390  0.3983 -1.4440  1.4594
   74CHL1    C8 7896   5.330   6.017   7.385  0.1197  0.7314  0.2846
   74CHL1    H8 7897   5.324   5.909   7.360  0.8728  1.0323 -1.2693
   74CHL1   C14 7898   5.295   6.047   7.527  0.4805  0.0069 -0.7185
   74CHL1   H14 7899   5.300   6.157   7.544 -0.7681  0.3631 -2.6006
   74CHL1   C15 7900   5.397   6.007   7.634  0.0699  0.5733  0.4518
   74CHL1  H15A 7901   5.431   5.903   7.617  2.2013  1.3920 -0.4261
   74CHL1  H15B 7902   5.484   6.076   7.634 -0.6611  1.5229  1.5898
   74CHL1   C16 7903   5.314   6.016   7.764 -0.5666 -0.4485  0.4783
   74CHL1  H16A 7904   5.301   5.914   7.806  0.5285 -0.4292  0.8504
   74CHL1  H16B 7905   5.365   6.088   7.832  2.2136 -1.2032 -0.7717
   74CHL1   C17 7906   5.168   6.055   7.727  0.1675  0.2181  0.0222
   74CHL1   H17 7907   5.166   6.166   7.727 -1.9836  0.2281  2.4378
   74CHL1   C13 7908   5.153   6.008   7.579 -0.1646 -0.3240  0.9314
   74CHL1   C18 7909   5.142   5.855   7.579 -0.3080 -0.1206 -0.5035
   74CHL1  H18A 7910   5.193   5.807   7.665 -3.8071  1.0081  2.3717
   74CHL1  H18B 7911   5.037   5.820   7.589  0.0459 -1.4094 -1.1848
   74CHL1  H18C 7912   5.175   5.814   7.481  0.5306  1.6956 -1.0185
   74CHL1   C12 7913   5.047   6.079   7.491  0.0035 -0.9167  0.5230
   74CHL1  H12A 7914   4.944   6.042   7.508  0.5813 -2.2024  1.3400
   74CHL1  H12B 7915   5.049   6.187   7.515  3.0204 -0.3428 -1.9470
   74CHL1   C11 7916   5.075   6.057   7.339  0.1586 -0.1881  0.2300
   74CHL1  H11A 7917   5.060   5.947   7.329 -2.6554  0.1851 -0.2382
   74CHL1  H11B 7918   5.010   6.124   7.278 -0.0188 -3.2326 -3.1082
   74CHL1    C9 7919   5.224   6.086   7.295 -0.1061 -0.3111 -0.4654
   74CHL1    H9 7920   5.233   6.194   7.323 -0.1830 -0.3532 -0.2771
   74CHL1   C10 7921   5.252   6.065   7.140 -0.1716  0.5067  0.1360
   74CHL1   C19 7922   5.178   5.933   7.113  0.1524  0.0280 -0.4194
   74CHL1  H19A 7923   5.208   5.878   7.021  1.6381 -1.0198  0.6697
   74CHL1  H19B 7924   5.194   5.861   7.196 -0.7113  0.3146  0.0052
   74CHL1  H19C 7925   5.068   5.950   7.106  0.6977  3.3845 -1.7701
   74CHL1    C1 7926   5.190   6.186   7.068 -0.4289 -0.0344  0.9599
   74CHL1   H1A 7927   5.079   6.184   7.077 -0.4443 -1.4651  0.4570
   74CHL1   H1B 7928   5.215   6.287   7.108  2.3219 -0.3916  0.2532
   74CHL1    C2 7929   5.222   6.195   6.915 -0.3110 -0.0678 -0.0894
   74CHL1   H2A 7930   5.183   6.293   6.878  0.0648  0.4014  0.7493
   74CHL1   H2B 7931   5.175   6.107   6.866 -0.6014 -0.6912  1.2838
   74CHL1   C20 7932   5.073   6.011   7.840  0.5944  0.1705 -0.4133
   74CHL1   H20 7933   5.077   5.901   7.854  0.8454  0.3837  1.2515
   74CHL1   C21 7934   4.928   6.047   7.797 -0.2664  0.1077  0.3046
   74CHL1  H21A 7935   4.885   5.993   7.710 -2.2894  3.0873 -0.6201
   74CHL1  H21B 7936   4.929   6.156   7.780 -0.2210  0.6280  3.3100
   74CHL1  H21C 7937   4.863   6.029   7.886  1.6922 -1.4888  1.4694
   74CHL1   C22 7938   5.113   6.075   7.981 -0.7212  0.2787 -0.0916
   74CHL1  H22A 7939   5.212   6.028   7.999 -0.1071  1.3735 -0.5631
   74CHL1  H22B 7940   5.139   6.183   7.974 -1.5830  0.4851 -0.2121
   74CHL1   C23 7941   5.025   6.026   8.095 -0.1542 -0.0065 -0.1894
   74CHL1  H23A 7942   4.920   6.057   8.076 -0.6034  0.6524  3.1256
   74CHL1  H23B 7943   5.013   5.915   8.100 -0.6981 -0.1509 -3.4785
   74CHL1   C24 7944   5.063   6.087   8.233  0.5383  0.4602 -0.0307
   74CHL1  H24A 7945   5.169   6.065   8.260  0.5567 -1.4970 -1.6048
   74CHL1  H24B 7946   5.063   6.197   8.214 -0.2329  0.3278 -0.8478
   74CHL1   C25 7947   4.966   6.062   8.346 -0.0281 -0.0129  0.4525
   74CHL1   H25 7948   4.867   6.107   8.323  0.5250  0.7531 -0.4667
   74CHL1   C26 7949   4.933   5.914   8.363 -0.4816 -0.3319 -0.5904
   74CHL1  H26A 7950   4.871   5.882   8.277  1.5273 -1.9611 -1.4658
   74CHL1  H26B 7951   5.024   5.851   8.357  0.1042  0.4192  0.2783
   74CHL1  H26C 7952   4.880   5.895   8.459 -0.7745 -0.7508 -0.8346
   74CHL1   C27 7953   5.015   6.121   8.478  0.0560  0.6769 -0.5678
   74CHL1  H27A 7954   5.058   6.221   8.459 -2.0351  2.0348  1.6418
   74CHL1  H27B 7955   4.921   6.131   8.537 -1.1981 -2.5214 -1.8846
   74CHL1  H27C 7956   5.099   6.057   8.513  0.4575  1.0872 -0.7789
   75CHL1    C3 7957   2.292   0.833   6.721  0.2488  0.1557  0.3511
   75CHL1    H3 7958   2.395   0.874   6.735  0.0580  0.7338  0.0978
   75CHL1    O3 7959   2.267   0.792   6.590 -0.5718  0.1901 -0.2111
   75CHL1   H3' 7960   2.190   0.733   6.588  0.3941 -1.1435  0.8273
   75CHL1    C4 7961   2.269   0.713   6.807 -0.1318  0.1083  1.1899
   75CHL1   H4A 7962   2.166   0.671   6.796  0.3574 -0.3325 -2.0815
   75CHL1   H4B 7963   2.331   0.627   6.774 -1.4892 -1.4074  2.4694
   75CHL1    C5 7964   2.289   0.747   6.947  0.1163 -0.5290 -0.1612
   75CHL1    C6 7965   2.380   0.694   7.032 -0.2632 -0.4243  0.0143
   75CHL1    H6 7966   2.439   0.615   6.984  0.5433  0.9255 -1.2415
   75CHL1    C7 7967   2.386   0.726   7.179  0.9196  0.6694  0.4433
   75CHL1   H7A 7968   2.385   0.640   7.249  1.9714  0.3431  0.0558
   75CHL1   H7B 7969   2.480   0.779   7.205  1.1600  0.9440 -0.9067
   75CHL1    C8 7970   2.271   0.817   7.230  0.1208 -0.3194 -0.9038
   75CHL1    H8 7971   2.185   0.746   7.242 -0.5784  0.7797  0.6512
   75CHL1   C14 7972   2.309   0.872   7.365  0.0728 -0.0771 -0.1213
   75CHL1   H14 7973   2.399   0.934   7.342  0.9575 -1.1361  0.4245
   75CHL1   C15 7974   2.364   0.776   7.476  0.4427 -0.0859 -0.3685
   75CHL1  H15A 7975   2.294   0.696   7.507 -0.1105  0.4772 -0.1550
   75CHL1  H15B 7976   2.470   0.747   7.456  0.3232 -1.8973  1.4541
   75CHL1   C16 7977   2.370   0.874   7.589  0.2762  0.0474  0.3246
   75CHL1  H16A 7978   2.334   0.824   7.681  0.1610  0.8679  0.7341
   75CHL1  H16B 7979   2.476   0.904   7.607  0.1143 -0.1694  1.6611
   75CHL1   C17 7980   2.282   1.003   7.558  0.0245 -0.1793  0.1122
   75CHL1   H17 7981   2.355   1.085   7.538  0.8308 -1.2564 -1.5274
   75CHL1   C13 7982   2.213   0.972   7.422  0.5340 -0.2630 -0.6944
   75CHL1   C18 7983   2.084   0.885   7.449 -0.1874  0.2968 -0.5008
   75CHL1  H18A 7984   2.003   0.948   7.491  0.1797 -0.3318  1.1819
   75CHL1  H18B 7985   2.050   0.838   7.353  0.3474 -0.5824 -0.2715
   75CHL1  H18C 7986   2.104   0.801   7.519  0.1830  1.5297  0.8759
   75CHL1   C12 7987   2.186   1.088   7.326 -0.3713 -0.0301  0.2665
   75CHL1  H12A 7988   2.121   1.164   7.376 -0.1282  0.5675 -0.3169
   75CHL1  H12B 7989   2.284   1.137   7.307  1.3810 -3.1585  0.9525
   75CHL1   C11 7990   2.135   1.034   7.192  0.3775 -0.7724  0.5212
   75CHL1  H11A 7991   2.029   1.001   7.194  0.0541  0.1084 -1.0480
   75CHL1  H11B 7992   2.148   1.117   7.119 -0.4850 -1.2403 -0.1639
   75CHL1    C9 7993   2.236   0.930   7.131 -0.3598  0.3345 -0.7912
   75CHL1    H9 7994   2.327   0.994   7.124 -0.1732 -0.0216 -1.6805
   75CHL1   C10 7995   2.203   0.872   6.993 -0.9468  0.1811 -0.5856
   75CHL1   C19 7996   2.058   0.832   6.981 -0.0975  0.8761 -0.6151
   75CHL1  H19A 7997   2.024   0.776   7.071  1.3864 -0.9703 -1.1741
   75CHL1  H19B 7998   1.992   0.920   6.968 -0.5289  0.7645  0.7410
   75CHL1  H19C 7999   2.031   0.774   6.890  0.4541 -2.2596  1.1569
   75CHL1    C1 8000   2.215   0.990   6.887  0.6453  0.3168 -0.6807
   75CHL1   H1A 8001   2.137   1.067   6.909 -0.8721 -1.0996 -1.0407
   75CHL1   H1B 8002   2.321   1.024   6.891  0.9324 -0.7111  3.8368
   75CHL1    C2 8003   2.194   0.946   6.745 -0.2097  0.1828  0.0899
   75CHL1   H2A 8004   2.219   1.027   6.673 -1.7838  0.1091 -0.5573
   75CHL1   H2B 8005   2.094   0.909   6.713  1.1187 -2.5822 -1.0186
   75CHL1   C20 8006   2.191   1.048   7.681  0.1373  0.1605  0.5473
   75CHL1   H20 8007   2.115   0.970   7.703 -0.1090  0.1144 -0.4774
   75CHL1   C21 8008   2.114   1.184   7.656 -0.7810  0.7819  0.2134
   75CHL1  H21A 8009   2.188   1.264   7.636 -0.4111  0.1508 -0.9459
   75CHL1  H21B 8010   2.054   1.229   7.738 -0.1214 -3.0029  2.9204
   75CHL1  H21C 8011   2.042   1.171   7.572 -2.4701 -1.7465  1.9594
   75CHL1   C22 8012   2.271   1.063   7.813  0.1659 -0.1341  0.4193
   75CHL1  H22A 8013   2.316   0.966   7.844  1.0340 -0.2367 -1.0693
   75CHL1  H22B 8014   2.350   1.136   7.785  0.2381 -0.3473  0.0615
   75CHL1   C23 8015   2.193   1.127   7.936  0.0432  0.7776  0.0952
   75CHL1  H23A 8016   2.165   1.234   7.923  0.3947  1.2606  2.9843
   75CHL1  H23B 8017   2.107   1.058   7.950  0.5775  0.4149  1.7546
   75CHL1   C24 8018   2.281   1.105   8.066  0.0594 -0.0320  0.3627
   75CHL1  H24A 8019   2.301   0.995   8.066  1.5335  0.1551 -3.5662
   75CHL1  H24B 8020   2.381   1.151   8.052 -0.4962  0.1013 -3.7768
   75CHL1   C25 8021   2.209   1.155   8.191  0.7308 -0.3293  0.7878
   75CHL1   H25 8022   2.130   1.082   8.216 -0.5499  0.8402  0.2482
   75CHL1   C26 8023   2.310   1.156   8.309 -0.4889  0.1212 -0.0774
   75CHL1  H26A 8024   2.260   1.192   8.402 -1.0826  0.5052 -0.5451
   75CHL1  H26B 8025   2.361   1.059   8.327  1.5135  1.0646 -0.4822
   75CHL1  H26C 8026   2.387   1.232   8.282 -1.5514  2.0364  2.0376
   75CHL1   C27 8027   2.166   1.303   8.173  0.1591 -0.0404  0.3836
   75CHL1  H27A 8028   2.074   1.297   8.111  2.1087 -1.4800 -2.4785
   75CHL1  H27B 8029   2.130   1.355   8.264  0.9016  0.4054  0.4287
   75CHL1  H27C 8030   2.248   1.369   8.136  0.6023 -1.5176 -1.3277
   76CHL1    C3 8031   5.970   2.996   7.339  0.0507  0.2009  0.5353
   76CHL1    H3 8032   5.969   3.106   7.357  2.2723  0.2500  0.4497
   76CHL1    O3 8033   5.953   2.965   7.202  0.2328  0.4097 -0.5230
   76CHL1   H3' 8034   5.978   2.873   7.193 -0.5935  0.0288  0.8193
   76CHL1    C4 8035   6.111   2.958   7.386 -0.4502  0.2174 -0.1078
   76CHL1   H4A 8036   6.118   2.850   7.358 -1.5775  0.5665 -1.8323
   76CHL1   H4B 8037   6.188   3.006   7.322  0.3430 -0.9431 -0.0489
   76CHL1    C5 8038   6.124   2.986   7.538 -0.5744 -0.8455 -0.1922
   76CHL1    C6 8039   6.221   3.068   7.599  0.0738 -0.3479  0.1114
   76CHL1    H6 8040   6.290   3.117   7.530  0.5374  0.1373  0.9157
   76CHL1    C7 8041   6.227   3.099   7.744  0.0212 -0.2562 -0.4997
   76CHL1   H7A 8042   6.335   3.092   7.768 -0.5398 -1.2557  1.9067
   76CHL1   H7B 8043   6.190   3.201   7.766  0.8400 -0.0561 -0.0384
   76CHL1    C8 8044   6.148   3.000   7.825  0.2511  0.8700  0.1400
   76CHL1    H8 8045   6.202   2.904   7.836 -0.5328  0.3927 -0.1130
   76CHL1   C14 8046   6.140   3.058   7.966  0.8842 -0.3411 -0.3731
   76CHL1   H14 8047   6.088   3.157   7.966 -1.4012 -1.5122 -1.2850
   76CHL1   C15 8048   6.281   3.074   8.043  0.3477  0.6166 -0.2086
   76CHL1  H15A 8049   6.352   2.997   8.008  1.2847  1.8230 -1.0113
   76CHL1  H15B 8050   6.320   3.172   8.007  0.3662  0.8060  0.3252
   76CHL1   C16 8051   6.249   3.066   8.192  0.3398 -0.3783 -0.0093
   76CHL1  H16A 8052   6.310   2.988   8.243  3.0683  1.9907  0.4530
   76CHL1  H16B 8053   6.288   3.166   8.221  1.2306 -0.7557  0.1200
   76CHL1   C17 8054   6.093   3.053   8.196  0.1793 -0.2578 -0.5460
   76CHL1   H17 8055   6.050   3.156   8.188 -1.6655 -1.1820 -3.4373
   76CHL1   C13 8056   6.052   2.980   8.061 -0.1142 -0.3892  0.4856
   76CHL1   C18 8057   6.093   2.832   8.079 -0.1112  0.0556  0.6343
   76CHL1  H18A 8058   6.105   2.782   7.981 -0.2397  2.0970 -0.4542
   76CHL1  H18B 8059   6.186   2.815   8.137  0.2039 -2.6922 -0.6125
   76CHL1  H18C 8060   6.015   2.779   8.139  0.3928 -1.3812  0.0455
   76CHL1   C12 8061   5.906   2.985   8.010 -0.1670 -0.5285  0.7946
   76CHL1  H12A 8062   5.833   2.932   8.075 -1.2255  0.7813  0.6877
   76CHL1  H12B 8063   5.869   3.089   8.001  2.0728  0.1084 -1.7434
   76CHL1   C11 8064   5.903   2.923   7.868  0.6787 -0.3548 -0.0132
   76CHL1  H11A 8065   5.940   2.819   7.880  0.5995 -0.7070 -2.6941
   76CHL1  H11B 8066   5.801   2.928   7.825  1.7568  0.2029 -2.5919
   76CHL1    C9 8067   6.010   2.986   7.768  0.2539  0.2779 -0.6434
   76CHL1    H9 8068   5.970   3.088   7.751 -0.0430 -0.0966 -2.2012
   76CHL1   C10 8069   6.006   2.924   7.625  0.3109  0.6285  0.1828
   76CHL1   C19 8070   6.026   2.769   7.649 -0.5170 -0.9697  0.4446
   76CHL1  H19A 8071   6.019   2.723   7.548  2.1034  2.3726 -1.3738
   76CHL1  H19B 8072   6.127   2.753   7.692 -0.5757 -0.0506  0.9239
   76CHL1  H19C 8073   5.949   2.717   7.711  0.2235 -3.0209 -0.3066
   76CHL1    C1 8074   5.863   2.952   7.560  0.1576  0.7682  0.0442
   76CHL1   H1A 8075   5.783   2.904   7.621 -0.1133  2.2225  0.8765
   76CHL1   H1B 8076   5.849   3.061   7.580  3.2816  1.3780 -0.8932
   76CHL1    C2 8077   5.851   2.929   7.410 -0.0541  0.0530 -0.7139
   76CHL1   H2A 8078   5.754   2.961   7.368 -0.3705 -0.1120 -0.1089
   76CHL1   H2B 8079   5.843   2.818   7.401 -2.5727  0.2519 -1.3007
   76CHL1   C20 8080   6.043   2.984   8.328 -0.0085  0.0725 -0.0973
   76CHL1   H20 8081   6.071   2.877   8.340 -0.1345 -0.1543 -1.7605
   76CHL1   C21 8082   5.892   2.991   8.329 -0.1219  1.0085  0.0518
   76CHL1  H21A 8083   5.841   2.908   8.274 -0.6370  0.0578  1.9128
   76CHL1  H21B 8084   5.852   3.084   8.283  0.5262  0.8138 -0.9181
   76CHL1  H21C 8085   5.851   2.996   8.432  1.6652 -0.9298  0.8796
   76CHL1   C22 8086   6.094   3.054   8.453 -0.3389 -0.5787 -0.5499
   76CHL1  H22A 8087   6.029   3.007   8.531  0.1324 -0.4397 -0.0696
   76CHL1  H22B 8088   6.198   3.027   8.480  0.1476  1.5396 -0.2204
   76CHL1   C23 8089   6.075   3.204   8.457 -0.9421 -0.1164  0.0135
   76CHL1  H23A 8090   6.166   3.246   8.407  0.7536  0.9914  3.8268
   76CHL1  H23B 8091   5.986   3.233   8.398 -0.5271 -1.9295 -1.5692
   76CHL1   C24 8092   6.075   3.263   8.599 -0.0388  0.1788  0.0717
   76CHL1  H24A 8093   5.996   3.215   8.661  1.4364 -1.7849  0.4682
   76CHL1  H24B 8094   6.177   3.236   8.634 -0.8693 -2.3605  0.5909
   76CHL1   C25 8095   6.046   3.416   8.606  0.1561 -0.0088 -0.8164
   76CHL1   H25 8096   5.952   3.439   8.553  0.4538 -1.4164 -1.9863
   76CHL1   C26 8097   6.054   3.452   8.761 -0.6070 -0.0914  0.0996
   76CHL1  H26A 8098   5.971   3.406   8.819 -1.7032  1.5525 -0.1310
   76CHL1  H26B 8099   6.150   3.412   8.800 -0.7714  0.3051  0.9148
   76CHL1  H26C 8100   6.058   3.562   8.773 -1.3807 -0.3006  2.4434
   76CHL1   C27 8101   6.157   3.500   8.540 -0.6296  0.1166  1.0992
   76CHL1  H27A 8102   6.253   3.455   8.574 -1.2426 -2.0150  0.0930
   76CHL1  H27B 8103   6.143   3.503   8.430  1.4661  0.9148  0.8428
   76CHL1  H27C 8104   6.137   3.602   8.578 -0.3856  0.5738  0.0015
   77CHL1    C3 8105   6.389   1.105   6.900  0.0672  0.3401  0.5386
   77CHL1    H3 8106   6.497   1.117   6.918  0.1266 -1.2394  1.2851
   77CHL1    O3 8107   6.358   1.097   6.759 -0.3162  0.1397  0.0288
   77CHL1   H3' 8108   6.399   1.172   6.715 -0.7254  0.2199 -0.2239
   77CHL1    C4 8109   6.359   0.976   6.977 -0.6829 -0.1132  0.8352
   77CHL1   H4A 8110   6.250   0.958   6.963 -0.6071 -0.7889  1.0898
   77CHL1   H4B 8111   6.422   0.903   6.922 -1.7055  0.0119 -0.5316
   77CHL1    C5 8112   6.392   0.981   7.127  0.0023  0.0130  0.5095
   77CHL1    C6 8113   6.462   0.883   7.180  0.6141 -0.4265  0.1649
   77CHL1    H6 8114   6.489   0.799   7.115 -1.4049 -1.5207  0.6695
   77CHL1    C7 8115   6.494   0.873   7.327  0.7883  0.5706 -0.3172
   77CHL1   H7A 8116   6.476   0.768   7.359 -0.4371  1.1563  0.9708
   77CHL1   H7B 8117   6.601   0.901   7.333  0.9911  0.1285 -1.8109
   77CHL1    C8 8118   6.409   0.973   7.410 -0.0563  0.4913  0.1814
   77CHL1    H8 8119   6.304   0.937   7.409 -0.3747  1.4137 -1.0261
   77CHL1   C14 8120   6.467   0.996   7.552 -0.6461 -0.1166 -0.2769
   77CHL1   H14 8121   6.570   1.036   7.542 -0.5813  0.4144  2.1776
   77CHL1   C15 8122   6.488   0.875   7.645  0.3225  0.7732  0.4364
   77CHL1  H15A 8123   6.400   0.807   7.640  0.0895  1.2329 -3.0769
   77CHL1  H15B 8124   6.576   0.817   7.609  1.2151  3.0530 -1.1994
   77CHL1   C16 8125   6.504   0.936   7.781 -0.7246  0.6050  0.5758
   77CHL1  H16A 8126   6.433   0.883   7.848  0.5590 -1.3592  0.4339
   77CHL1  H16B 8127   6.607   0.920   7.820 -1.2982 -1.9297  1.1467
   77CHL1   C17 8128   6.465   1.088   7.778  0.4819  0.1692 -0.3556
   77CHL1   H17 8129   6.558   1.148   7.770 -0.3960  1.4505 -1.2257
   77CHL1   C13 8130   6.393   1.097   7.644 -0.0150 -0.0391 -0.4989
   77CHL1   C18 8131   6.244   1.052   7.677 -0.7735  0.5006  0.3210
   77CHL1  H18A 8132   6.235   0.950   7.721  1.1419 -0.7002 -1.8850
   77CHL1  H18B 8133   6.209   1.117   7.759 -0.3998  1.7973 -0.5336
   77CHL1  H18C 8134   6.185   1.052   7.582  3.1241  0.7240 -2.2351
   77CHL1   C12 8135   6.399   1.240   7.575  1.0386 -0.2758 -0.3633
   77CHL1  H12A 8136   6.336   1.306   7.638  2.4730  1.2589 -0.4913
   77CHL1  H12B 8137   6.501   1.280   7.556  0.6981  0.4911 -0.5950
   77CHL1   C11 8138   6.340   1.232   7.432 -0.3978  0.0289  0.8284
   77CHL1  H11A 8139   6.229   1.228   7.444 -0.5063  0.2413 -0.1172
   77CHL1  H11B 8140   6.359   1.328   7.381 -2.1530 -0.2028 -0.2839
   77CHL1    C9 8141   6.404   1.118   7.340 -0.8246  0.3416  0.2535
   77CHL1    H9 8142   6.511   1.144   7.325 -0.8731 -0.8394 -2.3338
   77CHL1   C10 8143   6.334   1.106   7.201 -0.4818 -0.1359  0.7709
   77CHL1   C19 8144   6.180   1.099   7.207  0.1273 -0.0114 -0.3271
   77CHL1  H19A 8145   6.151   1.009   7.265  1.6986 -0.4895 -0.2777
   77CHL1  H19B 8146   6.129   1.173   7.273 -0.7833  0.6887 -1.7768
   77CHL1  H19C 8147   6.132   1.103   7.107 -1.7270 -0.7755  0.5155
   77CHL1    C1 8148   6.359   1.230   7.116  0.2695  0.0006  0.1411
   77CHL1   H1A 8149   6.300   1.313   7.161  1.4553  0.4260  0.9316
   77CHL1   H1B 8150   6.468   1.253   7.118  0.1303  0.6708  0.5568
   77CHL1    C2 8151   6.312   1.222   6.968  0.4599  0.4220 -0.2090
   77CHL1   H2A 8152   6.319   1.320   6.916  0.3152  0.8516  0.5647
   77CHL1   H2B 8153   6.203   1.202   6.960  0.5601 -0.6692  0.9859
   77CHL1   C20 8154   6.414   1.137   7.919  0.2990 -0.0208  0.2598
   77CHL1   H20 8155   6.322   1.077   7.933  0.8049 -0.9497 -0.3510
   77CHL1   C21 8156   6.384   1.284   7.915 -0.6246  0.1248 -1.4658
   77CHL1  H21A 8157   6.323   1.315   7.828 -2.2768 -0.0428 -0.3809
   77CHL1  H21B 8158   6.483   1.335   7.916 -0.9215  0.7029  0.1836
   77CHL1  H21C 8159   6.330   1.308   8.010  2.8393  0.4160  0.5277
   77CHL1   C22 8160   6.507   1.103   8.039  0.7348  0.7549 -0.2573
   77CHL1  H22A 8161   6.553   1.002   8.033 -1.0703 -0.1775  1.1211
   77CHL1  H22B 8162   6.592   1.175   8.029 -0.1150  1.5073 -2.3244
   77CHL1   C23 8163   6.439   1.107   8.175  0.5079 -0.1643  0.0512
   77CHL1  H23A 8164   6.397   1.207   8.198  0.5232 -0.3915  1.0918
   77CHL1  H23B 8165   6.364   1.026   8.170 -0.1284  0.4281 -0.0672
   77CHL1   C24 8166   6.533   1.074   8.295 -0.0217  0.3676  0.3535
   77CHL1  H24A 8167   6.576   0.973   8.274  2.0055  1.1769  0.5039
   77CHL1  H24B 8168   6.627   1.132   8.285 -1.3245  2.1269 -2.1968
   77CHL1   C25 8169   6.472   1.087   8.436  0.3977 -0.0031  0.2534
   77CHL1   H25 8170   6.393   1.008   8.433  0.5195 -0.0665 -2.2873
   77CHL1   C26 8171   6.571   1.040   8.542 -0.1930 -0.3093 -0.1646
   77CHL1  H26A 8172   6.518   1.048   8.640 -0.6715  0.4054 -0.4805
   77CHL1  H26B 8173   6.600   0.933   8.527 -1.7615 -0.7003 -0.4836
   77CHL1  H26C 8174   6.663   1.099   8.561  0.0782 -0.7971  0.0698
   77CHL1   C27 8175   6.432   1.234   8.477 -0.3984  0.7822  0.2164
   77CHL1  H27A 8176   6.508   1.309   8.446 -0.4761  2.4753  3.7849
   77CHL1  H27B 8177   6.334   1.266   8.436 -0.6294  0.5531  0.5841
   77CHL1  H27C 8178   6.416   1.227   8.587  1.5368  3.2173  0.6991
   78CHL1    C3 8179   0.942   2.936   6.699  0.0235  0.7305 -0.3104
   78CHL1    H3 8180   0.843   2.959   6.744 -0.4054 -3.5964  1.2525
   78CHL1    O3 8181   0.932   2.943   6.557  0.1254  0.2382 -0.0705
   78CHL1   H3' 8182   0.855   2.888   6.540  0.6779 -0.1911 -1.3119
   78CHL1    C4 8183   1.058   3.028   6.748 -0.6963  0.5594  0.4257
   78CHL1   H4A 8184   1.141   2.997   6.681 -0.7880  2.7556 -0.7479
   78CHL1   H4B 8185   1.035   3.130   6.710 -2.2964  0.0927  0.1073
   78CHL1    C5 8186   1.079   3.022   6.897 -0.3512 -0.7952  0.5222
   78CHL1    C6 8187   1.069   3.129   6.976  0.5215  0.0968  0.8888
   78CHL1    H6 8188   1.060   3.226   6.925 -1.7235  1.6238  4.0960
   78CHL1    C7 8189   1.100   3.124   7.123 -0.2555 -0.3770  0.5910
   78CHL1   H7A 8190   1.165   3.211   7.148 -2.4713  2.0044 -1.6209
   78CHL1   H7B 8191   1.000   3.129   7.171 -0.3703 -2.2544  0.5781
   78CHL1    C8 8192   1.171   2.999   7.165  0.1871  0.0348 -0.0203
   78CHL1    H8 8193   1.275   3.002   7.125 -0.0951  1.4672 -0.6897
   78CHL1   C14 8194   1.175   2.999   7.313 -0.3458  0.0746 -0.2343
   78CHL1   H14 8195   1.070   2.995   7.349 -0.6617 -1.2199 -1.2640
   78CHL1   C15 8196   1.233   3.119   7.387  0.0757  0.3311  0.3135
   78CHL1  H15A 8197   1.321   3.163   7.336  0.4784  1.3522  1.8475
   78CHL1  H15B 8198   1.167   3.208   7.395  0.4454  0.6653 -0.3354
   78CHL1   C16 8199   1.275   3.062   7.523 -0.1003 -0.2303  0.7361
   78CHL1  H16A 8200   1.385   3.078   7.526 -0.3164  1.2149  1.8949
   78CHL1  H16B 8201   1.236   3.116   7.612 -0.2280  1.9018 -0.5643
   78CHL1   C17 8202   1.242   2.908   7.519  0.0484  0.3406 -1.2473
   78CHL1   H17 8203   1.138   2.908   7.556  0.5424 -1.4217  0.2169
   78CHL1   C13 8204   1.243   2.873   7.365  0.6688 -0.1720  0.4332
   78CHL1   C18 8205   1.395   2.864   7.330  0.3879 -0.0379 -0.8423
   78CHL1  H18A 8206   1.459   2.949   7.363  0.7331  0.6906 -3.2492
   78CHL1  H18B 8207   1.446   2.775   7.373  1.1398  0.7881 -0.0058
   78CHL1  H18C 8208   1.420   2.868   7.222  2.3033  0.5250 -0.4030
   78CHL1   C12 8209   1.168   2.746   7.324  0.2438  0.5432 -0.3775
   78CHL1  H12A 8210   1.217   2.649   7.349 -1.6928 -0.0287  1.3957
   78CHL1  H12B 8211   1.061   2.743   7.355 -0.0918  1.0431 -1.4585
   78CHL1   C11 8212   1.167   2.741   7.165  0.0921  0.4962  0.4578
   78CHL1  H11A 8213   1.272   2.731   7.130 -0.0749  1.1057 -0.2304
   78CHL1  H11B 8214   1.101   2.653   7.146 -2.6139  2.5875 -0.2550
   78CHL1    C9 8215   1.098   2.869   7.109 -0.3200  0.3268  0.5982
   78CHL1    H9 8216   0.989   2.872   7.132 -0.3159  2.9656  0.4036
   78CHL1   C10 8217   1.101   2.875   6.949 -0.8363  0.2948 -0.3249
   78CHL1   C19 8218   1.240   2.838   6.895  0.1586 -0.1035  0.2784
   78CHL1  H19A 8219   1.258   2.729   6.907 -0.7083 -0.0841  1.9407
   78CHL1  H19B 8220   1.244   2.850   6.785 -0.5551  1.1641  0.3799
   78CHL1  H19C 8221   1.316   2.896   6.952  1.7307 -0.1824 -1.7128
   78CHL1    C1 8222   0.990   2.776   6.899 -0.1574  0.0713  0.2685
   78CHL1   H1A 8223   1.012   2.669   6.920 -1.0646 -0.4364 -1.2801
   78CHL1   H1B 8224   0.891   2.794   6.947 -0.1411  1.0050 -0.0405
   78CHL1    C2 8225   0.965   2.795   6.746 -0.8273  0.0147  0.4796
   78CHL1   H2A 8226   0.882   2.727   6.717 -1.0046  0.2546  0.4207
   78CHL1   H2B 8227   1.057   2.768   6.690 -1.2307  2.2128 -1.3626
   78CHL1   C20 8228   1.326   2.832   7.624  0.0517 -0.4105  0.3331
   78CHL1   H20 8229   1.433   2.837   7.596  0.0438 -1.2786  0.1469
   78CHL1   C21 8230   1.290   2.687   7.614  0.5222  0.0735  0.0967
   78CHL1  H21A 8231   1.182   2.665   7.625  0.0673  1.9815 -0.3590
   78CHL1  H21B 8232   1.344   2.624   7.688 -6.1822 -3.3143  2.4862
   78CHL1  H21C 8233   1.321   2.638   7.520 -0.0036  0.3259 -0.2101
   78CHL1   C22 8234   1.320   2.895   7.774 -0.4137 -0.0120  0.3128
   78CHL1  H22A 8235   1.394   2.848   7.841  0.1458  1.3792  0.6831
   78CHL1  H22B 8236   1.340   3.004   7.779 -0.3260  0.0454 -0.9743
   78CHL1   C23 8237   1.188   2.870   7.848  0.5995 -0.1546 -0.6475
   78CHL1  H23A 8238   1.108   2.921   7.791  0.1478 -0.7467 -0.5391
   78CHL1  H23B 8239   1.179   2.760   7.859 -0.0122  0.0411  0.9572
   78CHL1   C24 8240   1.195   2.940   7.987 -0.0935  0.2488 -0.5266
   78CHL1  H24A 8241   1.202   3.051   7.984  0.5711  0.3241  2.4442
   78CHL1  H24B 8242   1.097   2.925   8.037  0.4508  0.1469  0.5428
   78CHL1   C25 8243   1.308   2.890   8.079  0.3764 -0.0309  1.0417
   78CHL1   H25 8244   1.408   2.903   8.032  0.4675  0.0904  1.2658
   78CHL1   C26 8245   1.304   2.972   8.206  0.3312 -0.3085  0.1497
   78CHL1  H26A 8246   1.385   2.937   8.273  1.3489  0.5488 -0.6250
   78CHL1  H26B 8247   1.318   3.077   8.172  0.1281 -0.5957 -0.8342
   78CHL1  H26C 8248   1.210   2.967   8.266  0.2855 -2.9160 -0.0839
   78CHL1   C27 8249   1.292   2.739   8.118  0.1905 -0.0780 -0.0648
   78CHL1  H27A 8250   1.307   2.672   8.031  1.2649 -1.4037  1.1125
   78CHL1  H27B 8251   1.374   2.704   8.184 -0.6960 -1.6114  0.2291
   78CHL1  H27C 8252   1.189   2.730   8.157  0.0792  0.8157 -0.1285
   79CHL1    C3 8253   6.815   2.354   7.296  0.6990  0.4317 -0.1809
   79CHL1    H3 8254   6.814   2.243   7.290  2.4226  0.3125  1.3293
   79CHL1    O3 8255   6.827   2.417   7.174  0.0595  0.0168  0.4100
   79CHL1   H3' 8256   6.743   2.403   7.129 -0.4371  0.8681  1.0516
   79CHL1    C4 8257   6.688   2.404   7.364  0.3048  0.2947  0.7671
   79CHL1   H4A 8258   6.712   2.513   7.374  1.1485  0.1603  0.2397
   79CHL1   H4B 8259   6.598   2.397   7.300 -0.1422  1.2040  1.2802
   79CHL1    C5 8260   6.664   2.342   7.494 -0.3774  0.5694  0.4758
   79CHL1    C6 8261   6.555   2.270   7.523  0.1593  0.1836  0.4685
   79CHL1    H6 8262   6.471   2.247   7.457 -0.0055  2.3201 -0.0713
   79CHL1    C7 8263   6.521   2.227   7.668 -0.3316 -0.8476  0.6578
   79CHL1   H7A 8264   6.414   2.254   7.680 -0.0214  0.1407  1.2743
   79CHL1   H7B 8265   6.541   2.118   7.677  3.7239 -0.2424  0.0278
   79CHL1    C8 8266   6.623   2.274   7.768  0.1806 -0.1121 -0.4820
   79CHL1    H8 8267   6.603   2.379   7.798  1.0878 -0.1281  0.1878
   79CHL1   C14 8268   6.608   2.183   7.890 -0.0497  0.3223 -0.6191
   79CHL1   H14 8269   6.652   2.088   7.854  2.6105  1.1012  0.4821
   79CHL1   C15 8270   6.471   2.152   7.952  0.4968 -0.1873 -0.5496
   79CHL1  H15A 8271   6.406   2.242   7.957 -1.0360 -1.3743  1.7834
   79CHL1  H15B 8272   6.423   2.065   7.903 -1.5496 -0.9265  2.6305
   79CHL1   C16 8273   6.504   2.115   8.096  1.0463 -0.5423 -0.0001
   79CHL1  H16A 8274   6.455   2.186   8.166  0.2293 -0.2383 -0.8603
   79CHL1  H16B 8275   6.473   2.014   8.129 -0.8778  0.3286  0.9603
   79CHL1   C17 8276   6.658   2.122   8.115 -0.0539  0.4496 -0.7433
   79CHL1   H17 8277   6.702   2.027   8.080 -1.8251 -0.2732 -1.0233
   79CHL1   C13 8278   6.703   2.225   8.008 -0.6240  0.9356  0.2918
   79CHL1   C18 8279   6.659   2.368   8.067 -0.1722  0.8766  0.0350
   79CHL1  H18A 8280   6.551   2.370   8.095  0.2695  0.4383  1.8640
   79CHL1  H18B 8281   6.722   2.384   8.157 -1.5633  0.0732  1.1766
   79CHL1  H18C 8282   6.678   2.448   7.993 -0.3707  0.2166 -0.7395
   79CHL1   C12 8283   6.844   2.214   7.959  0.0512 -0.0081 -0.7874
   79CHL1  H12A 8284   6.908   2.270   8.030  0.6440 -1.5955 -0.0413
   79CHL1  H12B 8285   6.883   2.112   7.940  1.3017  0.4744 -0.8473
   79CHL1   C11 8286   6.866   2.295   7.834  0.2156  0.5768  0.2588
   79CHL1  H11A 8287   6.865   2.405   7.848 -0.8778  0.6888 -0.5773
   79CHL1  H11B 8288   6.970   2.272   7.803  0.9728  3.4696  0.5330
   79CHL1    C9 8289   6.767   2.270   7.720  0.4610 -0.1416 -0.1395
   79CHL1    H9 8290   6.781   2.170   7.674  0.6853 -0.8192  1.3548
   79CHL1   C10 8291   6.783   2.368   7.595  0.4188  0.0082 -0.0718
   79CHL1   C19 8292   6.783   2.515   7.648  1.0593 -0.2483 -0.6888
   79CHL1  H19A 8293   6.774   2.583   7.561 -3.7358  0.7847  0.4970
   79CHL1  H19B 8294   6.701   2.536   7.720  0.6330  0.0587 -1.2592
   79CHL1  H19C 8295   6.883   2.551   7.682 -0.2882  0.8433  2.3039
   79CHL1    C1 8296   6.914   2.334   7.522  0.3066 -0.0413  0.1410
   79CHL1   H1A 8297   7.005   2.356   7.582 -0.5435  1.7267  0.8311
   79CHL1   H1B 8298   6.934   2.225   7.515  0.8517  0.1680 -2.0242
   79CHL1    C2 8299   6.922   2.400   7.387 -0.1361 -0.8529  0.5850
   79CHL1   H2A 8300   7.017   2.359   7.347  0.3763  0.4819  0.3910
   79CHL1   H2B 8301   6.935   2.509   7.408  0.9256 -0.4923 -1.7992
   79CHL1   C20 8302   6.692   2.136   8.264  0.4098 -0.6252 -0.0033
   79CHL1   H20 8303   6.632   2.222   8.301 -1.9301 -1.2372 -2.2429
   79CHL1   C21 8304   6.833   2.169   8.298 -1.1446  0.2889  0.4227
   79CHL1  H21A 8305   6.846   2.178   8.408  2.0243 -0.7568  0.1829
   79CHL1  H21B 8306   6.869   2.264   8.253 -1.2381 -0.5974 -1.5895
   79CHL1  H21C 8307   6.908   2.095   8.264 -1.5649 -0.5880  1.3837
   79CHL1   C22 8308   6.653   2.006   8.344  0.0075  0.3684 -0.2097
   79CHL1  H22A 8309   6.551   1.970   8.318 -0.7762 -0.4683  3.7704
   79CHL1  H22B 8310   6.715   1.925   8.299 -0.1627  1.3733 -2.3098
   79CHL1   C23 8311   6.664   2.017   8.494 -0.4683  0.4982  0.4431
   79CHL1  H23A 8312   6.760   2.054   8.536 -1.0735  0.5885  1.7719
   79CHL1  H23B 8313   6.580   2.087   8.519  0.2532  0.9961  1.5163
   79CHL1   C24 8314   6.627   1.888   8.568  0.2216  0.3076 -0.1088
   79CHL1  H24A 8315   6.523   1.850   8.555  0.5896 -1.2576  1.3055
   79CHL1  H24B 8316   6.699   1.806   8.547 -0.9020 -0.6511 -0.3057
   79CHL1   C25 8317   6.632   1.906   8.719  0.5931  1.0321  1.1139
   79CHL1   H25 8318   6.560   1.988   8.744 -1.2489 -0.4396  0.7199
   79CHL1   C26 8319   6.568   1.789   8.795 -0.2578  0.3995 -0.1071
   79CHL1  H26A 8320   6.538   1.832   8.893  1.4939 -0.5197  0.8665
   79CHL1  H26B 8321   6.480   1.750   8.740 -0.3172 -0.4130  0.5468
   79CHL1  H26C 8322   6.638   1.706   8.817 -1.3999  0.0144  2.2218
   79CHL1   C27 8323   6.768   1.931   8.773 -0.0560  0.1191  0.0235
   79CHL1  H27A 8324   6.832   2.008   8.725 -0.1457 -0.8277 -1.6394
   79CHL1  H27B 8325   6.751   1.965   8.878 -1.6291  1.1020 -0.5451
   79CHL1  H27C 8326   6.823   1.835   8.781  1.1942  0.8740  0.7918
   80CHL1    C3 8327   5.424   6.669   6.958 -0.0205  0.1476  0.3322
   80CHL1    H3 8328   5.409   6.777   6.976  0.2276  0.5544 -1.8331
   80CHL1    O3 8329   5.429   6.667   6.812  0.2975  0.0287  0.0971
   80CHL1   H3' 8330   5.467   6.583   6.785  0.5069 -0.1858  1.0298
   80CHL1    C4 8331   5.557   6.623   7.009 -0.4646  0.0385 -0.2849
   80CHL1   H4A 8332   5.583   6.519   6.981 -0.2638  0.0061  0.0123
   80CHL1   H4B 8333   5.634   6.686   6.961 -0.8948  0.5418 -0.3147
   80CHL1    C5 8334   5.568   6.629   7.160  0.4653 -0.1078 -0.5106
   80CHL1    C6 8335   5.658   6.716   7.221  0.0319  0.5614  0.1155
   80CHL1    H6 8336   5.731   6.775   7.163  0.8219 -0.0642  0.4663
   80CHL1    C7 8337   5.663   6.733   7.374  0.6790 -0.0749 -0.5578
   80CHL1   H7A 8338   5.765   6.726   7.417 -0.0488 -0.7813  1.1270
   80CHL1   H7B 8339   5.623   6.832   7.404  1.6348 -0.0411  0.6305
   80CHL1    C8 8340   5.572   6.615   7.445  0.3907  0.2537 -0.0701
   80CHL1    H8 8341   5.627   6.519   7.432  1.9483  0.8023  2.1304
   80CHL1   C14 8342   5.565   6.655   7.590  0.0484 -0.6325  0.5016
   80CHL1   H14 8343   5.496   6.743   7.591 -0.2472 -0.8645  0.6468
   80CHL1   C15 8344   5.695   6.687   7.678  0.0021 -0.7565 -0.3159
   80CHL1  H15A 8345   5.780   6.616   7.663  1.7485  0.7458  2.0690
   80CHL1  H15B 8346   5.734   6.788   7.657  2.0757 -1.3812  0.3738
   80CHL1   C16 8347   5.652   6.646   7.821 -0.3564 -0.0237 -0.3246
   80CHL1  H16A 8348   5.705   6.553   7.851 -0.4094  0.1481  0.3085
   80CHL1  H16B 8349   5.684   6.726   7.891  0.0204  0.3168 -0.8836
   80CHL1   C17 8350   5.505   6.596   7.820  0.1120 -0.7133 -0.0771
   80CHL1   H17 8351   5.435   6.678   7.847 -1.3129 -1.9924  0.1647
   80CHL1   C13 8352   5.489   6.551   7.670 -0.9046  0.0838  0.3238
   80CHL1   C18 8353   5.546   6.409   7.653  0.2544 -0.8347 -0.0424
   80CHL1  H18A 8354   5.512   6.381   7.551  1.3098  0.2146 -0.6966
   80CHL1  H18B 8355   5.655   6.394   7.663  0.8448  1.0647 -2.7975
   80CHL1  H18C 8356   5.495   6.333   7.715 -1.7556  1.0064  0.6384
   80CHL1   C12 8357   5.339   6.562   7.624 -0.5054  0.3192  0.0660
   80CHL1  H12A 8358   5.274   6.495   7.684 -0.9356 -0.2357 -1.0182
   80CHL1  H12B 8359   5.299   6.663   7.647  0.6156  0.5629  1.0048
   80CHL1   C11 8360   5.329   6.548   7.472 -0.3238 -0.1836  0.4143
   80CHL1  H11A 8361   5.324   6.439   7.454 -1.0939  0.1728 -1.7039
   80CHL1  H11B 8362   5.233   6.596   7.443 -0.8661 -0.7483  1.2549
   80CHL1    C9 8363   5.441   6.612   7.385  0.4481  0.2385  0.5324
   80CHL1    H9 8364   5.405   6.718   7.385 -1.6147 -0.4260  0.2748
   80CHL1   C10 8365   5.451   6.566   7.235 -0.0423  1.1391  0.8193
   80CHL1   C19 8366   5.493   6.416   7.229 -0.4917 -0.4098  0.6505
   80CHL1  H19A 8367   5.493   6.395   7.120 -4.9033 -0.3208  0.5696
   80CHL1  H19B 8368   5.594   6.391   7.270 -0.2375 -1.5339 -0.6060
   80CHL1  H19C 8369   5.415   6.360   7.284  0.2209  0.4499  2.5888
   80CHL1    C1 8370   5.313   6.578   7.157 -0.1927  0.5957  0.2221
   80CHL1   H1A 8371   5.241   6.502   7.195  0.3052 -0.5371 -1.0645
   80CHL1   H1B 8372   5.266   6.672   7.191 -0.8018 -0.1745  1.5453
   80CHL1    C2 8373   5.312   6.581   7.000  0.1267  0.2146  0.2879
   80CHL1   H2A 8374   5.219   6.613   6.949  0.2495  0.6311  0.3254
   80CHL1   H2B 8375   5.336   6.478   6.965  1.8441  0.7108 -0.0742
   80CHL1   C20 8376   5.479   6.491   7.933 -0.1665 -0.0256  0.6048
   80CHL1   H20 8377   5.543   6.402   7.915 -2.2155 -1.2164 -1.1097
   80CHL1   C21 8378   5.332   6.450   7.934  0.9725  0.0775 -0.4784
   80CHL1  H21A 8379   5.301   6.391   8.023  0.2367 -0.4181 -1.0550
   80CHL1  H21B 8380   5.320   6.385   7.844 -0.1710 -0.6104  0.1704
   80CHL1  H21C 8381   5.261   6.533   7.915  1.4397  0.7295  0.6098
   80CHL1   C22 8382   5.517   6.557   8.074  0.2348 -0.4044 -0.1098
   80CHL1  H22A 8383   5.503   6.485   8.158 -0.3540 -0.0588  0.0908
   80CHL1  H22B 8384   5.621   6.595   8.068 -0.8767  2.6033 -0.8505
   80CHL1   C23 8385   5.432   6.681   8.113  0.0094  0.8995 -0.4228
   80CHL1  H23A 8386   5.437   6.761   8.036 -1.9677  0.0328 -1.4965
   80CHL1  H23B 8387   5.323   6.658   8.111  0.1477  0.0127  1.1182
   80CHL1   C24 8388   5.464   6.754   8.244  0.6058  0.1408  1.0341
   80CHL1  H24A 8389   5.461   6.664   8.309 -1.4034 -0.3329  0.3188
   80CHL1  H24B 8390   5.570   6.788   8.240  0.5855  0.0194 -0.8024
   80CHL1   C25 8391   5.367   6.864   8.293 -0.0732  0.1617 -0.3525
   80CHL1   H25 8392   5.261   6.840   8.315 -0.1442  1.9127  1.3097
   80CHL1   C26 8393   5.418   6.928   8.431 -0.6212  0.5092 -0.4400
   80CHL1  H26A 8394   5.517   6.976   8.420  0.9454 -2.9252 -2.2209
   80CHL1  H26B 8395   5.349   7.001   8.478 -0.7688 -0.8473  1.5588
   80CHL1  H26C 8396   5.429   6.834   8.490  2.2384  1.2460  0.2813
   80CHL1   C27 8397   5.362   6.974   8.191 -0.5243 -0.1146 -1.2977
   80CHL1  H27A 8398   5.464   7.005   8.160  0.2371 -0.4138  0.8203
   80CHL1  H27B 8399   5.302   6.950   8.100 -1.0044 -2.2027 -0.4616
   80CHL1  H27C 8400   5.318   7.060   8.246  1.2669  1.2782 -2.0412
   81CHL1    C3 8401   3.713   5.858   6.970 -0.5015  0.5148  0.3225
   81CHL1    H3 8402   3.768   5.763   6.986 -3.6284 -1.5576 -0.8104
   81CHL1    O3 8403   3.740   5.890   6.835 -0.4458  0.5690 -0.5402
   81CHL1   H3' 8404   3.661   5.860   6.789 -0.2597 -0.0522 -0.4508
   81CHL1    C4 8405   3.567   5.828   7.000  0.0366 -0.6773 -0.6953
   81CHL1   H4A 8406   3.502   5.906   6.955  0.8474  1.9606  2.5381
   81CHL1   H4B 8407   3.545   5.738   6.938  0.0151  0.8449 -2.9495
   81CHL1    C5 8408   3.541   5.789   7.144  0.3627  0.0333  0.7693
   81CHL1    C6 8409   3.472   5.678   7.172  0.0937  0.6963  0.1485
   81CHL1    H6 8410   3.432   5.612   7.094 -1.7011  1.7665  0.1365
   81CHL1    C7 8411   3.440   5.628   7.308  0.7485  0.0348 -0.0179
   81CHL1   H7A 8412   3.341   5.578   7.310  1.0547 -0.5585  0.3231
   81CHL1   H7B 8413   3.514   5.550   7.337 -0.7492 -1.3706  0.1009
   81CHL1    C8 8414   3.458   5.737   7.416 -0.3571  0.3472  0.1494
   81CHL1    H8 8415   3.375   5.811   7.420 -1.2904 -0.5233 -2.3309
   81CHL1   C14 8416   3.482   5.672   7.544 -0.1473  0.1636  0.4161
   81CHL1   H14 8417   3.567   5.601   7.536  1.0406  1.8717 -3.1512
   81CHL1   C15 8418   3.386   5.555   7.588 -0.0440 -0.1099  0.1981
   81CHL1  H15A 8419   3.283   5.593   7.577  0.1431 -0.2117 -2.1815
   81CHL1  H15B 8420   3.406   5.456   7.541  1.6811  1.2637 -2.0995
   81CHL1   C16 8421   3.420   5.548   7.739 -0.4963 -0.1937  0.3062
   81CHL1  H16A 8422   3.330   5.575   7.797 -0.6775  2.5444 -1.1666
   81CHL1  H16B 8423   3.458   5.447   7.764 -1.0938 -1.2271 -2.7875
   81CHL1   C17 8424   3.532   5.646   7.778  0.0725 -0.6950  0.0976
   81CHL1   H17 8425   3.627   5.598   7.749 -0.8081 -1.9539 -0.7543
   81CHL1   C13 8426   3.514   5.762   7.671 -0.0424  0.2521 -0.1782
   81CHL1   C18 8427   3.399   5.860   7.715  0.0413 -0.2815 -0.5030
   81CHL1  H18A 8428   3.444   5.938   7.780  3.2443 -0.3044 -2.6086
   81CHL1  H18B 8429   3.366   5.914   7.623 -2.3704  0.1573  0.5699
   81CHL1  H18C 8430   3.318   5.809   7.771 -0.2442 -1.3698 -1.8893
   81CHL1   C12 8431   3.641   5.846   7.641 -0.5858  0.1126 -0.3891
   81CHL1  H12A 8432   3.647   5.922   7.722  0.1154  1.1809 -1.4156
   81CHL1  H12B 8433   3.731   5.782   7.655 -0.4194  0.1046 -1.4578
   81CHL1   C11 8434   3.631   5.918   7.508 -0.2184 -0.7187 -0.1072
   81CHL1  H11A 8435   3.550   5.994   7.508 -1.0897 -1.6301  1.7268
   81CHL1  H11B 8436   3.730   5.946   7.466 -0.3938  0.6761  0.3746
   81CHL1    C9 8437   3.587   5.822   7.389  0.1622 -0.4865 -0.5767
   81CHL1    H9 8438   3.666   5.744   7.391  1.7882  1.1227  1.6532
   81CHL1   C10 8439   3.592   5.885   7.249  0.1542  0.3310  0.9255
   81CHL1   C19 8440   3.494   6.004   7.248  0.0181 -0.0921  0.4699
   81CHL1  H19A 8441   3.529   6.089   7.311 -0.5142 -0.1965  0.9093
   81CHL1  H19B 8442   3.460   6.046   7.150  1.3034  2.6427  1.1471
   81CHL1  H19C 8443   3.399   5.973   7.295 -1.5395 -1.4231 -3.3439
   81CHL1    C1 8444   3.741   5.922   7.218 -0.2409  0.5421  0.3378
   81CHL1   H1A 8445   3.783   5.999   7.286  0.2688  0.1784  0.4359
   81CHL1   H1B 8446   3.807   5.834   7.234 -2.9826 -1.4527  1.0368
   81CHL1    C2 8447   3.766   5.962   7.065  0.8923  0.2094  1.0655
   81CHL1   H2A 8448   3.866   6.000   7.035 -0.5842  2.0472 -1.7799
   81CHL1   H2B 8449   3.708   6.057   7.062  0.5005 -0.0549 -0.1434
   81CHL1   C20 8450   3.536   5.674   7.932 -0.3197  0.2355 -0.1792
   81CHL1   H20 8451   3.432   5.700   7.960 -0.9006  0.6121 -2.5424
   81CHL1   C21 8452   3.616   5.796   7.955 -0.1516 -1.0443  0.4911
   81CHL1  H21A 8453   3.644   5.807   8.062  1.5543  3.9392 -0.3205
   81CHL1  H21B 8454   3.563   5.890   7.929  0.6663 -0.8132 -0.3419
   81CHL1  H21C 8455   3.717   5.793   7.910  0.7936 -1.4116  2.5840
   81CHL1   C22 8456   3.592   5.553   8.011  0.8938  0.6539  1.4659
   81CHL1  H22A 8457   3.537   5.460   7.987  1.4396  0.8005 -0.4274
   81CHL1  H22B 8458   3.702   5.543   8.002  0.7020  0.1947 -0.7076
   81CHL1   C23 8459   3.557   5.554   8.156  0.5316 -0.2390  0.3734
   81CHL1  H23A 8460   3.611   5.478   8.215  0.7274 -1.0695 -0.8633
   81CHL1  H23B 8461   3.590   5.651   8.199 -2.4036  0.1845  1.8641
   81CHL1   C24 8462   3.407   5.529   8.192 -0.2427  0.4184  0.3125
   81CHL1  H24A 8463   3.339   5.610   8.160 -1.1090  0.7182  2.8019
   81CHL1  H24B 8464   3.379   5.437   8.136 -0.0845  1.1976 -1.0633
   81CHL1   C25 8465   3.384   5.494   8.342  0.9704 -0.2828 -0.0884
   81CHL1   H25 8466   3.457   5.414   8.369 -0.0023 -1.0552  0.2787
   81CHL1   C26 8467   3.397   5.626   8.428  0.5149  0.1552  0.3064
   81CHL1  H26A 8468   3.501   5.634   8.465  0.1568  1.8398  0.9696
   81CHL1  H26B 8469   3.390   5.713   8.360 -1.2201 -0.5943 -0.5103
   81CHL1  H26C 8470   3.320   5.628   8.508  1.2372 -0.9315  1.0468
   81CHL1   C27 8471   3.240   5.440   8.359 -0.3216  0.1444  0.5524
   81CHL1  H27A 8472   3.213   5.382   8.267 -2.0326  0.8457  0.5835
   81CHL1  H27B 8473   3.223   5.369   8.443 -3.4954 -0.6366 -0.6537
   81CHL1  H27C 8474   3.162   5.518   8.372 -1.4174 -0.1140 -3.6545
   82CHL1    C3 8475   4.169   0.502   7.077 -0.1015  0.1363 -0.7677
   82CHL1    H3 8476   4.209   0.398   7.076 -1.8973 -0.5918  0.9118
   82CHL1    O3 8477   4.188   0.568   6.958 -0.5386 -0.2184  0.2361
   82CHL1   H3' 8478   4.153   0.515   6.886  2.4906 -0.9327 -0.7864
   82CHL1    C4 8479   4.022   0.490   7.112  0.4034 -0.1902 -0.3545
   82CHL1   H4A 8480   3.988   0.596   7.117  2.0200  0.3252  0.2062
   82CHL1   H4B 8481   3.970   0.439   7.028 -0.7302 -1.4602  1.0888
   82CHL1    C5 8482   4.008   0.425   7.253 -0.7009  0.8177  0.3229
   82CHL1    C6 8483   3.944   0.306   7.270 -0.0673 -0.4927  0.7212
   82CHL1    H6 8484   3.897   0.264   7.179  1.9779  0.6250 -0.8962
   82CHL1    C7 8485   3.929   0.246   7.405 -0.0417 -0.0324 -0.4507
   82CHL1   H7A 8486   3.821   0.225   7.421 -0.0189 -0.6252 -1.0251
   82CHL1   H7B 8487   3.972   0.144   7.419 -1.9748 -0.9600 -1.0667
   82CHL1    C8 8488   3.960   0.348   7.521 -0.2687  0.3915  0.3374
   82CHL1    H8 8489   3.875   0.419   7.517 -1.1647 -0.6733  0.1524
   82CHL1   C14 8490   3.957   0.276   7.651 -0.3124  0.1094 -0.0615
   82CHL1   H14 8491   4.035   0.198   7.643 -0.4780 -0.1629  0.8273
   82CHL1   C15 8492   3.830   0.197   7.700 -0.3490 -0.9028  1.2086
   82CHL1  H15A 8493   3.740   0.252   7.667 -0.1414 -1.5402 -0.4986
   82CHL1  H15B 8494   3.847   0.099   7.650  4.3783 -0.5348  1.8602
   82CHL1   C16 8495   3.858   0.186   7.851  0.5372  0.1080 -0.2223
   82CHL1  H16A 8496   3.769   0.199   7.916 -0.0090  0.1423 -0.9740
   82CHL1  H16B 8497   3.890   0.080   7.865 -0.9176 -0.4047 -0.7302
   82CHL1   C17 8498   3.979   0.270   7.891 -0.0669 -0.3271  0.8661
   82CHL1   H17 8499   4.063   0.198   7.884  0.1598  0.0122  0.0182
   82CHL1   C13 8500   4.001   0.364   7.767 -0.6242  0.0622 -0.8170
   82CHL1   C18 8501   3.895   0.481   7.777  0.0420  0.5494  0.4536
   82CHL1  H18A 8502   3.924   0.550   7.859  2.2170 -0.3820  0.5107
   82CHL1  H18B 8503   3.878   0.544   7.687 -1.5289 -0.1260  0.2752
   82CHL1  H18C 8504   3.797   0.443   7.813  0.0326 -0.4325 -0.5581
   82CHL1   C12 8505   4.141   0.423   7.749  0.2916  0.2194  0.0540
   82CHL1  H12A 8506   4.181   0.485   7.832  2.5196 -0.1583 -0.6969
   82CHL1  H12B 8507   4.211   0.337   7.740  0.0948 -0.0875  1.3419
   82CHL1   C11 8508   4.154   0.497   7.620 -0.0480 -0.1916 -0.2473
   82CHL1  H11A 8509   4.090   0.586   7.639 -1.2424 -1.1877  0.4044
   82CHL1  H11B 8510   4.258   0.530   7.595 -0.6547  0.8551 -1.4527
   82CHL1    C9 8511   4.095   0.418   7.496  0.2414  0.4200  0.8288
   82CHL1    H9 8512   4.162   0.331   7.475 -1.9614 -0.6342 -2.1096
   82CHL1   C10 8513   4.088   0.497   7.366 -0.2753  0.8618  0.6208
   82CHL1   C19 8514   4.020   0.634   7.379  0.0764 -0.4338  0.0874
   82CHL1  H19A 8515   4.039   0.707   7.297 -1.0078  1.1762  1.2630
   82CHL1  H19B 8516   3.911   0.617   7.385 -0.0735 -0.9842 -3.3645
   82CHL1  H19C 8517   4.049   0.677   7.477  0.3939 -2.9701  1.1520
   82CHL1    C1 8518   4.238   0.525   7.319  0.6898  0.2625 -0.6753
   82CHL1   H1A 8519   4.279   0.603   7.387 -0.3065  0.5057 -0.3349
   82CHL1   H1B 8520   4.290   0.430   7.339  0.1089 -0.2712 -1.6745
   82CHL1    C2 8521   4.253   0.585   7.177  0.0527  0.3309  0.2202
   82CHL1   H2A 8522   4.362   0.596   7.157  0.3882 -0.9955  1.3113
   82CHL1   H2B 8523   4.209   0.687   7.184  0.8671  0.4924  4.2705
   82CHL1   C20 8524   3.965   0.314   8.042  0.7103 -0.2143 -0.0819
   82CHL1   H20 8525   3.867   0.368   8.045  1.0747  0.4413  0.1288
   82CHL1   C21 8526   4.066   0.421   8.072 -0.1319 -0.3670 -0.3487
   82CHL1  H21A 8527   4.053   0.507   8.003  2.3277  0.5868  0.3246
   82CHL1  H21B 8528   4.171   0.384   8.075  0.5950  1.6729  0.7394
   82CHL1  H21C 8529   4.050   0.458   8.176 -1.5152 -0.0906 -0.6511
   82CHL1   C22 8530   3.967   0.193   8.142 -0.2356 -0.0693  0.0500
   82CHL1  H22A 8531   3.906   0.105   8.111  0.0375 -0.6796  1.2280
   82CHL1  H22B 8532   4.073   0.160   8.142  0.5423  2.3030  1.7448
   82CHL1   C23 8533   3.943   0.221   8.295  0.6504  0.7200 -0.0751
   82CHL1  H23A 8534   3.947   0.131   8.359  2.5064 -0.5847 -1.9776
   82CHL1  H23B 8535   4.019   0.295   8.328  1.6533  0.2731 -1.3685
   82CHL1   C24 8536   3.803   0.282   8.316  0.2476  0.0209  0.0466
   82CHL1  H24A 8537   3.793   0.362   8.239 -0.4330 -0.0516  0.0605
   82CHL1  H24B 8538   3.725   0.205   8.304  0.1081 -0.1888  2.2077
   82CHL1   C25 8539   3.778   0.343   8.454 -0.2557 -0.1351  0.0269
   82CHL1   H25 8540   3.849   0.427   8.462 -1.4095  0.8517  0.0382
   82CHL1   C26 8541   3.650   0.414   8.478  0.1452  0.3853 -0.3224
   82CHL1  H26A 8542   3.565   0.342   8.471 -0.4649  0.7798  2.6025
   82CHL1  H26B 8543   3.641   0.470   8.573  1.7452 -1.0040  0.6708
   82CHL1  H26C 8544   3.637   0.495   8.403 -2.1787  0.9486  0.6548
   82CHL1   C27 8545   3.815   0.247   8.569  0.0141 -0.6303 -0.3588
   82CHL1  H27A 8546   3.742   0.164   8.568 -1.3545  0.4752  1.8658
   82CHL1  H27B 8547   3.915   0.206   8.546  0.1808 -1.9211  2.4297
   82CHL1  H27C 8548   3.797   0.289   8.671 -1.5459  1.5968 -1.5086
   83CHL1    C3 8549   0.245   1.881   7.027  0.9357 -0.2648  0.2406
   83CHL1    H3 8550   0.156   1.814   7.032  1.2314 -0.6014  1.0856
   83CHL1    O3 8551   0.270   1.951   6.911  0.2498 -0.4708 -0.3540
   83CHL1   H3' 8552   0.362   1.978   6.919  0.5698 -1.5262 -0.3263
   83CHL1    C4 8553   0.215   1.989   7.139  0.1251 -0.1721 -0.5859
   83CHL1   H4A 8554   0.292   2.069   7.144  0.0479 -0.1213 -0.1702
   83CHL1   H4B 8555   0.118   2.031   7.104 -2.5544 -1.0854  5.2221
   83CHL1    C5 8556   0.208   1.930   7.275  0.2950  0.2545  0.3843
   83CHL1    C6 8557   0.098   1.940   7.358  0.1063 -0.2180  1.0153
   83CHL1    H6 8558   0.012   1.999   7.322  0.8822  0.4139  0.1644
   83CHL1    C7 8559   0.094   1.908   7.503 -0.2763 -0.3016 -0.0046
   83CHL1   H7A 8560   0.057   1.997   7.556  1.6552  0.8200 -0.4778
   83CHL1   H7B 8561   0.017   1.828   7.513 -0.9244  0.1738 -1.1247
   83CHL1    C8 8562   0.238   1.866   7.552 -0.6016 -0.6219 -0.3832
   83CHL1    H8 8563   0.299   1.958   7.566 -0.8980 -0.6122  0.9193
   83CHL1   C14 8564   0.225   1.797   7.682  1.1866 -0.1314 -0.5118
   83CHL1   H14 8565   0.165   1.704   7.671 -0.0148  0.2507  2.4646
   83CHL1   C15 8566   0.157   1.866   7.800  0.1274  0.8241 -0.6968
   83CHL1  H15A 8567   0.175   1.975   7.812 -1.1096  1.2533 -2.5389
   83CHL1  H15B 8568   0.048   1.855   7.781  0.2458 -1.2927 -0.2211
   83CHL1   C16 8569   0.198   1.785   7.920  0.4414 -0.4652  0.4963
   83CHL1  H16A 8570   0.243   1.852   7.996 -0.8895  0.0422  0.8463
   83CHL1  H16B 8571   0.117   1.717   7.955 -0.5325  0.4920  0.1350
   83CHL1   C17 8572   0.315   1.699   7.880 -0.5113 -0.1290  0.3221
   83CHL1   H17 8573   0.270   1.600   7.860  1.1313  0.0167 -4.9965
   83CHL1   C13 8574   0.359   1.755   7.741 -0.1290 -0.3576 -0.7226
   83CHL1   C18 8575   0.465   1.867   7.754 -0.5564  0.5406  0.0504
   83CHL1  H18A 8576   0.561   1.822   7.786 -1.4729 -2.0199 -0.5756
   83CHL1  H18B 8577   0.484   1.932   7.666  1.4349  0.8391  0.6770
   83CHL1  H18C 8578   0.430   1.931   7.837  0.3157  2.8226 -1.3175
   83CHL1   C12 8579   0.410   1.648   7.646 -0.7329  0.7604 -0.1164
   83CHL1  H12A 8580   0.510   1.611   7.677 -1.1967 -0.2915  0.1410
   83CHL1  H12B 8581   0.343   1.559   7.654  0.2203  0.1105  0.8242
   83CHL1   C11 8582   0.428   1.693   7.502 -0.6037 -0.5128 -0.7306
   83CHL1  H11A 8583   0.520   1.754   7.516 -0.3906 -1.2645  1.4096
   83CHL1  H11B 8584   0.451   1.610   7.432 -1.6416 -1.9437  0.5951
   83CHL1    C9 8585   0.312   1.774   7.446 -0.4219  0.3662  0.3588
   83CHL1    H9 8586   0.247   1.687   7.424  2.9944 -2.1209 -0.3586
   83CHL1   C10 8587   0.336   1.849   7.316  0.7887  0.0431  0.7276
   83CHL1   C19 8588   0.460   1.926   7.334 -0.2261 -0.7786 -0.0093
   83CHL1  H19A 8589   0.554   1.869   7.354  1.8629  1.5937 -2.7185
   83CHL1  H19B 8590   0.475   1.986   7.242  1.1385 -0.2182  0.5583
   83CHL1  H19C 8591   0.455   1.998   7.419 -1.4114 -1.3537  0.4209
   83CHL1    C1 8592   0.366   1.742   7.197 -0.2760 -0.1559  0.2620
   83CHL1   H1A 8593   0.468   1.702   7.216  0.2836  1.4562  0.8277
   83CHL1   H1B 8594   0.291   1.662   7.214  0.8602 -1.1818  0.4990
   83CHL1    C2 8595   0.366   1.795   7.054  0.0418  0.0961 -0.6580
   83CHL1   H2A 8596   0.369   1.720   6.972  1.5193  1.8251 -2.2337
   83CHL1   H2B 8597   0.453   1.865   7.051  0.7908 -0.5730  2.9100
   83CHL1   C20 8598   0.423   1.667   7.990 -0.7356 -0.4390 -0.0599
   83CHL1   H20 8599   0.479   1.761   8.007  1.2581 -1.7314  0.6828
   83CHL1   C21 8600   0.511   1.552   7.945 -0.4148  0.2135  0.5008
   83CHL1  H21A 8601   0.575   1.587   7.861 -1.0974  0.3397  0.0288
   83CHL1  H21B 8602   0.453   1.460   7.918  1.8745 -0.8932 -0.8528
   83CHL1  H21C 8603   0.572   1.518   8.032  1.7113  1.7564 -0.3291
   83CHL1   C22 8604   0.344   1.637   8.128 -0.2896 -0.5301  0.0096
   83CHL1  H22A 8605   0.290   1.727   8.163  0.6650  0.5929 -1.3179
   83CHL1  H22B 8606   0.266   1.562   8.105 -1.6241  0.4314  1.3396
   83CHL1   C23 8607   0.438   1.607   8.242 -0.2017 -0.0199 -0.4197
   83CHL1  H23A 8608   0.494   1.512   8.224  2.4181  1.7202 -1.8018
   83CHL1  H23B 8609   0.512   1.688   8.256 -0.6381 -0.1206  2.6272
   83CHL1   C24 8610   0.362   1.581   8.368 -0.0943  0.3807  0.1663
   83CHL1  H24A 8611   0.319   1.680   8.394 -0.5259  0.3411 -0.3901
   83CHL1  H24B 8612   0.289   1.501   8.347  0.7338  0.0128 -1.3837
   83CHL1   C25 8613   0.457   1.530   8.487  0.8269  0.1051  0.0981
   83CHL1   H25 8614   0.509   1.436   8.458  1.7557 -0.3492  3.0650
   83CHL1   C26 8615   0.570   1.624   8.529 -0.3931  0.2210 -0.3393
   83CHL1  H26A 8616   0.538   1.718   8.579 -1.4180  0.0407 -0.6522
   83CHL1  H26B 8617   0.649   1.583   8.595 -0.3047  0.0670 -0.5404
   83CHL1  H26C 8618   0.634   1.659   8.445  1.0950 -1.5007  0.0402
   83CHL1   C27 8619   0.381   1.510   8.624 -0.4579  0.5294  1.0275
   83CHL1  H27A 8620   0.312   1.596   8.632 -0.6989  0.3690  0.6927
   83CHL1  H27B 8621   0.335   1.409   8.633 -0.7476  0.4454 -1.1763
   83CHL1  H27C 8622   0.448   1.524   8.711  0.2584 -2.1566  0.9391
   84CHL1    C3 8623   2.663   4.972   6.873 -0.1996  0.3033 -0.0526
   84CHL1    H3 8624   2.559   4.940   6.893 -0.0523 -1.1218 -1.4700
   84CHL1    O3 8625   2.707   4.952   6.738 -0.3792  0.0898  0.4113
   84CHL1   H3' 8626   2.656   5.009   6.680  2.2062 -0.5974 -2.6829
   84CHL1    C4 8627   2.693   5.110   6.921  0.7601  0.4978  0.4890
   84CHL1   H4A 8628   2.795   5.133   6.882  0.6177  0.1567 -0.0929
   84CHL1   H4B 8629   2.632   5.187   6.869  2.3369  1.1798 -0.4213
   84CHL1    C5 8630   2.676   5.130   7.071 -0.3294  0.0667 -1.2602
   84CHL1    C6 8631   2.602   5.222   7.124  0.4556 -0.4583  0.1691
   84CHL1    H6 8632   2.557   5.302   7.063  1.2325  1.2122  1.7339
   84CHL1    C7 8633   2.601   5.251   7.268  0.3224 -0.4727 -0.2278
   84CHL1   H7A 8634   2.632   5.357   7.280  1.8767 -0.8869 -0.5081
   84CHL1   H7B 8635   2.498   5.250   7.309 -0.3016  0.9277 -1.6988
   84CHL1    C8 8636   2.694   5.172   7.360  0.4059  0.5475 -0.3127
   84CHL1    H8 8637   2.793   5.222   7.362 -0.3446  2.0510 -0.1437
   84CHL1   C14 8638   2.665   5.172   7.505  0.1002 -0.9881 -0.0888
   84CHL1   H14 8639   2.572   5.112   7.514 -1.4281  1.1875 -0.9937
   84CHL1   C15 8640   2.641   5.302   7.580  0.3224  0.2234  0.4772
   84CHL1  H15A 8641   2.721   5.374   7.552 -1.0468  1.4619 -0.3006
   84CHL1  H15B 8642   2.540   5.338   7.550  0.5981 -1.2986 -2.5348
   84CHL1   C16 8643   2.632   5.257   7.727  0.0440  0.1657 -0.4331
   84CHL1  H16A 8644   2.677   5.330   7.797 -1.9593  1.3883 -0.4076
   84CHL1  H16B 8645   2.525   5.248   7.752 -0.0649 -1.0178 -1.2405
   84CHL1   C17 8646   2.695   5.113   7.730  0.2723 -0.4476  1.3998
   84CHL1   H17 8647   2.614   5.038   7.723 -1.5302  1.5312  0.5669
   84CHL1   C13 8648   2.767   5.102   7.590 -0.1786 -0.3557 -0.7704
   84CHL1   C18 8649   2.903   5.178   7.592 -0.4592 -0.5857 -0.2836
   84CHL1  H18A 8650   2.985   5.103   7.587  0.5802  0.5940 -1.4856
   84CHL1  H18B 8651   2.923   5.246   7.506  2.4297 -0.8272  0.1588
   84CHL1  H18C 8652   2.910   5.251   7.675 -0.7345 -3.1019  2.0293
   84CHL1   C12 8653   2.775   4.962   7.532  0.3817  0.1854 -0.3810
   84CHL1  H12A 8654   2.845   4.897   7.589  0.1481 -0.1454 -0.4688
   84CHL1  H12B 8655   2.673   4.916   7.533  0.8786 -1.0707 -3.2733
   84CHL1   C11 8656   2.825   4.967   7.392 -0.0194 -0.2058  0.3164
   84CHL1  H11A 8657   2.923   5.018   7.383  0.8050 -1.8401 -0.2309
   84CHL1  H11B 8658   2.847   4.868   7.346  1.8005  1.0106 -1.5165
   84CHL1    C9 8659   2.715   5.028   7.305  0.4704  0.0427  0.5748
   84CHL1    H9 8660   2.620   4.974   7.319  1.0632 -1.1877 -0.0794
   84CHL1   C10 8661   2.751   5.031   7.152 -0.0208 -0.7765 -0.3006
   84CHL1   C19 8662   2.899   5.065   7.138 -0.3157  0.4611 -0.0145
   84CHL1  H19A 8663   2.926   5.107   7.039 -0.7053  2.2820  0.6347
   84CHL1  H19B 8664   2.916   5.135   7.223 -3.2120 -0.2780  1.2400
   84CHL1  H19C 8665   2.949   4.968   7.159  2.7021  1.5585 -1.9012
   84CHL1    C1 8666   2.713   4.886   7.099  0.3351  0.5357 -0.5016
   84CHL1   H1A 8667   2.774   4.811   7.153 -3.3717 -0.1090  3.0646
   84CHL1   H1B 8668   2.608   4.857   7.119  0.4945  0.4132  0.1628
   84CHL1    C2 8669   2.749   4.874   6.952 -0.0139  0.2387 -0.5167
   84CHL1   H2A 8670   2.738   4.768   6.920 -0.6600 -0.0922  0.7525
   84CHL1   H2B 8671   2.856   4.895   6.932 -0.0062  0.6882 -0.0151
   84CHL1   C20 8672   2.779   5.095   7.856  0.5387 -0.6444 -0.5334
   84CHL1   H20 8673   2.856   5.174   7.866 -2.0323  2.2832 -2.9709
   84CHL1   C21 8674   2.841   4.957   7.868 -0.5752 -0.5482  0.6993
   84CHL1  H21A 8675   2.764   4.881   7.844  0.7584 -1.2321 -1.6294
   84CHL1  H21B 8676   2.885   4.925   7.965  0.2377 -0.4983  0.3575
   84CHL1  H21C 8677   2.921   4.935   7.793 -2.1434 -1.3321 -0.7794
   84CHL1   C22 8678   2.692   5.124   7.987  0.4350 -0.0712 -0.3807
   84CHL1  H22A 8679   2.646   5.224   7.969 -0.0996 -0.4134 -0.9681
   84CHL1  H22B 8680   2.611   5.048   7.993 -0.0125  0.2801 -1.6346
   84CHL1   C23 8681   2.781   5.132   8.118 -0.1220  0.7393  0.1905
   84CHL1  H23A 8682   2.837   5.037   8.134  1.4665  1.5562 -0.4126
   84CHL1  H23B 8683   2.852   5.215   8.101 -1.5674  1.6805 -1.3424
   84CHL1   C24 8684   2.695   5.167   8.241 -0.0488 -0.0032  0.5288
   84CHL1  H24A 8685   2.615   5.238   8.210  1.7064  3.2156  3.1031
   84CHL1  H24B 8686   2.636   5.075   8.263 -0.0723 -0.1775 -0.2435
   84CHL1   C25 8687   2.756   5.216   8.374  0.3545  0.5755  0.6324
   84CHL1   H25 8688   2.822   5.139   8.417 -0.0565 -0.0288  0.1910
   84CHL1   C26 8689   2.820   5.355   8.368 -0.1137 -0.2122 -0.2469
   84CHL1  H26A 8690   2.734   5.420   8.341 -0.6685 -1.3395 -1.2413
   84CHL1  H26B 8691   2.851   5.393   8.467  1.5499  0.5769 -1.0432
   84CHL1  H26C 8692   2.899   5.361   8.290  1.5592 -0.0448  1.4297
   84CHL1   C27 8693   2.631   5.225   8.467  0.3135 -0.4975  0.2968
   84CHL1  H27A 8694   2.558   5.286   8.410  0.5622 -0.8347 -0.3983
   84CHL1  H27B 8695   2.584   5.127   8.490 -4.1276  0.9710 -1.8961
   84CHL1  H27C 8696   2.654   5.278   8.562  0.8389 -0.5348  0.1905
   85CHL1    C3 8697   1.771   2.722   6.837  0.9015 -0.6470 -0.0251
   85CHL1    H3 8698   1.765   2.833   6.836  4.4333 -0.3891 -0.1929
   85CHL1    O3 8699   1.767   2.679   6.700  0.0946 -0.0203  0.2412
   85CHL1   H3' 8700   1.772   2.583   6.704  0.5526 -0.1033 -1.6349
   85CHL1    C4 8701   1.906   2.690   6.908  0.3929 -0.2938  0.0463
   85CHL1   H4A 8702   1.934   2.584   6.887 -0.4283 -0.3902 -0.6248
   85CHL1   H4B 8703   1.979   2.750   6.850  2.4310 -2.8610 -0.1515
   85CHL1    C5 8704   1.905   2.708   7.056 -0.0524  0.0676 -0.5294
   85CHL1    C6 8705   1.982   2.797   7.118 -0.5343 -0.3966  0.4217
   85CHL1    H6 8706   2.052   2.862   7.063 -0.9392 -1.2257 -1.1109
   85CHL1    C7 8707   1.985   2.809   7.267 -0.1883 -0.3831  0.0130
   85CHL1   H7A 8708   2.090   2.805   7.303 -0.4413 -2.9448  0.5670
   85CHL1   H7B 8709   1.939   2.903   7.305 -0.8185 -1.7717  2.7772
   85CHL1    C8 8710   1.909   2.696   7.348  0.7841 -0.0353 -0.6276
   85CHL1    H8 8711   1.972   2.605   7.340  0.4854 -0.4403  1.3330
   85CHL1   C14 8712   1.893   2.740   7.494 -0.3299  0.0173  0.5632
   85CHL1   H14 8713   1.833   2.832   7.480 -0.5511 -0.4466 -1.6485
   85CHL1   C15 8714   2.013   2.794   7.570  0.0560  0.9864 -0.6745
   85CHL1  H15A 8715   2.095   2.720   7.556 -0.8595  0.3061 -2.6962
   85CHL1  H15B 8716   2.051   2.892   7.534 -0.4728  1.3263 -0.3000
   85CHL1   C16 8717   1.963   2.782   7.716 -0.5840  0.1632  0.5098
   85CHL1  H16A 8718   2.040   2.733   7.780  0.1464  0.7970  0.1282
   85CHL1  H16B 8719   1.944   2.885   7.753 -3.3730 -0.0880 -0.0954
   85CHL1   C17 8720   1.823   2.718   7.713 -0.6319  0.0054  0.3029
   85CHL1   H17 8721   1.754   2.803   7.698 -0.1433  0.4107  0.3436
   85CHL1   C13 8722   1.827   2.637   7.573 -0.1520  0.3662 -0.3591
   85CHL1   C18 8723   1.910   2.509   7.590 -0.3651  0.0545  0.2146
   85CHL1  H18A 8724   1.858   2.447   7.667  1.3356 -1.7459 -0.0282
   85CHL1  H18B 8725   1.930   2.452   7.497  0.5502 -0.5019  0.7432
   85CHL1  H18C 8726   2.016   2.519   7.623  0.2294 -1.8761 -1.0046
   85CHL1   C12 8727   1.686   2.599   7.517  0.4380 -0.0159  0.5234
   85CHL1  H12A 8728   1.650   2.509   7.572  2.9873 -1.0838  0.5338
   85CHL1  H12B 8729   1.626   2.691   7.532 -2.7881 -1.8319 -0.6242
   85CHL1   C11 8730   1.700   2.563   7.361  0.0240 -0.3311 -0.6128
   85CHL1  H11A 8731   1.758   2.468   7.354  0.2795 -0.2689  0.5547
   85CHL1  H11B 8732   1.601   2.534   7.321 -0.5756 -1.5120  1.6351
   85CHL1    C9 8733   1.778   2.666   7.284  0.0945 -0.0727  0.0547
   85CHL1    H9 8734   1.713   2.756   7.281 -0.1657 -0.2871 -0.8736
   85CHL1   C10 8735   1.789   2.636   7.131 -0.4372  0.4807 -0.0299
   85CHL1   C19 8736   1.795   2.483   7.125 -0.9753  0.5792 -0.1858
   85CHL1  H19A 8737   1.701   2.430   7.152  0.0476 -1.0184  0.2555
   85CHL1  H19B 8738   1.824   2.446   7.024 -0.9908 -0.2328  0.1015
   85CHL1  H19C 8739   1.874   2.450   7.195  0.5916  0.9700 -1.7410
   85CHL1    C1 8740   1.659   2.682   7.059  0.2614  0.7157 -0.3962
   85CHL1   H1A 8741   1.571   2.632   7.105  0.7383 -0.5532 -0.8338
   85CHL1   H1B 8742   1.656   2.793   7.063 -0.1289  0.6668  1.4621
   85CHL1    C2 8743   1.652   2.662   6.912 -0.0432 -0.1758 -0.0268
   85CHL1   H2A 8744   1.552   2.698   6.879  0.5511  1.0125 -0.5588
   85CHL1   H2B 8745   1.664   2.553   6.898  1.7741 -0.0638  0.5949
   85CHL1   C20 8746   1.780   2.645   7.838  0.1716  0.1993 -0.9255
   85CHL1   H20 8747   1.831   2.548   7.857 -1.9845 -0.9836 -0.9585
   85CHL1   C21 8748   1.627   2.608   7.833 -0.2870  0.3601  0.0876
   85CHL1  H21A 8749   1.589   2.583   7.934 -0.5000  2.0697  0.4371
   85CHL1  H21B 8750   1.608   2.521   7.766  0.6236 -0.4950  0.9271
   85CHL1  H21C 8751   1.565   2.693   7.797 -0.2329 -0.6726 -2.5948
   85CHL1   C22 8752   1.817   2.727   7.968 -0.0592 -0.4722  0.3720
   85CHL1  H22A 8753   1.927   2.735   7.977 -0.2482  0.7832  1.7690
   85CHL1  H22B 8754   1.793   2.835   7.959 -2.5526 -1.1891 -2.8533
   85CHL1   C23 8755   1.778   2.663   8.097 -0.3452 -0.5742  0.4515
   85CHL1  H23A 8756   1.668   2.676   8.108 -0.4050  0.8808 -1.4980
   85CHL1  H23B 8757   1.789   2.553   8.089 -1.0840 -0.5914 -0.4530
   85CHL1   C24 8758   1.852   2.710   8.223  0.6146  1.0710 -0.1484
   85CHL1  H24A 8759   1.960   2.692   8.207 -0.0590 -1.9642 -1.5180
   85CHL1  H24B 8760   1.835   2.819   8.237  0.1300  1.0791 -0.7732
   85CHL1   C25 8761   1.801   2.647   8.357  0.1583 -0.3127  0.2279
   85CHL1   H25 8762   1.801   2.537   8.347  2.0405 -0.4879  2.0048
   85CHL1   C26 8763   1.899   2.680   8.464 -0.1408  0.3304 -0.5228
   85CHL1  H26A 8764   1.873   2.633   8.562  2.1787 -0.3058 -0.1842
   85CHL1  H26B 8765   1.998   2.642   8.430 -0.8520 -1.2967 -0.8333
   85CHL1  H26C 8766   1.903   2.790   8.473 -1.5279  0.3290  0.3189
   85CHL1   C27 8767   1.658   2.698   8.392 -0.0419 -0.2214  0.2721
   85CHL1  H27A 8768   1.587   2.685   8.307 -1.2042 -0.2581  1.2341
   85CHL1  H27B 8769   1.615   2.645   8.480  2.2897 -1.7976  0.5149
   85CHL1  H27C 8770   1.660   2.807   8.411 -4.2918  0.1023 -0.5890
   86CHL1    C3 8771   4.122   6.618   7.132  0.8223 -0.4569  0.1749
   86CHL1    H3 8772   4.075   6.517   7.135 -2.8527  1.1550 -0.3145
   86CHL1    O3 8773   4.097   6.683   7.006  0.0899  0.4598  0.4475
   86CHL1   H3' 8774   4.093   6.778   7.018  0.6549  0.6573 -0.8325
   86CHL1    C4 8775   4.042   6.714   7.229  0.7612 -0.6865 -0.0029
   86CHL1   H4A 8776   4.075   6.820   7.219  1.9983 -1.1690 -1.2831
   86CHL1   H4B 8777   3.939   6.722   7.190  1.2099 -1.4486 -1.3870
   86CHL1    C5 8778   4.046   6.653   7.367  0.2739 -0.4469 -0.0339
   86CHL1    C6 8779   3.932   6.615   7.426 -0.5427 -0.8208 -0.6175
   86CHL1    H6 8780   3.837   6.623   7.372 -0.6160  1.4502 -0.1915
   86CHL1    C7 8781   3.925   6.573   7.573 -0.0351 -0.3297 -0.2521
   86CHL1   H7A 8782   3.847   6.628   7.631  0.8575  2.3091 -1.4577
   86CHL1   H7B 8783   3.898   6.466   7.588 -0.7970 -0.0864  0.1370
   86CHL1    C8 8784   4.056   6.601   7.647  0.3612 -1.0680 -0.5634
   86CHL1    H8 8785   4.063   6.708   7.674 -1.6749 -1.8117  3.2545
   86CHL1   C14 8786   4.056   6.527   7.782 -0.1565 -0.0058 -0.0284
   86CHL1   H14 8787   4.039   6.420   7.756 -0.4511  0.4303 -1.6318
   86CHL1   C15 8788   3.945   6.573   7.882 -0.8331  0.2752 -0.0098
   86CHL1  H15A 8789   3.946   6.683   7.894 -1.6729  0.3129 -0.2938
   86CHL1  H15B 8790   3.841   6.544   7.859 -0.9219 -0.0753  0.8039
   86CHL1   C16 8791   4.000   6.512   8.011 -0.1644 -0.3070 -0.0907
   86CHL1  H16A 8792   3.982   6.589   8.088  1.2985 -0.8732  0.8309
   86CHL1  H16B 8793   3.949   6.420   8.046  1.6376 -1.0233  0.6921
   86CHL1   C17 8794   4.151   6.468   7.983 -0.1872  0.5886 -1.0366
   86CHL1   H17 8795   4.148   6.359   7.961 -0.2109  0.0847  1.3197
   86CHL1   C13 8796   4.188   6.546   7.858 -0.5788 -0.3574 -0.3889
   86CHL1   C18 8797   4.213   6.696   7.903  0.2316 -0.0992  0.2825
   86CHL1  H18A 8798   4.207   6.759   7.812  0.8191  0.7662  0.8423
   86CHL1  H18B 8799   4.133   6.728   7.974 -0.2109 -0.0289 -0.2407
   86CHL1  H18C 8800   4.313   6.708   7.948 -0.6870 -2.3238  3.0626
   86CHL1   C12 8801   4.306   6.490   7.773  0.2672 -0.1371 -0.1306
   86CHL1  H12A 8802   4.404   6.506   7.822 -0.1864 -1.0649  1.1017
   86CHL1  H12B 8803   4.297   6.382   7.749 -0.4115  0.3339 -2.1428
   86CHL1   C11 8804   4.312   6.563   7.640  0.6950 -0.9063 -0.2004
   86CHL1  H11A 8805   4.342   6.667   7.663  1.3303 -1.1201 -0.0393
   86CHL1  H11B 8806   4.390   6.510   7.581  1.7130  1.2990 -0.9102
   86CHL1    C9 8807   4.182   6.566   7.558  0.4345  0.4337  0.9003
   86CHL1    H9 8808   4.159   6.460   7.531 -0.5046  0.6131  1.0019
   86CHL1   C10 8809   4.185   6.648   7.425  0.4558  0.1805  0.2677
   86CHL1   C19 8810   4.234   6.794   7.457  0.8033 -0.4912 -0.8097
   86CHL1  H19A 8811   4.246   6.851   7.362 -0.3991  2.3869  0.6943
   86CHL1  H19B 8812   4.167   6.845   7.530  1.6947 -3.2308  2.0193
   86CHL1  H19C 8813   4.331   6.803   7.509  2.3514 -0.0808 -3.6852
   86CHL1    C1 8814   4.279   6.574   7.331  0.4579 -0.2694  1.3671
   86CHL1   H1A 8815   4.385   6.593   7.358  0.2701  1.0378  1.2216
   86CHL1   H1B 8816   4.269   6.464   7.336 -0.0702 -0.2407  1.0378
   86CHL1    C2 8817   4.265   6.618   7.184 -0.1136  0.6062  0.1899
   86CHL1   H2A 8818   4.323   6.555   7.113 -2.8599 -0.4323 -1.2028
   86CHL1   H2B 8819   4.297   6.721   7.159  0.4115  0.3471 -0.2233
   86CHL1   C20 8820   4.242   6.482   8.111 -0.5589 -0.1021  0.1835
   86CHL1   H20 8821   4.246   6.584   8.154  1.5152  0.8409 -2.1892
   86CHL1   C21 8822   4.388   6.439   8.083  0.7954 -0.1049  0.2106
   86CHL1  H21A 8823   4.380   6.350   8.017  1.0492  0.6827 -0.8934
   86CHL1  H21B 8824   4.429   6.406   8.181 -0.3239  0.8282  1.0066
   86CHL1  H21C 8825   4.454   6.514   8.035  0.4942  0.1967  0.2755
   86CHL1   C22 8826   4.178   6.403   8.232  0.3025 -0.6894 -0.3789
   86CHL1  H22A 8827   4.069   6.423   8.231  0.1976 -1.0731  1.0663
   86CHL1  H22B 8828   4.183   6.296   8.203 -0.2614 -0.9425  0.4446
   86CHL1   C23 8829   4.231   6.444   8.376  0.1705  0.7705  0.2846
   86CHL1  H23A 8830   4.342   6.436   8.373  0.0561 -0.4426 -1.2615
   86CHL1  H23B 8831   4.203   6.552   8.373 -0.0215  0.7241  0.4423
   86CHL1   C24 8832   4.161   6.354   8.481 -0.5981  0.3360  0.1778
   86CHL1  H24A 8833   4.057   6.337   8.447 -0.5401  0.0728  0.1310
   86CHL1  H24B 8834   4.217   6.258   8.485 -2.0084 -0.5791 -1.4010
   86CHL1   C25 8835   4.171   6.423   8.614 -0.3167 -0.1060  0.0101
   86CHL1   H25 8836   4.093   6.502   8.615 -1.0071 -0.7893  1.4896
   86CHL1   C26 8837   4.130   6.315   8.717  0.4958 -0.1398 -0.5195
   86CHL1  H26A 8838   4.214   6.243   8.724 -0.9259 -1.6812  1.4699
   86CHL1  H26B 8839   4.104   6.352   8.819 -0.4276  0.1802 -0.8605
   86CHL1  H26C 8840   4.039   6.266   8.676  0.1672 -1.7316  1.9639
   86CHL1   C27 8841   4.304   6.462   8.672  0.1722  0.6212 -0.3392
   86CHL1  H27A 8842   4.362   6.522   8.599 -0.7958 -1.0628 -2.5198
   86CHL1  H27B 8843   4.278   6.534   8.753 -1.6644 -1.4512  0.9770
   86CHL1  H27C 8844   4.369   6.384   8.716 -3.0427 -0.9958  1.8006
   87CHL1    C3 8845   4.386   4.730   6.969 -0.4334  0.1966  0.0203
   87CHL1    H3 8846   4.497   4.724   6.961 -0.5125  0.2364 -1.1435
   87CHL1    O3 8847   4.333   4.732   6.839 -0.1319 -0.0878  0.0634
   87CHL1   H3' 8848   4.241   4.708   6.848 -0.3417  0.8746  0.5459
   87CHL1    C4 8849   4.347   4.607   7.030  0.1583  0.8631  0.1112
   87CHL1   H4A 8850   4.239   4.584   7.033  0.5698 -1.2560 -0.0442
   87CHL1   H4B 8851   4.390   4.532   6.960 -0.5556  0.2303  0.3463
   87CHL1    C5 8852   4.404   4.595   7.175  0.2985 -0.1855 -0.1956
   87CHL1    C6 8853   4.494   4.502   7.218 -0.3838 -0.5657  0.3043
   87CHL1    H6 8854   4.538   4.421   7.159 -2.0462 -1.0067 -0.3616
   87CHL1    C7 8855   4.539   4.488   7.363  0.3141  0.5374 -0.1533
   87CHL1   H7A 8856   4.529   4.382   7.396  0.0919  0.6885  0.2699
   87CHL1   H7B 8857   4.647   4.511   7.376 -0.2342  3.0674  0.1909
   87CHL1    C8 8858   4.452   4.577   7.466  0.6106 -0.2807  0.8674
   87CHL1    H8 8859   4.357   4.520   7.468  0.9830 -0.8754  2.2543
   87CHL1   C14 8860   4.515   4.576   7.602 -0.2838 -0.0623 -0.0780
   87CHL1   H14 8861   4.617   4.619   7.595 -1.0335  1.9358  0.6061
   87CHL1   C15 8862   4.547   4.447   7.672 -0.1828 -0.4501  0.0711
   87CHL1  H15A 8863   4.454   4.389   7.656 -1.4609  1.7896 -0.8621
   87CHL1  H15B 8864   4.628   4.390   7.622 -0.8964 -1.3861 -0.0403
   87CHL1   C16 8865   4.570   4.489   7.810  0.2210 -0.3632 -0.1460
   87CHL1  H16A 8866   4.518   4.417   7.877 -2.0885  2.5664  1.2997
   87CHL1  H16B 8867   4.677   4.489   7.840  0.8116  1.7401 -2.1313
   87CHL1   C17 8868   4.531   4.638   7.823  0.2290 -0.5968 -0.2003
   87CHL1   H17 8869   4.626   4.686   7.794 -0.8165  0.9581 -1.1082
   87CHL1   C13 8870   4.439   4.660   7.700  0.1674  0.3523  0.4440
   87CHL1   C18 8871   4.293   4.612   7.741  0.0383 -0.5472  0.0890
   87CHL1  H18A 8872   4.246   4.679   7.817 -2.5258 -0.9313 -1.0858
   87CHL1  H18B 8873   4.222   4.621   7.656 -0.6397 -2.9804  0.3671
   87CHL1  H18C 8874   4.295   4.505   7.770 -0.4902 -0.6919 -0.4028
   87CHL1   C12 8875   4.434   4.803   7.644  0.6224 -0.5351 -0.2005
   87CHL1  H12A 8876   4.380   4.872   7.712 -1.3298 -1.6374 -0.5815
   87CHL1  H12B 8877   4.540   4.830   7.628  0.8277  0.0573  2.0686
   87CHL1   C11 8878   4.362   4.818   7.507  1.1045 -0.1084 -0.8013
   87CHL1  H11A 8879   4.253   4.801   7.523  1.3138 -0.4137  0.3638
   87CHL1  H11B 8880   4.370   4.923   7.473 -2.7113  1.1045  1.6770
   87CHL1    C9 8881   4.427   4.717   7.410  0.7617 -0.0356  0.0191
   87CHL1    H9 8882   4.533   4.745   7.391  0.5323  0.5981 -0.3468
   87CHL1   C10 8883   4.348   4.697   7.274  0.0659  0.3066 -0.3859
   87CHL1   C19 8884   4.201   4.671   7.303 -0.3118 -0.5154 -0.3239
   87CHL1  H19A 8885   4.189   4.589   7.378 -0.2643  0.6376  0.9723
   87CHL1  H19B 8886   4.146   4.756   7.349  0.2730 -1.2738  1.8320
   87CHL1  H19C 8887   4.147   4.651   7.208 -2.5967  0.0601  0.8209
   87CHL1    C1 8888   4.362   4.841   7.201 -0.5366  0.4877  0.1988
   87CHL1   H1A 8889   4.314   4.923   7.258 -1.9370 -1.3929  1.7791
   87CHL1   H1B 8890   4.470   4.869   7.201 -0.3535 -0.1763  1.9844
   87CHL1    C2 8891   4.331   4.851   7.048  0.9227 -0.1116 -0.0754
   87CHL1   H2A 8892   4.352   4.950   7.003 -1.0187  1.1300  1.6996
   87CHL1   H2B 8893   4.220   4.839   7.046  0.6827  1.6996  1.2439
   87CHL1   C20 8894   4.499   4.681   7.968  0.3258 -0.5052 -0.2077
   87CHL1   H20 8895   4.409   4.624   7.999 -1.2655  3.1489  2.2542
   87CHL1   C21 8896   4.459   4.827   7.975 -0.2820  0.2197  0.7625
   87CHL1  H21A 8897   4.362   4.844   7.924  0.7189 -0.4151 -1.4007
   87CHL1  H21B 8898   4.537   4.888   7.924 -0.1591 -1.9146 -1.7167
   87CHL1  H21C 8899   4.455   4.859   8.082  2.4845 -2.4823  1.7450
   87CHL1   C22 8900   4.621   4.652   8.058 -0.1209 -0.1148  0.1484
   87CHL1  H22A 8901   4.650   4.545   8.059  0.0792 -0.0711 -0.5339
   87CHL1  H22B 8902   4.708   4.707   8.015  0.8454 -2.8017 -1.4843
   87CHL1   C23 8903   4.608   4.686   8.204 -0.4505  0.1418  0.2159
   87CHL1  H23A 8904   4.580   4.790   8.229 -0.4887 -0.2334  1.7940
   87CHL1  H23B 8905   4.531   4.619   8.247 -2.2892 -0.5246 -3.8564
   87CHL1   C24 8906   4.742   4.652   8.269 -0.4235  0.9949 -0.4371
   87CHL1  H24A 8907   4.774   4.547   8.252 -0.1902  1.0970 -0.6288
   87CHL1  H24B 8908   4.807   4.732   8.229 -0.8843  3.4374  3.4480
   87CHL1   C25 8909   4.728   4.667   8.426 -0.4905  0.1011  0.7537
   87CHL1   H25 8910   4.646   4.599   8.459 -0.0740 -0.9014 -0.2560
   87CHL1   C26 8911   4.857   4.622   8.497  1.0903  0.3342  0.8686
   87CHL1  H26A 8912   4.931   4.594   8.420 -0.9034 -2.4868 -0.1296
   87CHL1  H26B 8913   4.905   4.703   8.556 -0.0211  1.6539 -0.0122
   87CHL1  H26C 8914   4.851   4.528   8.557  2.2630 -1.3239 -1.5218
   87CHL1   C27 8915   4.694   4.815   8.468  0.2081  0.1638  0.3174
   87CHL1  H27A 8916   4.669   4.813   8.577  0.4211 -0.6617  0.3563
   87CHL1  H27B 8917   4.779   4.882   8.445  0.9062 -1.1108 -0.8609
   87CHL1  H27C 8918   4.598   4.851   8.425  1.8109  1.2118 -2.4743
   88CHL1    C3 8919   1.709   3.632   6.889  0.0927  0.1839 -0.8429
   88CHL1    H3 8920   1.599   3.620   6.892  0.0094  0.8609 -1.1052
   88CHL1    O3 8921   1.753   3.630   6.755  0.0404 -0.1045  0.4438
   88CHL1   H3' 8922   1.848   3.631   6.752  0.0770 -0.5377  1.3671
   88CHL1    C4 8923   1.741   3.771   6.948  0.4564  0.4306 -0.1650
   88CHL1   H4A 8924   1.844   3.793   6.913  0.4810  1.0039  0.2479
   88CHL1   H4B 8925   1.661   3.835   6.905  0.2112 -0.7590 -1.5034
   88CHL1    C5 8926   1.731   3.780   7.103 -0.0559  0.2161 -0.3618
   88CHL1    C6 8927   1.675   3.880   7.172  0.1238  0.2670  0.7064
   88CHL1    H6 8928   1.623   3.962   7.121  3.8500  1.5304 -1.2831
   88CHL1    C7 8929   1.669   3.899   7.322  0.6973  0.0469  0.4111
   88CHL1   H7A 8930   1.703   4.002   7.347  4.3393 -0.8760 -0.4591
   88CHL1   H7B 8931   1.562   3.877   7.343  0.8957 -1.7866 -0.3840
   88CHL1    C8 8932   1.756   3.806   7.390 -0.2217  0.0894  0.3361
   88CHL1    H8 8933   1.855   3.857   7.391  0.4052 -0.9079 -2.8941
   88CHL1   C14 8934   1.720   3.796   7.539  0.8701  0.2560  1.2046
   88CHL1   H14 8935   1.622   3.745   7.543  0.5000  0.8799  0.3236
   88CHL1   C15 8936   1.699   3.926   7.616  0.2047  1.1947  0.4148
   88CHL1  H15A 8937   1.781   3.997   7.592  2.0782 -1.5590 -1.7191
   88CHL1  H15B 8938   1.603   3.974   7.587  0.8496  2.2002 -0.0759
   88CHL1   C16 8939   1.708   3.881   7.767  0.0355 -0.0605  0.0513
   88CHL1  H16A 8940   1.775   3.948   7.824  1.4430 -1.2228 -0.2057
   88CHL1  H16B 8941   1.605   3.896   7.805  0.0502 -3.8803  1.7936
   88CHL1   C17 8942   1.754   3.737   7.770 -0.1265 -0.2281  0.9447
   88CHL1   H17 8943   1.662   3.674   7.777 -1.0888  1.0340 -0.0718
   88CHL1   C13 8944   1.813   3.718   7.628 -0.6078  0.0305 -0.8198
   88CHL1   C18 8945   1.955   3.791   7.629  1.2550  0.0948  0.0775
   88CHL1  H18A 8946   2.032   3.728   7.679  0.0856 -1.3249  0.1300
   88CHL1  H18B 8947   1.997   3.821   7.531 -0.7335  1.0617 -0.5056
   88CHL1  H18C 8948   1.954   3.895   7.668  0.8439 -0.3916  1.3894
   88CHL1   C12 8949   1.828   3.580   7.569  0.7349  0.6691  0.5210
   88CHL1  H12A 8950   1.904   3.510   7.610  0.3124  0.8956  1.7093
   88CHL1  H12B 8951   1.728   3.532   7.563  0.2036  1.9471 -0.9974
   88CHL1   C11 8952   1.865   3.584   7.415  0.9242  0.4529  0.0844
   88CHL1  H11A 8953   1.967   3.626   7.405  0.6503  1.4212  1.1798
   88CHL1  H11B 8954   1.862   3.480   7.375 -1.2501  0.6466 -0.3599
   88CHL1    C9 8955   1.765   3.668   7.328 -0.7853 -0.3508  0.5745
   88CHL1    H9 8956   1.664   3.623   7.338 -0.9817  0.1418  0.7969
   88CHL1   C10 8957   1.798   3.665   7.172 -0.5131 -0.1643  0.5085
   88CHL1   C19 8958   1.947   3.697   7.146 -0.1345 -0.8195  0.0087
   88CHL1  H19A 8959   2.009   3.614   7.186 -0.0789 -1.6118 -1.7036
   88CHL1  H19B 8960   1.974   3.702   7.039 -1.2004 -0.2632 -0.2381
   88CHL1  H19C 8961   1.987   3.792   7.189 -1.0777 -0.7493  0.7611
   88CHL1    C1 8962   1.754   3.531   7.111 -0.2608  0.2051  0.1487
   88CHL1   H1A 8963   1.812   3.446   7.152 -1.1120 -0.2684  0.3900
   88CHL1   H1B 8964   1.646   3.515   7.133 -0.8883  2.9918 -0.6299
   88CHL1    C2 8965   1.778   3.515   6.967 -0.2943 -0.8661  0.5746
   88CHL1   H2A 8966   1.734   3.425   6.921  0.8907 -1.4344  0.5417
   88CHL1   H2B 8967   1.887   3.528   6.948 -0.9023  0.8509 -2.1429
   88CHL1   C20 8968   1.836   3.700   7.893  0.3137 -0.0075 -1.0445
   88CHL1   H20 8969   1.920   3.773   7.896  0.4330 -0.1857  0.2479
   88CHL1   C21 8970   1.892   3.558   7.897  0.4725  0.1561  0.4408
   88CHL1  H21A 8971   1.945   3.535   7.992 -1.9817 -1.4340  1.4763
   88CHL1  H21B 8972   1.969   3.539   7.819 -0.8107 -2.1749 -0.3051
   88CHL1  H21C 8973   1.815   3.480   7.881  1.3844 -0.7495  0.4152
   88CHL1   C22 8974   1.751   3.739   8.021  0.0067 -0.7601 -0.4230
   88CHL1  H22A 8975   1.774   3.847   8.028  0.3503 -0.9552  1.6114
   88CHL1  H22B 8976   1.641   3.732   8.006 -0.5610 -2.5531  3.7954
   88CHL1   C23 8977   1.788   3.692   8.163 -0.0946 -0.1383  0.9108
   88CHL1  H23A 8978   1.779   3.582   8.174 -0.3120 -0.5614 -2.8524
   88CHL1  H23B 8979   1.887   3.742   8.173  0.5210 -1.0724 -0.4000
   88CHL1   C24 8980   1.698   3.757   8.270 -0.4478  0.2864 -0.1844
   88CHL1  H24A 8981   1.658   3.853   8.231  1.3592  0.8286 -0.7763
   88CHL1  H24B 8982   1.609   3.693   8.289  0.0759  0.0558  1.5813
   88CHL1   C25 8983   1.772   3.789   8.402 -0.0367  0.1571 -0.0776
   88CHL1   H25 8984   1.862   3.851   8.379  0.9678 -1.2219  0.0705
   88CHL1   C26 8985   1.680   3.869   8.496  0.4146  0.0113 -0.1773
   88CHL1  H26A 8986   1.745   3.923   8.569  1.9873  0.2313 -1.6891
   88CHL1  H26B 8987   1.622   3.944   8.439  0.2573  0.2380  0.2819
   88CHL1  H26C 8988   1.611   3.803   8.553  1.9240 -0.7996  0.7579
   88CHL1   C27 8989   1.827   3.659   8.469  1.1102 -0.8971 -0.1058
   88CHL1  H27A 8990   1.733   3.602   8.488 -1.1286  2.4709 -0.5366
   88CHL1  H27B 8991   1.905   3.603   8.415  0.3528 -0.4964 -1.6646
   88CHL1  H27C 8992   1.864   3.692   8.568  1.7556  0.1395 -0.6851
   89CHL1    C3 8993   4.938   6.622   7.030  0.0751  0.2563  0.3710
   89CHL1    H3 8994   5.005   6.534   7.041  0.4614  0.1624 -2.2808
   89CHL1    O3 8995   4.928   6.656   6.889 -0.1472  0.3376  0.2850
   89CHL1   H3' 8996   4.867   6.729   6.885 -0.2765  0.2288  0.2859
   89CHL1    C4 8997   4.796   6.591   7.080 -0.3468 -0.2201  0.2802
   89CHL1   H4A 8998   4.731   6.680   7.068  0.2278  0.1741  0.0842
   89CHL1   H4B 8999   4.754   6.514   7.013 -0.0765  2.0180 -2.5474
   89CHL1    C5 9000   4.798   6.545   7.226  0.3152  0.1784 -0.1860
   89CHL1    C6 9001   4.752   6.423   7.257  0.2651  0.6487  0.0146
   89CHL1    H6 9002   4.714   6.358   7.177  0.3385  0.7965 -0.1389
   89CHL1    C7 9003   4.770   6.366   7.396 -0.5535  0.2291 -0.5571
   89CHL1   H7A 9004   4.694   6.290   7.423  0.9625 -0.2019  2.7940
   89CHL1   H7B 9005   4.865   6.308   7.394 -0.2956  0.6020  0.3723
   89CHL1    C8 9006   4.763   6.489   7.500  0.0706  0.3351 -0.2071
   89CHL1    H8 9007   4.664   6.536   7.484 -0.0668  0.0906 -0.0888
   89CHL1   C14 9008   4.772   6.439   7.639 -0.1431 -0.3590 -0.2237
   89CHL1   H14 9009   4.865   6.377   7.638 -0.4625 -0.8408 -2.1296
   89CHL1   C15 9010   4.671   6.337   7.696  0.7584  0.1669 -0.4410
   89CHL1  H15A 9011   4.567   6.370   7.676  1.5361  1.7097 -2.2189
   89CHL1  H15B 9012   4.688   6.231   7.667 -2.5167 -0.9825  1.5656
   89CHL1   C16 9013   4.684   6.353   7.849  0.5078  0.9209 -0.2943
   89CHL1  H16A 9014   4.583   6.385   7.882  1.7312  1.1884  3.3402
   89CHL1  H16B 9015   4.707   6.253   7.890 -0.3659  0.4412 -0.9486
   89CHL1   C17 9016   4.793   6.460   7.879 -0.2252 -0.1873 -1.0446
   89CHL1   H17 9017   4.882   6.394   7.871 -1.1277 -1.7345  1.1785
   89CHL1   C13 9018   4.797   6.548   7.748 -0.3754 -0.0856 -0.6096
   89CHL1   C18 9019   4.683   6.646   7.752  0.4623 -0.4642  0.0267
   89CHL1  H18A 9020   4.635   6.666   7.654  0.8903 -0.1936 -0.1331
   89CHL1  H18B 9021   4.610   6.621   7.831  1.4816 -0.3520  1.0185
   89CHL1  H18C 9022   4.725   6.740   7.796 -0.1276 -0.3947  0.4462
   89CHL1   C12 9023   4.922   6.624   7.716 -0.5109  0.2144 -0.4643
   89CHL1  H12A 9024   4.958   6.688   7.800 -2.5834  0.8860 -0.0369
   89CHL1  H12B 9025   4.999   6.545   7.707 -1.2460 -0.9964  2.9406
   89CHL1   C11 9026   4.911   6.690   7.576 -0.1827  0.2228 -0.3502
   89CHL1  H11A 9027   4.833   6.769   7.581  0.8986  1.2689  0.2326
   89CHL1  H11B 9028   5.009   6.736   7.550  0.9011 -1.0168  1.4321
   89CHL1    C9 9029   4.878   6.586   7.464  0.2051 -0.1785  0.4644
   89CHL1    H9 9030   4.967   6.519   7.457  0.6665  0.5855 -1.6681
   89CHL1   C10 9031   4.863   6.645   7.319 -0.0986  0.6172 -0.4975
   89CHL1   C19 9032   4.756   6.762   7.323 -0.0643  0.1821 -0.3101
   89CHL1  H19A 9033   4.784   6.843   7.393 -0.4147  0.7368 -0.8102
   89CHL1  H19B 9034   4.738   6.821   7.231 -2.1421 -1.7601 -1.1999
   89CHL1  H19C 9035   4.655   6.720   7.342  0.7478 -2.8676 -2.2678
   89CHL1    C1 9036   5.000   6.696   7.264 -0.0682  0.0317 -0.4689
   89CHL1   H1A 9037   5.046   6.780   7.320 -1.1214 -0.3322  0.9465
   89CHL1   H1B 9038   5.065   6.606   7.256 -1.8944 -1.3705  0.3553
   89CHL1    C2 9039   4.993   6.739   7.113 -0.0359 -0.1185 -0.1419
   89CHL1   H2A 9040   5.097   6.754   7.076 -0.5698 -1.3584 -2.1932
   89CHL1   H2B 9041   4.930   6.830   7.101  1.8931  1.2450 -0.1600
   89CHL1   C20 9042   4.789   6.520   8.025 -0.0635 -0.0475 -0.6576
   89CHL1   H20 9043   4.694   6.577   8.029 -1.1118 -1.7003 -1.5627
   89CHL1   C21 9044   4.908   6.616   8.058  0.0560 -0.5990  0.4018
   89CHL1  H21A 9045   4.901   6.712   8.003 -2.5814 -0.1606  1.4015
   89CHL1  H21B 9046   5.010   6.582   8.033 -1.2220 -3.1783 -1.4761
   89CHL1  H21C 9047   4.910   6.648   8.165  0.9937  3.0146 -0.6088
   89CHL1   C22 9048   4.795   6.419   8.138 -0.5755  0.4568  0.0380
   89CHL1  H22A 9049   4.710   6.349   8.125 -0.0788 -0.0283 -0.6197
   89CHL1  H22B 9050   4.886   6.356   8.137 -0.1614  1.0467 -3.0449
   89CHL1   C23 9051   4.790   6.468   8.287  0.2824  0.1109  0.0985
   89CHL1  H23A 9052   4.893   6.497   8.318  0.6329 -0.5776 -0.4019
   89CHL1  H23B 9053   4.727   6.559   8.282 -1.7642 -1.3815 -2.5157
   89CHL1   C24 9054   4.722   6.364   8.381 -0.4871  0.0123  0.6822
   89CHL1  H24A 9055   4.632   6.332   8.325 -0.9349  0.5476  1.0940
   89CHL1  H24B 9056   4.790   6.276   8.379 -2.2104 -1.4119  2.6227
   89CHL1   C25 9057   4.689   6.408   8.526  0.0395  0.5555 -0.0367
   89CHL1   H25 9058   4.613   6.487   8.514  1.4714  1.8327 -0.8449
   89CHL1   C26 9059   4.622   6.302   8.612 -0.8856  0.6341  0.0199
   89CHL1  H26A 9060   4.674   6.205   8.625 -0.2012  0.9214 -0.5993
   89CHL1  H26B 9061   4.603   6.342   8.714  0.2734  0.8512  0.1567
   89CHL1  H26C 9062   4.528   6.271   8.561 -1.4337  0.3612  1.1691
   89CHL1   C27 9063   4.807   6.461   8.601 -0.1754 -0.2902  0.0845
   89CHL1  H27A 9064   4.788   6.475   8.709  2.7138 -1.1484  0.7374
   89CHL1  H27B 9065   4.896   6.395   8.593  0.9365  1.2894 -1.1520
   89CHL1  H27C 9066   4.836   6.565   8.573 -0.6198 -0.5824 -1.5314
   90CHL1    C3 9067   4.495   1.196   7.015  0.6577  0.9858 -0.2077
   90CHL1    H3 9068   4.467   1.296   7.055 -0.5002 -0.0280  1.5886
   90CHL1    O3 9069   4.530   1.202   6.882  0.4163  0.3549 -0.3769
   90CHL1   H3' 9070   4.455   1.180   6.827  0.2784 -2.7319  0.9262
   90CHL1    C4 9071   4.608   1.135   7.099  0.3117  0.0344 -0.1382
   90CHL1   H4A 9072   4.655   1.051   7.043  3.1907  0.6542  1.2658
   90CHL1   H4B 9073   4.691   1.208   7.091  1.7081 -1.4414  0.6261
   90CHL1    C5 9074   4.583   1.089   7.243  0.3964 -0.0101 -0.4509
   90CHL1    C6 9075   4.663   1.130   7.344 -0.2002  0.4065 -0.1177
   90CHL1    H6 9076   4.747   1.196   7.316  0.7537 -0.0185  1.6438
   90CHL1    C7 9077   4.628   1.113   7.491  0.1326 -0.0901  0.2602
   90CHL1   H7A 9078   4.722   1.096   7.549  0.1639 -0.2044  0.1768
   90CHL1   H7B 9079   4.588   1.206   7.537  3.0946  0.1705  2.4720
   90CHL1    C8 9080   4.523   1.002   7.508 -0.5908  0.4376 -0.4020
   90CHL1    H8 9081   4.571   0.902   7.501 -1.6678 -0.0366 -1.2915
   90CHL1   C14 9082   4.464   1.015   7.651  0.4148 -0.0124 -0.6940
   90CHL1   H14 9083   4.415   1.114   7.659  0.8702  0.3263 -1.9511
   90CHL1   C15 9084   4.554   1.019   7.778  0.9296  0.3948  0.1562
   90CHL1  H15A 9085   4.638   0.946   7.789  0.4860 -0.3220 -1.1168
   90CHL1  H15B 9086   4.591   1.123   7.786  0.5191  0.4761  1.0561
   90CHL1   C16 9087   4.459   0.985   7.898 -0.2455 -0.3601  0.6430
   90CHL1  H16A 9088   4.502   0.902   7.958  2.6753  0.8304  0.2785
   90CHL1  H16B 9089   4.430   1.069   7.965 -0.0741 -1.0657  1.6150
   90CHL1   C17 9090   4.327   0.940   7.839 -0.3540 -0.0861 -0.3587
   90CHL1   H17 9091   4.273   1.036   7.826  1.0794  0.9131  0.8553
   90CHL1   C13 9092   4.358   0.914   7.687 -0.3256  0.2387  0.3036
   90CHL1   C18 9093   4.423   0.770   7.686 -0.0793  0.5073  0.3968
   90CHL1  H18A 9094   4.346   0.697   7.717  0.7800 -0.1040  1.1020
   90CHL1  H18B 9095   4.463   0.744   7.586 -2.9726 -1.0390 -0.4007
   90CHL1  H18C 9096   4.513   0.770   7.752 -1.3170  1.3549  2.1351
   90CHL1   C12 9097   4.243   0.935   7.586 -0.2611  0.0327 -0.2720
   90CHL1  H12A 9098   4.160   0.861   7.588 -1.4982  1.3027 -2.0260
   90CHL1  H12B 9099   4.200   1.038   7.596 -0.0095  0.1091  0.0272
   90CHL1   C11 9100   4.295   0.924   7.441  0.0950 -0.5771 -0.7268
   90CHL1  H11A 9101   4.326   0.819   7.423 -2.7344 -1.3686 -1.3239
   90CHL1  H11B 9102   4.201   0.940   7.383 -0.6617  0.1952  0.6899
   90CHL1    C9 9103   4.410   1.019   7.410 -0.4503 -0.0748 -0.0390
   90CHL1    H9 9104   4.377   1.120   7.442 -1.7335 -0.4653 -0.1169
   90CHL1   C10 9105   4.452   1.017   7.266 -0.5333  0.9025 -0.5157
   90CHL1   C19 9106   4.469   0.871   7.229  0.1145  0.0954 -0.1831
   90CHL1  H19A 9107   4.368   0.825   7.225  1.0655 -2.4326  2.7105
   90CHL1  H19B 9108   4.516   0.858   7.130 -0.3908  0.9677 -0.5408
   90CHL1  H19C 9109   4.544   0.824   7.296  1.1452  0.1285 -1.3067
   90CHL1    C1 9110   4.338   1.086   7.186 -0.1401 -0.0750 -0.6029
   90CHL1   H1A 9111   4.247   1.024   7.201 -0.3020 -0.7515 -4.0210
   90CHL1   H1B 9112   4.320   1.186   7.233 -2.3435  0.2442 -2.0581
   90CHL1    C2 9113   4.373   1.103   7.038  0.3600  0.2331 -0.3480
   90CHL1   H2A 9114   4.279   1.139   6.990 -0.4320 -0.5376  0.6149
   90CHL1   H2B 9115   4.392   1.003   6.995  0.6368  1.0469 -2.1521
   90CHL1   C20 9116   4.253   0.835   7.921  0.1473 -0.9221  0.7746
   90CHL1   H20 9117   4.316   0.743   7.918  0.9392 -0.3624 -0.3367
   90CHL1   C21 9118   4.120   0.802   7.854 -0.2760 -0.0864  0.4655
   90CHL1  H21A 9119   4.061   0.896   7.849 -1.5089 -0.8607  0.1521
   90CHL1  H21B 9120   4.065   0.723   7.910 -0.9183 -0.3244 -0.5022
   90CHL1  H21C 9121   4.134   0.763   7.751 -2.4154  0.9192 -0.2221
   90CHL1   C22 9122   4.239   0.869   8.073 -0.4807 -0.2138 -0.0438
   90CHL1  H22A 9123   4.340   0.898   8.110 -1.3608  0.5902  1.8155
   90CHL1  H22B 9124   4.169   0.955   8.081 -0.8541 -0.4181 -1.1113
   90CHL1   C23 9125   4.175   0.757   8.155 -1.1023  0.0216  0.1319
   90CHL1  H23A 9126   4.069   0.763   8.125 -0.9510  0.7151 -0.2961
   90CHL1  H23B 9127   4.221   0.662   8.121 -0.1591  0.1892  0.9271
   90CHL1   C24 9128   4.186   0.772   8.311  0.1714 -0.2557 -0.3388
   90CHL1  H24A 9129   4.290   0.787   8.347 -0.5003 -1.0188  1.9706
   90CHL1  H24B 9130   4.121   0.859   8.332 -0.1941  0.0028 -2.4220
   90CHL1   C25 9131   4.137   0.645   8.383 -0.2390  0.1998 -0.5337
   90CHL1   H25 9132   4.041   0.608   8.341 -2.0305  3.5116  0.4775
   90CHL1   C26 9133   4.240   0.528   8.382 -0.1796 -0.5055 -0.7293
   90CHL1  H26A 9134   4.276   0.503   8.280 -0.2914 -2.8931 -0.2225
   90CHL1  H26B 9135   4.334   0.548   8.437  0.3657  1.0976 -2.1694
   90CHL1  H26C 9136   4.198   0.437   8.430 -1.9356 -0.2931 -1.7787
   90CHL1   C27 9137   4.113   0.667   8.535 -0.8057 -0.5703  0.1633
   90CHL1  H27A 9138   4.052   0.760   8.542 -0.9177 -0.6460  0.1929
   90CHL1  H27B 9139   4.042   0.591   8.574 -1.5383  0.4579  0.8706
   90CHL1  H27C 9140   4.207   0.671   8.594 -2.8228  3.3180  3.4173
   91CHL1    C3 9141   6.159   2.406   7.217  0.1753 -0.7527 -0.2590
   91CHL1    H3 9142   6.260   2.362   7.228  0.2156 -0.7520 -0.6287
   91CHL1    O3 9143   6.155   2.478   7.092 -0.2125 -0.3739 -0.4724
   91CHL1   H3' 9144   6.105   2.421   7.033 -0.2752 -0.3918 -0.4024
   91CHL1    C4 9145   6.062   2.288   7.229 -0.8557 -0.8457  0.1663
   91CHL1   H4A 9146   5.959   2.322   7.204  0.0315  1.7676 -0.0715
   91CHL1   H4B 9147   6.077   2.227   7.137  1.2329 -1.4555  0.8942
   91CHL1    C5 9148   6.069   2.221   7.364  0.6530 -0.0417  0.6730
   91CHL1    C6 9149   6.099   2.092   7.372  0.0808 -0.3100  0.2207
   91CHL1    H6 9150   6.122   2.035   7.281 -1.0454 -1.0591  0.4072
   91CHL1    C7 9151   6.108   2.013   7.497  0.2966 -0.5671 -0.0414
   91CHL1   H7A 9152   6.049   1.919   7.493 -1.4766  0.5083  0.5191
   91CHL1   H7B 9153   6.210   1.978   7.525  1.1683  0.9795 -1.1985
   91CHL1    C8 9154   6.051   2.086   7.622  0.5999 -0.3123 -0.2353
   91CHL1    H8 9155   5.940   2.081   7.614  0.5666  0.9218 -0.6021
   91CHL1   C14 9156   6.073   2.009   7.752  0.5836  0.4949  0.8689
   91CHL1   H14 9157   6.183   2.013   7.766  0.6021 -0.3182  0.9544
   91CHL1   C15 9158   6.031   1.863   7.767 -0.3582 -0.2103  0.0329
   91CHL1  H15A 9159   5.930   1.862   7.721  1.0390  0.2940 -3.1140
   91CHL1  H15B 9160   6.095   1.787   7.717 -1.2208  0.3640 -1.9941
   91CHL1   C16 9161   6.033   1.841   7.924 -0.0144 -0.2308  0.1733
   91CHL1  H16A 9162   5.932   1.811   7.959  0.8971 -1.4373  1.8498
   91CHL1  H16B 9163   6.111   1.764   7.944 -1.3150 -1.2310  1.5776
   91CHL1   C17 9164   6.057   1.986   7.979  0.2520 -0.1223 -0.1227
   91CHL1   H17 9165   6.166   2.002   7.992  0.4962 -1.3916 -0.5350
   91CHL1   C13 9166   6.022   2.086   7.869 -0.4831 -0.1015  0.2071
   91CHL1   C18 9167   5.868   2.100   7.869 -0.2060  0.4294 -0.2838
   91CHL1  H18A 9168   5.823   2.176   7.802  1.3983  0.8607 -0.9036
   91CHL1  H18B 9169   5.823   2.002   7.843 -2.0769  2.1100 -3.7008
   91CHL1  H18C 9170   5.824   2.130   7.967 -0.2034  0.9089 -0.4263
   91CHL1   C12 9171   6.104   2.223   7.874  0.0848 -0.6880  0.1448
   91CHL1  H12A 9172   6.084   2.281   7.966 -1.6200 -0.5543 -0.2925
   91CHL1  H12B 9173   6.211   2.194   7.873 -0.1556 -1.5602 -0.4141
   91CHL1   C11 9174   6.073   2.316   7.752  1.8913 -0.8940  0.5366
   91CHL1  H11A 9175   5.971   2.360   7.749  1.9340 -0.6665  2.1379
   91CHL1  H11B 9176   6.148   2.397   7.742 -1.0562  1.6279 -2.3554
   91CHL1    C9 9177   6.099   2.233   7.622  0.6656 -0.7920 -0.3272
   91CHL1    H9 9178   6.209   2.218   7.612  0.7367 -1.5485  1.3388
   91CHL1   C10 9179   6.050   2.309   7.491 -0.1333 -0.4355 -0.6579
   91CHL1   C19 9180   5.907   2.362   7.505 -0.3411 -0.1816  0.1912
   91CHL1  H19A 9181   5.918   2.466   7.541  1.4295 -0.4614  0.4938
   91CHL1  H19B 9182   5.858   2.364   7.404 -0.9082 -0.4826  0.4561
   91CHL1  H19C 9183   5.843   2.303   7.574 -1.6762  0.8069 -0.1745
   91CHL1    C1 9184   6.151   2.429   7.474  0.7702 -0.3925  0.0440
   91CHL1   H1A 9185   6.127   2.509   7.548  0.2743 -1.9092  1.5434
   91CHL1   H1B 9186   6.256   2.392   7.480  0.8193  0.1074  2.9148
   91CHL1    C2 9187   6.151   2.500   7.337  0.1426  0.1726 -0.2180
   91CHL1   H2A 9188   6.239   2.568   7.340  0.5546 -0.3146 -0.9191
   91CHL1   H2B 9189   6.056   2.558   7.336 -1.0485 -1.7183  0.9874
   91CHL1   C20 9190   6.012   2.001   8.126 -0.3478 -0.3444  0.1157
   91CHL1   H20 9191   5.901   1.998   8.129 -0.5817  1.2363 -3.7730
   91CHL1   C21 9192   6.047   2.142   8.180  0.2695  0.8015  0.4271
   91CHL1  H21A 9193   5.980   2.225   8.147 -0.8298  0.3082  1.3554
   91CHL1  H21B 9194   6.156   2.152   8.161  0.5237 -2.1745  0.0488
   91CHL1  H21C 9195   6.030   2.128   8.289  0.6771 -0.1424  0.3665
   91CHL1   C22 9196   6.058   1.892   8.224 -0.0547  0.0944  0.3407
   91CHL1  H22A 9197   6.019   1.907   8.327 -0.6203  2.4491 -0.1734
   91CHL1  H22B 9198   6.021   1.793   8.191 -0.0945 -0.4975  2.1133
   91CHL1   C23 9199   6.215   1.877   8.228  0.0649  0.6330 -0.1460
   91CHL1  H23A 9200   6.249   1.825   8.136  1.2199 -1.0649  1.2045
   91CHL1  H23B 9201   6.264   1.976   8.224  2.4644 -0.5550 -1.2732
   91CHL1   C24 9202   6.264   1.792   8.354  0.7578  1.4232  0.3862
   91CHL1  H24A 9203   6.372   1.785   8.329  0.6882 -1.1811  0.7296
   91CHL1  H24B 9204   6.238   1.851   8.445 -1.9706 -0.8289  1.1330
   91CHL1   C25 9205   6.199   1.651   8.373  0.0774 -0.2957  0.5155
   91CHL1   H25 9206   6.092   1.667   8.400 -0.4405  0.0254 -1.5748
   91CHL1   C26 9207   6.204   1.562   8.246  0.0190  0.0781  0.2504
   91CHL1  H26A 9208   6.181   1.457   8.277 -1.0341 -0.5582 -2.5392
   91CHL1  H26B 9209   6.130   1.595   8.171 -0.7836  1.7604  1.7531
   91CHL1  H26C 9210   6.304   1.559   8.197 -0.9593  2.5390 -1.9797
   91CHL1   C27 9211   6.264   1.576   8.490  0.3553 -0.1376  0.1218
   91CHL1  H27A 9212   6.211   1.478   8.497  0.1553  0.0652  1.6719
   91CHL1  H27B 9213   6.371   1.552   8.475  0.2806 -0.9791  0.8834
   91CHL1  H27C 9214   6.232   1.614   8.590  0.4169  0.9227 -0.2612
   92CHL1    C3 9215   2.148   4.569   6.740 -1.3624  0.5678  0.6374
   92CHL1    H3 9216   2.045   4.573   6.783 -1.2374  1.5829  0.8694
   92CHL1    O3 9217   2.143   4.558   6.597 -0.0137 -0.1042 -0.2669
   92CHL1   H3' 9218   2.190   4.634   6.562 -3.1447  0.2457 -4.0697
   92CHL1    C4 9219   2.221   4.690   6.789  0.1715  0.6550 -0.5467
   92CHL1   H4A 9220   2.319   4.699   6.738  1.2858 -2.9228  0.7775
   92CHL1   H4B 9221   2.156   4.772   6.752 -0.6088  0.4404  0.3391
   92CHL1    C5 9222   2.244   4.696   6.937  0.5468  0.4310  0.0181
   92CHL1    C6 9223   2.197   4.790   7.025 -0.6567  0.1474 -0.2260
   92CHL1    H6 9224   2.140   4.876   6.988  0.7037  1.3327  0.3935
   92CHL1    C7 9225   2.230   4.796   7.174 -0.9626 -0.3477  0.4770
   92CHL1   H7A 9226   2.259   4.900   7.199 -1.7898 -0.3801  1.6042
   92CHL1   H7B 9227   2.139   4.768   7.231 -2.5528 -0.1907 -1.8991
   92CHL1    C8 9228   2.345   4.698   7.212 -0.4130  0.3146  0.4570
   92CHL1    H8 9229   2.443   4.736   7.174 -1.6599  1.5453 -1.5847
   92CHL1   C14 9230   2.345   4.683   7.361 -0.0239 -0.0765 -0.0756
   92CHL1   H14 9231   2.244   4.644   7.387  0.5856 -1.3099  0.5191
   92CHL1   C15 9232   2.370   4.807   7.444  0.6537 -0.0873 -0.1064
   92CHL1  H15A 9233   2.450   4.867   7.395  1.1934 -1.2056 -0.6198
   92CHL1  H15B 9234   2.278   4.866   7.459 -0.1133 -1.3896  0.3674
   92CHL1   C16 9235   2.413   4.750   7.582  0.9524  0.3166 -0.2771
   92CHL1  H16A 9236   2.516   4.791   7.596  0.4532  1.9456 -1.2570
   92CHL1  H16B 9237   2.344   4.774   7.666 -0.9032 -0.1928 -1.6395
   92CHL1   C17 9238   2.420   4.598   7.568  0.2566  0.2959 -0.0070
   92CHL1   H17 9239   2.319   4.561   7.597  0.1037 -0.9091 -1.9783
   92CHL1   C13 9240   2.442   4.579   7.415  0.8847  0.2253 -0.3564
   92CHL1   C18 9241   2.583   4.623   7.380  0.2026 -0.1575 -0.7048
   92CHL1  H18A 9242   2.653   4.543   7.414 -2.0473 -2.3375 -1.0367
   92CHL1  H18B 9243   2.600   4.638   7.272  0.1010 -1.3219 -0.8909
   92CHL1  H18C 9244   2.603   4.715   7.439  0.9819 -0.3499 -0.6682
   92CHL1   C12 9245   2.408   4.441   7.354  0.1997 -0.4264 -0.1470
   92CHL1  H12A 9246   2.483   4.367   7.387  0.4842 -1.1442 -2.3231
   92CHL1  H12B 9247   2.307   4.399   7.372  0.5948 -1.4327 -0.2738
   92CHL1   C11 9248   2.406   4.447   7.196 -0.3751 -0.1967 -0.0107
   92CHL1  H11A 9249   2.511   4.454   7.159 -1.1124  3.2536 -1.6968
   92CHL1  H11B 9250   2.371   4.352   7.151 -1.5793  0.0557  0.3721
   92CHL1    C9 9251   2.322   4.565   7.139 -0.2296 -0.4131 -0.7486
   92CHL1    H9 9252   2.214   4.545   7.155 -0.0600 -2.1268 -1.5999
   92CHL1   C10 9253   2.325   4.578   6.985 -0.6147 -0.1924  0.4592
   92CHL1   C19 9254   2.473   4.585   6.935 -0.3765  0.0352  0.8690
   92CHL1  H19A 9255   2.545   4.655   6.982 -0.7796  1.1656 -0.1761
   92CHL1  H19B 9256   2.511   4.481   6.951 -0.4572 -0.1066  0.1688
   92CHL1  H19C 9257   2.477   4.587   6.824  0.8848  2.2468  0.9390
   92CHL1    C1 9258   2.245   4.450   6.939  0.4627 -0.0119  0.4867
   92CHL1   H1A 9259   2.305   4.358   6.951  0.5498 -0.0281 -0.0475
   92CHL1   H1B 9260   2.147   4.445   6.991  0.5419 -1.6537  0.5036
   92CHL1    C2 9261   2.208   4.437   6.785  0.3433  0.4504  0.0153
   92CHL1   H2A 9262   2.132   4.359   6.762  2.3203 -1.0994 -1.5092
   92CHL1   H2B 9263   2.302   4.409   6.733 -0.1650 -2.3590  0.5127
   92CHL1   C20 9264   2.512   4.516   7.664 -1.6936  0.0601 -0.5589
   92CHL1   H20 9265   2.598   4.475   7.607 -2.1300 -0.9403 -0.5015
   92CHL1   C21 9266   2.435   4.394   7.704  0.6022  0.0892 -0.2162
   92CHL1  H21A 9267   2.371   4.363   7.619 -0.0793 -0.9070  0.6499
   92CHL1  H21B 9268   2.369   4.422   7.788  3.4389  0.4595  1.9513
   92CHL1  H21C 9269   2.494   4.302   7.727 -2.1357 -0.9070  3.1989
   92CHL1   C22 9270   2.563   4.593   7.787 -0.7206  0.6030  0.2749
   92CHL1  H22A 9271   2.638   4.670   7.758 -1.3525  0.9955 -0.3151
   92CHL1  H22B 9272   2.473   4.639   7.832 -1.7260 -1.9639  0.9393
   92CHL1   C23 9273   2.644   4.512   7.892  0.6959  0.1004  1.2742
   92CHL1  H23A 9274   2.571   4.443   7.940  0.3334  0.6820  1.5665
   92CHL1  H23B 9275   2.715   4.449   7.834  0.2602 -0.8034  1.7173
   92CHL1   C24 9276   2.711   4.601   7.995  1.4404 -0.0326 -0.4210
   92CHL1  H24A 9277   2.760   4.692   7.953  1.6349  0.8356  1.6376
   92CHL1  H24B 9278   2.626   4.633   8.059  0.3783 -0.2043 -1.7260
   92CHL1   C25 9279   2.819   4.523   8.079  0.0145  0.0793  0.6577
   92CHL1   H25 9280   2.765   4.442   8.132  1.3927 -0.7142  0.8647
   92CHL1   C26 9281   2.939   4.471   8.005  0.3854 -0.1731 -0.2331
   92CHL1  H26A 9282   3.006   4.413   8.072  0.1810  0.2815  0.3717
   92CHL1  H26B 9283   2.911   4.401   7.923  0.6959 -0.5470 -0.0220
   92CHL1  H26C 9284   3.000   4.558   7.971  0.0548  0.2249  0.1788
   92CHL1   C27 9285   2.862   4.615   8.199 -0.1149 -0.4130  0.6839
   92CHL1  H27A 9286   2.791   4.624   8.283 -0.1462  1.4458  0.4817
   92CHL1  H27B 9287   2.956   4.570   8.236 -0.5800 -0.9617  1.1875
   92CHL1  H27C 9288   2.879   4.723   8.176 -2.6825 -0.1265 -0.0202
   93CHL1    C3 9289   0.915   1.753   6.971 -0.1583  0.3251 -0.1971
   93CHL1    H3 9290   0.932   1.863   6.979 -1.3786  0.4071  1.6693
   93CHL1    O3 9291   0.906   1.706   6.833  0.2822 -0.1133 -0.6389
   93CHL1   H3' 9292   0.927   1.613   6.827 -2.4878 -0.8244 -0.2309
   93CHL1    C4 9293   1.032   1.684   7.042  0.3276  0.5912 -0.3393
   93CHL1   H4A 9294   1.017   1.574   7.040  1.2084  0.4281  1.5315
   93CHL1   H4B 9295   1.126   1.707   6.986  0.4533 -1.5590 -1.0471
   93CHL1    C5 9296   1.045   1.731   7.180  0.2111 -0.3099 -0.3671
   93CHL1    C6 9297   1.157   1.803   7.223  1.1865  0.2279  0.1134
   93CHL1    H6 9298   1.245   1.818   7.159  1.0264  1.6115  0.2009
   93CHL1    C7 9299   1.176   1.843   7.362  0.0219 -0.2613 -0.9325
   93CHL1   H7A 9300   1.277   1.819   7.401  0.4711 -0.8360 -2.4002
   93CHL1   H7B 9301   1.174   1.954   7.364  2.6711 -0.1638 -0.8271
   93CHL1    C8 9302   1.070   1.787   7.460 -0.3658 -0.2664  0.6340
   93CHL1    H8 9303   1.101   1.682   7.478  1.4600 -0.0260 -0.9187
   93CHL1   C14 9304   1.067   1.863   7.593 -0.1083  0.0568 -0.4378
   93CHL1   H14 9305   1.034   1.964   7.559 -0.9831  0.3504  1.2545
   93CHL1   C15 9306   1.198   1.888   7.670 -1.0022 -0.2391 -0.6770
   93CHL1  H15A 9307   1.245   1.789   7.689  0.6366  1.2040  3.5681
   93CHL1  H15B 9308   1.271   1.945   7.608  0.8871 -1.6136  0.2092
   93CHL1   C16 9309   1.147   1.938   7.808  0.2319  0.6543 -0.1331
   93CHL1  H16A 9310   1.206   1.886   7.887  0.5673 -0.0710 -0.8559
   93CHL1  H16B 9311   1.169   2.047   7.811 -2.0895  1.1360  0.3279
   93CHL1   C17 9312   0.996   1.914   7.820  0.3914 -0.6228  0.0867
   93CHL1   H17 9313   0.948   2.010   7.792 -0.8480 -1.8564 -2.1143
   93CHL1   C13 9314   0.972   1.817   7.703  0.0748 -0.1487  0.1061
   93CHL1   C18 9315   1.007   1.676   7.756 -0.0375 -0.0825  0.3825
   93CHL1  H18A 9316   0.937   1.637   7.832  0.2711 -1.4103 -0.0075
   93CHL1  H18B 9317   1.000   1.603   7.673 -0.0272  2.3656 -1.8402
   93CHL1  H18C 9318   1.111   1.677   7.796  0.8696  1.9003 -1.8740
   93CHL1   C12 9319   0.832   1.808   7.645 -0.5852 -0.7373  0.1205
   93CHL1  H12A 9320   0.757   1.756   7.708  1.2649 -1.0350  2.1398
   93CHL1  H12B 9321   0.789   1.905   7.613 -0.3616 -0.4304  0.7420
   93CHL1   C11 9322   0.833   1.724   7.515  0.3319 -0.1816 -0.2150
   93CHL1  H11A 9323   0.852   1.618   7.542 -0.4161 -0.4391 -0.6883
   93CHL1  H11B 9324   0.730   1.717   7.475 -0.4354 -0.5943  1.7583
   93CHL1    C9 9325   0.923   1.777   7.407  0.2384 -0.1546  0.6267
   93CHL1    H9 9326   0.889   1.882   7.390  0.4513 -0.3511 -1.1414
   93CHL1   C10 9327   0.918   1.712   7.263 -0.5220  1.3704 -0.3972
   93CHL1   C19 9328   0.906   1.555   7.287 -0.3240  0.3851 -0.1449
   93CHL1  H19A 9329   0.929   1.491   7.199  0.1048  1.6831 -0.9969
   93CHL1  H19B 9330   0.981   1.527   7.364 -0.2151  1.8956  0.3233
   93CHL1  H19C 9331   0.805   1.531   7.325  0.1277 -2.1987 -0.4741
   93CHL1    C1 9332   0.791   1.759   7.193  0.0987 -0.1166 -0.7443
   93CHL1   H1A 9333   0.699   1.722   7.244 -1.2498  2.4043 -1.2393
   93CHL1   H1B 9334   0.784   1.870   7.204 -2.3836 -0.3740  0.6624
   93CHL1    C2 9335   0.783   1.724   7.047 -0.3082 -0.4833  0.5000
   93CHL1   H2A 9336   0.703   1.791   7.009 -1.2745  0.2509  3.6650
   93CHL1   H2B 9337   0.756   1.618   7.030 -0.9600 -0.0614 -1.1743
   93CHL1   C20 9338   0.956   1.876   7.964 -0.3579 -0.6776 -0.6301
   93CHL1   H20 9339   1.021   1.792   7.997 -1.7913 -1.9827 -1.0527
   93CHL1   C21 9340   0.812   1.835   7.982 -0.2069  0.4426 -0.0119
   93CHL1  H21A 9341   0.787   1.755   7.909  0.6990  0.9808 -0.9289
   93CHL1  H21B 9342   0.755   1.926   7.952  0.6190  0.5972 -1.1630
   93CHL1  H21C 9343   0.785   1.812   8.087  0.1891  2.1533  0.4880
   93CHL1   C22 9344   0.979   1.989   8.059  0.0484 -0.2474  0.0815
   93CHL1  H22A 9345   1.085   2.021   8.052 -0.2089  0.5065 -0.3701
   93CHL1  H22B 9346   0.919   2.075   8.024  0.5611 -0.5137 -1.5262
   93CHL1   C23 9347   0.960   1.958   8.205  0.1608 -0.1316 -0.0381
   93CHL1  H23A 9348   0.859   1.920   8.234 -0.0364 -0.3257 -0.9501
   93CHL1  H23B 9349   1.027   1.883   8.251 -1.3120 -0.2944  1.9015
   93CHL1   C24 9350   0.969   2.089   8.291 -0.0086  0.7188  0.2320
   93CHL1  H24A 9351   1.064   2.145   8.277  0.0953  0.3060 -0.7674
   93CHL1  H24B 9352   0.892   2.152   8.243 -0.4624  0.2568  0.3472
   93CHL1   C25 9353   0.934   2.067   8.444  0.0483  0.4439 -0.1261
   93CHL1   H25 9354   0.840   2.009   8.458  0.5340 -0.3707 -0.1994
   93CHL1   C26 9355   1.047   1.990   8.525 -0.0831 -0.0113 -0.2491
   93CHL1  H26A 9356   1.039   1.995   8.636  0.0070  1.1377 -0.2872
   93CHL1  H26B 9357   1.044   1.880   8.511 -0.3099 -0.3725  2.2957
   93CHL1  H26C 9358   1.150   2.024   8.498  0.2619  0.4074  1.5145
   93CHL1   C27 9359   0.907   2.200   8.516 -0.2238 -0.3024  0.3811
   93CHL1  H27A 9360   0.930   2.197   8.624 -2.8149 -0.6995  0.9627
   93CHL1  H27B 9361   0.955   2.282   8.458 -0.2705 -0.0833  0.6507
   93CHL1  H27C 9362   0.800   2.221   8.496  0.1410  2.3658  1.0425
   94CHL1    C3 9363   3.642   4.849   6.920  0.4118 -0.2689 -0.3908
   94CHL1    H3 9364   3.538   4.873   6.950  0.3313  0.6242 -1.3424
   94CHL1    O3 9365   3.662   4.887   6.786  0.9814  0.0747 -0.2981
   94CHL1   H3' 9366   3.599   4.831   6.741 -0.0546  0.2987  0.8265
   94CHL1    C4 9367   3.732   4.928   7.018  0.5371 -0.0147  0.7253
   94CHL1   H4A 9368   3.839   4.914   6.992  0.1996  1.2454 -1.4943
   94CHL1   H4B 9369   3.709   5.035   7.001  0.6117  0.2318  2.1253
   94CHL1    C5 9370   3.723   4.888   7.166  0.5293 -0.4180  0.8009
   94CHL1    C6 9371   3.690   4.970   7.271  0.1205  0.1305  0.1904
   94CHL1    H6 9372   3.666   5.076   7.251  1.4993  0.2127 -1.1855
   94CHL1    C7 9373   3.677   4.935   7.413 -0.2425 -0.3546  0.3239
   94CHL1   H7A 9374   3.719   5.014   7.478  1.0280 -0.3887 -0.4461
   94CHL1   H7B 9375   3.573   4.917   7.448 -1.0341  2.0423 -0.7375
   94CHL1    C8 9376   3.748   4.807   7.443 -0.4656  0.2654 -0.1790
   94CHL1    H8 9377   3.857   4.828   7.445 -0.4695  0.5230 -1.9239
   94CHL1   C14 9378   3.703   4.755   7.582 -0.7159  0.6198 -0.4644
   94CHL1   H14 9379   3.600   4.713   7.576 -0.8607  0.8435  0.3369
   94CHL1   C15 9380   3.698   4.854   7.699 -0.1052 -0.7756  0.1121
   94CHL1  H15A 9381   3.782   4.927   7.700  1.8554 -2.9239 -0.6708
   94CHL1  H15B 9382   3.602   4.909   7.701  0.1604 -0.2768 -0.6675
   94CHL1   C16 9383   3.722   4.771   7.821 -0.2179 -0.2490 -0.3197
   94CHL1  H16A 9384   3.814   4.799   7.877  0.8021 -1.2526 -1.4591
   94CHL1  H16B 9385   3.640   4.779   7.895  0.3255  2.2342  0.0439
   94CHL1   C17 9386   3.735   4.625   7.777 -0.3046  0.0066  0.1840
   94CHL1   H17 9387   3.636   4.576   7.788  0.1035 -0.6054  1.1330
   94CHL1   C13 9388   3.784   4.632   7.634 -0.7409 -0.4701 -0.1327
   94CHL1   C18 9389   3.930   4.679   7.636 -1.0404 -0.2832 -0.0934
   94CHL1  H18A 9390   3.992   4.604   7.690  1.1637  2.3884  1.1972
   94CHL1  H18B 9391   3.978   4.676   7.536  1.0013 -0.2115  0.8623
   94CHL1  H18C 9392   3.935   4.784   7.670 -1.0581  1.0386 -3.9336
   94CHL1   C12 9393   3.746   4.519   7.531 -0.3011  0.0504 -0.1794
   94CHL1  H12A 9394   3.809   4.429   7.547 -0.3267 -0.0126 -0.4349
   94CHL1  H12B 9395   3.642   4.492   7.558 -0.2806 -0.1194 -0.2695
   94CHL1   C11 9396   3.775   4.558   7.387  0.6819 -0.0155 -0.1275
   94CHL1  H11A 9397   3.885   4.564   7.374  0.6352  0.8278 -0.1536
   94CHL1  H11B 9398   3.729   4.479   7.324 -1.6261  0.3917  0.9661
   94CHL1    C9 9399   3.714   4.700   7.339 -0.2037 -0.0529 -0.3391
   94CHL1    H9 9400   3.605   4.684   7.345 -0.1302 -2.0369 -3.4038
   94CHL1   C10 9401   3.748   4.740   7.196  0.2756 -0.3561  0.1817
   94CHL1   C19 9402   3.902   4.717   7.177 -1.4818  0.0758 -0.3482
   94CHL1  H19A 9403   3.926   4.609   7.165 -0.6400  0.3143 -0.7950
   94CHL1  H19B 9404   3.944   4.768   7.088 -0.4670  0.0245  0.0954
   94CHL1  H19C 9405   3.959   4.763   7.260 -2.0885 -0.0484  0.1408
   94CHL1    C1 9406   3.669   4.657   7.086  0.3982 -0.3406  0.3481
   94CHL1   H1A 9407   3.691   4.548   7.093 -0.0130 -0.4406  0.1344
   94CHL1   H1B 9408   3.564   4.687   7.104  0.0800 -0.5554 -1.0471
   94CHL1    C2 9409   3.674   4.701   6.936  0.1025 -0.1927 -0.4315
   94CHL1   H2A 9410   3.605   4.638   6.877  0.2087 -0.7524  0.0360
   94CHL1   H2B 9411   3.778   4.686   6.901  1.3545  1.8529  2.1860
   94CHL1   C20 9412   3.822   4.543   7.881 -0.6396 -0.4635  0.0436
   94CHL1   H20 9413   3.930   4.566   7.886 -0.9131  1.2452 -1.5695
   94CHL1   C21 9414   3.806   4.402   7.834  0.0953  0.6955 -0.4054
   94CHL1  H21A 9415   3.702   4.364   7.837 -0.4085  2.0013 -1.0947
   94CHL1  H21B 9416   3.853   4.334   7.908 -1.7797 -1.3005 -1.0007
   94CHL1  H21C 9417   3.842   4.393   7.729 -4.1039 -0.7992 -1.8375
   94CHL1   C22 9418   3.766   4.554   8.027 -0.8326  0.5366 -0.2281
   94CHL1  H22A 9419   3.758   4.658   8.063  0.0855 -0.2323  2.2804
   94CHL1  H22B 9420   3.659   4.523   8.014 -0.1731 -2.1645  0.3707
   94CHL1   C23 9421   3.846   4.473   8.131  0.0089 -0.0028 -0.0147
   94CHL1  H23A 9422   3.827   4.367   8.107  0.0495  0.2893 -1.3636
   94CHL1  H23B 9423   3.955   4.490   8.115  0.5398 -0.7267  2.6266
   94CHL1   C24 9424   3.794   4.506   8.274  0.2472 -0.6460  0.1889
   94CHL1  H24A 9425   3.853   4.594   8.308  0.7814 -0.0218 -2.2844
   94CHL1  H24B 9426   3.686   4.530   8.285  0.4435 -0.8969  3.0303
   94CHL1   C25 9427   3.812   4.378   8.360  0.3301  0.3792  0.7347
   94CHL1   H25 9428   3.913   4.338   8.335  0.4586  0.4500  1.1410
   94CHL1   C26 9429   3.806   4.409   8.512  0.5246  0.7924 -0.8991
   94CHL1  H26A 9430   3.866   4.500   8.535  0.4714  0.9217 -1.2781
   94CHL1  H26B 9431   3.698   4.425   8.532  0.7670  2.4160 -0.7643
   94CHL1  H26C 9432   3.829   4.323   8.578  0.2388 -0.2419 -2.1277
   94CHL1   C27 9433   3.702   4.281   8.332 -0.1881 -0.6736 -0.2425
   94CHL1  H27A 9434   3.714   4.238   8.230  3.5514 -2.3847  0.8536
   94CHL1  H27B 9435   3.715   4.194   8.400  1.2158 -0.2250  0.0735
   94CHL1  H27C 9436   3.600   4.321   8.351  0.0189  0.2787 -1.0947
   95CHL1    C3 9437   2.698   4.295   6.679  0.3444  0.6458  0.8011
   95CHL1    H3 9438   2.614   4.363   6.705 -0.6349 -0.1886 -0.1501
   95CHL1    O3 9439   2.703   4.293   6.535  1.0585  0.0890  0.3372
   95CHL1   H3' 9440   2.720   4.200   6.516  1.3177  0.2640 -0.3021
   95CHL1    C4 9441   2.830   4.340   6.746  0.9151 -0.5256 -0.4113
   95CHL1   H4A 9442   2.902   4.266   6.705 -0.8089 -1.6028 -1.6177
   95CHL1   H4B 9443   2.857   4.442   6.712 -0.6639 -0.2148 -0.7892
   95CHL1    C5 9444   2.833   4.334   6.892  0.0848  0.3223  0.1996
   95CHL1    C6 9445   2.848   4.440   6.968  0.0914  0.3424  0.0923
   95CHL1    H6 9446   2.855   4.540   6.922  1.5796  0.8911  1.4357
   95CHL1    C7 9447   2.856   4.438   7.115  0.7460 -0.1794  0.4476
   95CHL1   H7A 9448   2.947   4.491   7.151  0.6168  0.2159  0.1891
   95CHL1   H7B 9449   2.767   4.490   7.156 -0.5034 -0.7523 -1.4967
   95CHL1    C8 9450   2.866   4.294   7.179 -0.7073  0.0268 -0.3245
   95CHL1    H8 9451   2.975   4.274   7.172 -1.1690 -1.5169 -3.7741
   95CHL1   C14 9452   2.831   4.291   7.332  0.4504 -0.1778  0.6284
   95CHL1   H14 9453   2.726   4.326   7.340  0.2601 -0.7711  0.7341
   95CHL1   C15 9454   2.914   4.378   7.428  0.2677 -0.2485 -0.6966
   95CHL1  H15A 9455   3.022   4.364   7.406  0.9091  3.9480 -0.6042
   95CHL1  H15B 9456   2.888   4.485   7.411  4.3852  0.6600 -1.6795
   95CHL1   C16 9457   2.871   4.319   7.563 -0.5574 -0.0805 -0.2536
   95CHL1  H16A 9458   2.960   4.278   7.616  0.6805  1.0186 -1.4244
   95CHL1  H16B 9459   2.823   4.394   7.628  1.1524  2.0130 -1.3174
   95CHL1   C17 9460   2.781   4.197   7.539 -0.5026  0.2709 -0.3086
   95CHL1   H17 9461   2.675   4.230   7.528 -0.1741  1.8798  1.1235
   95CHL1   C13 9462   2.823   4.154   7.400 -0.3588 -0.2086 -1.1003
   95CHL1   C18 9463   2.964   4.087   7.397  0.1622 -0.5491  0.1663
   95CHL1  H18A 9464   2.946   3.982   7.428 -1.1775 -0.5723 -0.6342
   95CHL1  H18B 9465   3.005   4.092   7.294  1.3468  1.4799  0.7032
   95CHL1  H18C 9466   3.032   4.139   7.468 -0.2668  2.1130 -1.2954
   95CHL1   C12 9467   2.730   4.068   7.321  1.0290  0.3266 -0.2870
   95CHL1  H12A 9468   2.735   3.964   7.360  0.0307 -0.0318 -1.1023
   95CHL1  H12B 9469   2.624   4.095   7.335  0.2874 -1.9442 -1.2882
   95CHL1   C11 9470   2.766   4.063   7.171 -1.1092  0.1221  0.0117
   95CHL1  H11A 9471   2.856   3.999   7.161 -0.0424  1.3401  1.5703
   95CHL1  H11B 9472   2.683   4.022   7.110 -2.9692  3.0770  0.4342
   95CHL1    C9 9473   2.770   4.202   7.104 -0.4753 -0.0972  0.2550
   95CHL1    H9 9474   2.667   4.242   7.119  1.0985  4.1617  0.3748
   95CHL1   C10 9475   2.790   4.193   6.951  0.0258  0.6422 -0.0490
   95CHL1   C19 9476   2.899   4.095   6.911  0.4796  0.0873  0.3914
   95CHL1  H19A 9477   2.858   3.995   6.938  1.2139 -0.1819  0.5077
   95CHL1  H19B 9478   2.923   4.092   6.803  2.3120  0.7163  0.7638
   95CHL1  H19C 9479   2.993   4.115   6.968  1.8110 -0.9409 -1.3984
   95CHL1    C1 9480   2.653   4.153   6.883  0.3266 -0.2638 -0.0483
   95CHL1   H1A 9481   2.632   4.048   6.913 -0.3069 -0.0911  0.1197
   95CHL1   H1B 9482   2.568   4.217   6.914  2.2194  0.4142  4.1612
   95CHL1    C2 9483   2.654   4.156   6.729  0.0788 -0.2428  0.1760
   95CHL1   H2A 9484   2.558   4.128   6.681 -0.1978  1.3210 -0.2199
   95CHL1   H2B 9485   2.725   4.081   6.687  0.9429  0.8699 -0.3723
   95CHL1   C20 9486   2.762   4.098   7.658 -0.1593  0.0422 -0.5990
   95CHL1   H20 9487   2.856   4.038   7.653 -0.9508 -1.1010 -2.4737
   95CHL1   C21 9488   2.633   4.007   7.653  0.2056 -0.0998 -0.3920
   95CHL1  H21A 9489   2.553   4.052   7.716  0.6718  0.4395 -0.1865
   95CHL1  H21B 9490   2.661   3.908   7.695 -0.0001  1.0121  2.4306
   95CHL1  H21C 9491   2.604   3.988   7.547 -0.4711  0.2568 -0.2688
   95CHL1   C22 9492   2.763   4.169   7.796  0.2736 -0.6088 -0.3081
   95CHL1  H22A 9493   2.864   4.214   7.813  0.1058  0.3049 -1.6522
   95CHL1  H22B 9494   2.686   4.248   7.796  0.2407 -0.6249 -1.4891
   95CHL1   C23 9495   2.729   4.083   7.921  0.2857  0.2204  0.0414
   95CHL1  H23A 9496   2.641   4.016   7.915  0.4443  0.1925 -2.2379
   95CHL1  H23B 9497   2.819   4.021   7.938  0.9473  0.2498 -3.0908
   95CHL1   C24 9498   2.694   4.162   8.050  0.5070 -0.1613 -0.4901
   95CHL1  H24A 9499   2.777   4.236   8.043  0.3582  0.2817  2.0473
   95CHL1  H24B 9500   2.603   4.223   8.037  0.9994  1.0646  1.6245
   95CHL1   C25 9501   2.707   4.067   8.171 -0.2744 -0.1074  0.5219
   95CHL1   H25 9502   2.811   4.027   8.165  0.0069  0.9139 -1.7590
   95CHL1   C26 9503   2.686   4.143   8.302 -0.1736  0.1212  0.2110
   95CHL1  H26A 9504   2.586   4.192   8.304 -0.6165 -0.6937 -1.1792
   95CHL1  H26B 9505   2.689   4.063   8.380  1.1216 -0.5814 -0.5529
   95CHL1  H26C 9506   2.764   4.218   8.323 -1.6275  2.0064 -0.9913
   95CHL1   C27 9507   2.607   3.949   8.169 -0.2842  0.6298 -0.0917
   95CHL1  H27A 9508   2.612   3.875   8.252 -0.1059  1.2033  0.4170
   95CHL1  H27B 9509   2.507   3.997   8.179  0.1415  1.2127  1.6106
   95CHL1  H27C 9510   2.605   3.892   8.074 -1.4820  2.4439 -1.1871
   96CHL1    C3 9511   2.854   3.625   6.765 -0.5925  0.2480  0.1382
   96CHL1    H3 9512   2.905   3.532   6.799  0.2611 -0.0301 -1.8506
   96CHL1    O3 9513   2.908   3.681   6.649 -1.1008 -0.0300 -0.2451
   96CHL1   H3' 9514   3.002   3.695   6.667 -1.4501 -0.9001  2.4951
   96CHL1    C4 9515   2.709   3.590   6.744 -0.3006 -0.3279  0.0370
   96CHL1   H4A 9516   2.663   3.685   6.713  1.5961  1.0265  1.2237
   96CHL1   H4B 9517   2.704   3.510   6.667  1.2806 -0.8407  0.4452
   96CHL1    C5 9518   2.655   3.538   6.873  0.0027 -0.7538  0.0934
   96CHL1    C6 9519   2.605   3.415   6.877 -0.0493  0.0017 -0.8045
   96CHL1    H6 9520   2.621   3.343   6.796  1.3322 -0.5311 -0.0788
   96CHL1    C7 9521   2.531   3.362   7.006 -0.1389  0.2909  0.2580
   96CHL1   H7A 9522   2.445   3.300   6.970  1.2672  0.6563 -4.0410
   96CHL1   H7B 9523   2.591   3.284   7.058  0.9631 -0.2932 -1.8081
   96CHL1    C8 9524   2.485   3.474   7.103  0.0287 -0.8569 -0.1608
   96CHL1    H8 9525   2.400   3.527   7.055  1.1466  1.0133 -0.1133
   96CHL1   C14 9526   2.446   3.424   7.238 -0.5146  0.1019  0.1773
   96CHL1   H14 9527   2.542   3.379   7.270 -0.8574  0.0207  1.1116
   96CHL1   C15 9528   2.339   3.313   7.248  0.2525 -0.1678  0.2858
   96CHL1  H15A 9529   2.249   3.360   7.204  1.9242  1.7524 -1.1853
   96CHL1  H15B 9530   2.365   3.217   7.199  0.7513  0.7277 -1.2309
   96CHL1   C16 9531   2.319   3.299   7.405  0.4602  0.9451  0.3948
   96CHL1  H16A 9532   2.217   3.276   7.442 -0.2419  1.6518 -1.0897
   96CHL1  H16B 9533   2.389   3.219   7.439 -0.3996  0.6470  1.4921
   96CHL1   C17 9534   2.365   3.433   7.467 -1.3042  0.1410 -0.3508
   96CHL1   H17 9535   2.453   3.390   7.519 -0.9600 -1.2278 -2.0122
   96CHL1   C13 9536   2.407   3.526   7.345  0.5214  0.1366 -0.0355
   96CHL1   C18 9537   2.284   3.608   7.306 -0.6308  0.4792 -0.5866
   96CHL1  H18A 9538   2.289   3.664   7.210 -1.4220 -0.3129 -1.0903
   96CHL1  H18B 9539   2.189   3.550   7.298 -0.7727  0.7676 -0.9944
   96CHL1  H18C 9540   2.250   3.690   7.372 -2.0831 -0.0876 -0.6182
   96CHL1   C12 9541   2.532   3.615   7.367  0.7820  0.6690  0.2492
   96CHL1  H12A 9542   2.503   3.698   7.435 -0.4170  0.6783 -0.2593
   96CHL1  H12B 9543   2.613   3.554   7.412 -0.8633 -1.0582  0.9435
   96CHL1   C11 9544   2.585   3.673   7.241  0.2932 -0.0800  0.7396
   96CHL1  H11A 9545   2.512   3.752   7.213  0.8746  0.5031  0.8633
   96CHL1  H11B 9546   2.688   3.714   7.242  0.1753  0.3774 -1.8910
   96CHL1    C9 9547   2.607   3.570   7.121 -0.3585  0.2480  0.0643
   96CHL1    H9 9548   2.698   3.514   7.152  0.2631  2.3777  2.2356
   96CHL1   C10 9549   2.659   3.631   6.986 -1.1357 -0.3912 -0.7100
   96CHL1   C19 9550   2.574   3.756   6.966  0.0647  0.6681  0.3232
   96CHL1  H19A 9551   2.468   3.731   6.987 -0.7967  1.5912 -2.6663
   96CHL1  H19B 9552   2.588   3.833   7.045 -0.1644 -0.5281  1.5516
   96CHL1  H19C 9553   2.581   3.809   6.869  1.0387  2.3385  1.2820
   96CHL1    C1 9554   2.805   3.681   7.008  0.6025  0.2873 -0.3947
   96CHL1   H1A 9555   2.797   3.761   7.085 -1.1076 -1.4071  1.2766
   96CHL1   H1B 9556   2.871   3.600   7.046 -1.1434 -1.4335 -0.9641
   96CHL1    C2 9557   2.875   3.728   6.881  0.6383 -0.1697 -0.0087
   96CHL1   H2A 9558   2.985   3.739   6.887  0.5600  1.1377 -0.7786
   96CHL1   H2B 9559   2.822   3.821   6.852  0.7364  0.1129  0.7286
   96CHL1   C20 9560   2.273   3.511   7.574  0.1646  0.1320  0.4712
   96CHL1   H20 9561   2.202   3.575   7.517  0.5923 -1.3186 -1.7949
   96CHL1   C21 9562   2.364   3.608   7.655 -0.3591 -0.4136  0.3731
   96CHL1  H21A 9563   2.373   3.711   7.615 -2.6841  0.3315  1.6673
   96CHL1  H21B 9564   2.463   3.557   7.663 -1.2518 -2.0547  1.3889
   96CHL1  H21C 9565   2.337   3.613   7.763  3.3157 -0.3859  1.3727
   96CHL1   C22 9566   2.194   3.417   7.665 -0.3634 -0.2534  0.0560
   96CHL1  H22A 9567   2.133   3.486   7.728 -0.2007 -1.0330  1.0790
   96CHL1  H22B 9568   2.124   3.357   7.603 -1.0340 -0.3090  0.8526
   96CHL1   C23 9569   2.278   3.309   7.747 -0.1276 -0.3015  0.0261
   96CHL1  H23A 9570   2.332   3.243   7.675  0.2173 -0.9637  0.8933
   96CHL1  H23B 9571   2.346   3.361   7.818  1.0545 -0.5085 -0.9311
   96CHL1   C24 9572   2.191   3.220   7.835 -0.0043 -0.5980  0.2310
   96CHL1  H24A 9573   2.150   3.280   7.920  0.0910  0.6921 -0.6290
   96CHL1  H24B 9574   2.098   3.180   7.790 -0.4758  0.7877 -0.0573
   96CHL1   C25 9575   2.274   3.103   7.902 -0.6549  0.3549 -0.6977
   96CHL1   H25 9576   2.372   3.139   7.938 -1.1576  0.3706  0.7191
   96CHL1   C26 9577   2.201   3.052   8.033  0.0863 -0.3160  0.0594
   96CHL1  H26A 9578   2.139   3.135   8.073 -3.6512 -2.5713 -0.8714
   96CHL1  H26B 9579   2.125   2.979   7.999 -1.5791  1.6648 -0.6141
   96CHL1  H26C 9580   2.272   3.005   8.104 -1.3079 -1.9569  0.3925
   96CHL1   C27 9581   2.301   2.981   7.808 -0.3529 -0.2029  0.2295
   96CHL1  H27A 9582   2.355   2.903   7.866  2.8016  0.1310 -2.1470
   96CHL1  H27B 9583   2.201   2.942   7.776  0.2011 -1.9632  0.5892
   96CHL1  H27C 9584   2.360   2.998   7.715 -0.7863  3.7236  0.6143
   97OSM      N 9585   0.139   4.024  11.350 -0.5444  0.1360 -0.1128
   97OSM    C15 9586   0.148   4.144  11.443  0.9150  0.0418  0.9735
   97OSM   H15A 9587   0.236   4.152  11.506  1.9010  3.2980 -0.6835
   97OSM   H15B 9588   0.060   4.143  11.506 -0.2723 -1.9770 -0.6613
   97OSM   H15C 9589   0.143   4.237  11.389 -1.8162 -0.3116  0.5775
   97OSM    C14 9590   0.177   3.898  11.414  0.2810 -0.3035 -0.3577
   97OSM   H14A 9591   0.139   3.900  11.515  1.4789 -0.0023  0.0961
   97OSM   H14B 9592   0.285   3.888  11.411  0.2508 -0.7039 -0.1599
   97OSM   H14C 9593   0.137   3.813  11.361  0.7915 -0.1888 -0.9341
   97OSM    C13 9594  -0.001   4.010  11.317 -0.2981 -0.1675 -0.4114
   97OSM   H13A 9595  -0.056   3.966  11.399 -1.5981 -1.7142 -2.0906
   97OSM   H13B 9596  -0.019   3.939  11.238 -2.8848  1.1775 -1.0786
   97OSM   H13C 9597  -0.035   4.102  11.271 -0.2853  0.3547  0.6073
   97OSM    C12 9598   0.221   4.046  11.218  0.3397 -0.3446 -0.4995
   97OSM   H12A 9599   0.169   4.126  11.168 -1.5125 -1.9479 -1.1789
   97OSM   H12B 9600   0.196   3.961  11.156  0.1975 -1.2937  0.8305
   97OSM    C11 9601   0.365   4.074  11.231 -0.4224  0.7593 -0.1636
   97OSM   H11A 9602   0.369   4.163  11.297 -0.9625 -0.5792  1.7071
   97OSM   H11B 9603   0.406   4.122  11.139 -3.1775  1.8550 -0.8560
   97OSM      P 9604   0.497   3.848  11.203  0.2798 -0.1956 -0.3450
   97OSM    O13 9605   0.579   3.756  11.287  0.4825 -0.2774  0.0794
   97OSM    O14 9606   0.381   3.789  11.131  0.0319 -0.2023 -0.3550
   97OSM    O11 9607   0.590   3.918  11.098  0.0691  0.4538  0.0097
   97OSM    O12 9608   0.429   3.966  11.295  0.3478 -0.0613  0.0372
   97OSM    C1S 9609   0.563   3.925  10.962 -0.2167  0.2186  0.6078
   97OSM    H1S 9610   0.494   4.008  10.935 -1.2260 -0.1805  1.8935
   97OSM    H1T 9611   0.522   3.830  10.922 -1.4820  1.0228 -0.0450
   97OSM     NF 9612   0.656   3.922  10.740 -0.2951 -1.3267  0.2362
   97OSM    HNF 9613   0.644   3.831  10.701  0.0462 -0.0798 -2.9366
   97OSM    C2S 9614   0.694   3.940  10.876 -0.9454 -0.3154  0.6632
   97OSM    H2S 9615   0.732   4.042  10.899 -1.1520  0.0180 -0.4539
   97OSM    C3S 9616   0.809   3.850  10.926  0.3132 -0.0889  0.5955
   97OSM    H3S 9617   0.777   3.748  10.897  1.1881  0.1463 -1.2985
   97OSM     O3 9618   0.841   3.860  11.063  0.3114  0.2517 -0.0166
   97OSM    HO3 9619   0.765   3.906  11.098 -0.5888  0.9683 -2.8111
   97OSM    C4S 9620   0.938   3.871  10.843 -0.2018  0.0606 -0.8630
   97OSM    H4S 9621   0.970   3.976  10.838  1.3416 -0.4194 -1.4228
   97OSM    C5S 9622   0.996   3.780  10.768  0.0153 -0.0615  0.5733
   97OSM    H5S 9623   0.947   3.682  10.764 -0.3011  0.0325  1.9157
   97OSM    C6S 9624   1.125   3.804  10.687 -0.1946  0.0132 -0.4054
   97OSM    H6S 9625   1.187   3.713  10.673  0.9698  0.6128  0.8482
   97OSM    H6T 9626   1.188   3.879  10.739  1.0886 -2.2578  1.4033
   97OSM    C7S 9627   1.098   3.845  10.538  0.1463 -0.8693  0.2640
   97OSM    H7S 9628   1.188   3.897  10.500 -1.3408  1.9907  0.5063
   97OSM    H7T 9629   1.019   3.923  10.540  0.0145 -1.0091  2.2385
   97OSM    C8S 9630   1.048   3.734  10.448  0.2212  0.8834  0.4420
   97OSM    H8S 9631   0.942   3.708  10.466  0.0803  0.3017 -1.0995
   97OSM    H8T 9632   1.107   3.641  10.466  2.4290  2.2956  0.7154
   97OSM    C9S 9633   1.070   3.774  10.301 -0.4853 -0.2952 -0.2430
   97OSM    H9S 9634   1.058   3.684  10.238 -0.8998 -1.4107  1.4115
   97OSM    H9T 9635   1.178   3.801  10.298 -0.3680 -0.8182 -0.7118
   97OSM   C10S 9636   0.989   3.889  10.248  0.3493 -0.1552  0.2089
   97OSM   H10S 9637   0.987   3.980  10.313 -2.1944 -1.3283  1.8638
   97OSM   H10T 9638   0.890   3.846  10.221  0.1214  0.1659  0.5234
   97OSM   C11S 9639   1.057   3.941  10.118 -0.0864 -0.0218  0.6801
   97OSM   H11S 9640   1.143   4.008  10.137 -0.8043  0.3031  2.8481
   97OSM   H11T 9641   0.991   4.015  10.068  1.8947  0.9321 -0.5979
   97OSM   C12S 9642   1.093   3.837  10.010 -0.2890 -0.1878  0.6652
   97OSM   H12S 9643   1.010   3.764  10.008 -1.4236  1.0897 -0.9934
   97OSM   H12T 9644   1.186   3.781  10.034 -0.3289  0.7159  3.0716
   97OSM   C13S 9645   1.102   3.894   9.867 -0.5433 -0.6096 -0.1666
   97OSM   H13S 9646   1.159   3.813   9.817  0.7348  1.0469 -1.4471
   97OSM   H13T 9647   1.157   3.991   9.870 -2.7364  0.7104 -1.1818
   97OSM   C14S 9648   0.962   3.894   9.805 -0.0106 -0.4472  0.6443
   97OSM   H14S 9649   0.913   3.980   9.853  0.7396  0.2822  0.1250
   97OSM   H14T 9650   0.905   3.802   9.832  0.1075 -0.6672  0.1558
   97OSM   C15S 9651   0.966   3.921   9.652 -0.0382 -0.5566 -0.2239
   97OSM   H15S 9652   0.994   3.825   9.604 -3.4664 -0.6522 -2.2132
   97OSM   H15T 9653   1.054   3.987   9.637  0.8015 -0.8475  3.0238
   97OSM   C16S 9654   0.830   3.974   9.591 -0.5515  0.1341 -1.0296
   97OSM   H16S 9655   0.785   4.052   9.656  0.7282 -0.6882  0.9052
   97OSM   H16T 9656   0.774   3.879   9.579 -1.0450  0.4297 -1.0438
   97OSM   C17S 9657   0.852   4.019   9.445 -0.0644  0.0550 -1.2125
   97OSM   H17S 9658   0.886   3.932   9.385  3.3751 -0.0736  0.7768
   97OSM   H17T 9659   0.936   4.091   9.453  0.2349 -0.3284 -0.8818
   97OSM   C18S 9660   0.737   4.091   9.375 -0.5123 -0.2943  0.2569
   97OSM   H18S 9661   0.761   4.141   9.279 -0.2824 -0.8570  0.0220
   97OSM   H18T 9662   0.703   4.170   9.445 -0.2410 -0.2592  0.3489
   97OSM   H18U 9663   0.651   4.023   9.356 -0.4741  0.2021 -1.8622
   97OSM    C1F 9664   0.589   4.017  10.671 -0.2155 -0.3801 -0.0643
   97OSM     OF 9665   0.584   4.134  10.718 -0.1869  0.5591  0.1980
   97OSM    C2F 9666   0.525   3.978  10.544 -0.2711 -1.2735  0.2506
   97OSM    H2F 9667   0.416   3.998  10.545 -0.4588 -2.2311 -0.2028
   97OSM    H2G 9668   0.544   3.871  10.521 -1.6672 -1.3453 -0.6100
   97OSM    C3F 9669   0.590   4.055  10.425  0.1101 -0.4285  0.3124
   97OSM    H3F 9670   0.699   4.035  10.424  0.9325  3.6948 -2.3931
   97OSM    H3G 9671   0.569   4.163  10.440  0.1265 -0.5681  1.3677
   97OSM    C4F 9672   0.542   4.017  10.290  0.0272  0.4543  0.1459
   97OSM    H4F 9673   0.574   4.092  10.215 -2.9077  3.4089  1.7055
   97OSM    H4G 9674   0.432   4.033  10.294 -0.2969 -1.4432 -0.4372
   97OSM    C5F 9675   0.561   3.875  10.241  0.2151 -0.0696 -0.3089
   97OSM    H5F 9676   0.528   3.790  10.304  1.5557  1.5843  2.7513
   97OSM    H5G 9677   0.669   3.853  10.227 -0.0813 -1.5507 -0.3162
   97OSM    C6F 9678   0.497   3.870  10.100 -0.7454  0.3400  0.1417
   97OSM    H6F 9679   0.392   3.907  10.101 -1.0752 -0.5691 -0.3470
   97OSM    H6G 9680   0.493   3.764  10.068  0.1703  0.1347  0.6842
   97OSM    C7F 9681   0.573   3.954   9.992  0.7760 -0.3817  0.5457
   97OSM    H7F 9682   0.680   3.926  10.001  0.4664 -1.4428  1.0611
   97OSM    H7G 9683   0.578   4.058  10.029  1.0383 -0.6120  1.1685
   97OSM    C8F 9684   0.510   3.953   9.855 -0.4859  0.4800  1.2818
   97OSM    H8F 9685   0.539   3.851   9.821  0.8019  0.8119  1.3800
   97OSM    H8G 9686   0.571   4.024   9.795  0.4641  0.0906  1.7692
   97OSM    C9F 9687   0.363   3.979   9.841  0.3651 -0.3854  0.4239
   97OSM    H9F 9688   0.326   4.045   9.921 -1.0863 -1.4933  0.6895
   97OSM   C10F 9689   0.279   3.928   9.753 -0.3141 -0.1519 -0.8061
   97OSM   H10F 9690   0.175   3.960   9.767  0.0588 -0.3993  3.0765
   97OSM   C11F 9691   0.320   3.828   9.649  0.0298  0.0164 -0.5412
   97OSM   H11F 9692   0.261   3.735   9.662  1.8796 -0.9653  0.9424
   97OSM   H11G 9693   0.423   3.793   9.669  0.1413  0.8596  0.4152
   97OSM   C12F 9694   0.319   3.889   9.510 -0.1857 -0.3813  0.5556
   97OSM   H12F 9695   0.344   3.997   9.508 -0.5878 -0.2991 -0.1638
   97OSM   H12G 9696   0.220   3.877   9.462  0.5245 -0.3743 -0.9270
   97OSM   C13F 9697   0.423   3.820   9.411  0.3496 -0.4030  0.0996
   97OSM   H13F 9698   0.413   3.712   9.432  3.0416 -0.5759  0.6532
   97OSM   H13G 9699   0.520   3.863   9.445  0.2788  0.5044 -0.8037
   97OSM   C14F 9700   0.398   3.855   9.264 -0.2460 -0.3023  0.5472
   97OSM   H14F 9701   0.397   3.966   9.259  1.0165 -0.2438  1.3265
   97OSM   H14G 9702   0.299   3.810   9.243 -0.4669  1.3997 -2.3346
   97OSM   C15F 9703   0.493   3.795   9.155  0.3335 -0.3879 -0.2899
   97OSM   H15F 9704   0.500   3.686   9.173  2.6726 -0.2794 -0.4166
   97OSM   H15G 9705   0.597   3.831   9.169  0.4424 -0.3932 -1.0511
   97OSM   C16F 9706   0.443   3.823   9.011  0.5592  0.2807 -0.4582
   97OSM   H16F 9707   0.465   3.928   8.986 -1.2704  1.0671  1.0624
   97OSM   H16G 9708   0.332   3.824   9.004  0.6342 -0.9039 -2.0000
   97OSM   C17F 9709   0.503   3.734   8.898  0.0379  0.2749 -0.2134
   97OSM   H17F 9710   0.453   3.636   8.911  1.0637 -0.4903 -1.7698
   97OSM   H17G 9711   0.611   3.725   8.924 -0.2094  1.1792  1.1639
   97OSM   C18F 9712   0.483   3.802   8.764  0.3282 -0.3239 -0.2796
   97OSM   H18F 9713   0.544   3.745   8.691  2.8931  0.4598  1.1841
   97OSM   H18G 9714   0.521   3.906   8.757  0.8837 -0.5661 -0.9284
   97OSM   H18H 9715   0.376   3.804   8.735  0.4342 -1.9339 -0.8623
   98OSM      N 9716   0.735   3.465  11.308 -0.0550 -0.1734  0.3873
   98OSM    C15 9717   0.855   3.495  11.222  0.0495 -0.4524  0.4906
   98OSM   H15A 9718   0.843   3.573  11.148 -1.5818 -1.6712 -0.5408
   98OSM   H15B 9719   0.886   3.410  11.163 -1.8513 -0.5307 -0.4154
   98OSM   H15C 9720   0.938   3.531  11.282 -1.3857  1.7210  1.2529
   98OSM    C14 9721   0.748   3.327  11.361 -0.0252  0.0466  0.1545
   98OSM   H14A 9722   0.696   3.306  11.453 -1.4284  1.0709 -0.3721
   98OSM   H14B 9723   0.853   3.310  11.378  0.4084  0.7792 -1.6358
   98OSM   H14C 9724   0.724   3.259  11.281 -0.1440  0.1890  0.0672
   98OSM    C13 9725   0.739   3.559  11.428  0.9331 -0.5351 -0.7126
   98OSM   H13A 9726   0.810   3.533  11.505 -0.2030  1.3659  1.0201
   98OSM   H13B 9727   0.643   3.555  11.477  1.6078  1.1253  0.7902
   98OSM   H13C 9728   0.759   3.659  11.392  1.3495  0.4688  2.1714
   98OSM    C12 9729   0.616   3.484  11.221  0.1398 -0.3121 -0.2569
   98OSM   H12A 9730   0.606   3.590  11.204  2.6127 -0.0139  0.0691
   98OSM   H12B 9731   0.528   3.452  11.275  0.8549 -1.0846  0.4754
   98OSM    C11 9732   0.610   3.397  11.087 -0.6968 -0.0377  0.1285
   98OSM   H11A 9733   0.711   3.378  11.046 -1.4587 -1.4184 -1.1255
   98OSM   H11B 9734   0.552   3.459  11.016  0.8053  0.1847 -0.9318
   98OSM      P 9735   0.452   3.201  11.032 -0.1990  0.2129  0.3711
   98OSM    O13 9736   0.455   3.057  11.064 -0.0493 -0.3163 -0.1862
   98OSM    O14 9737   0.330   3.279  11.032 -0.0547  0.1102  0.2302
   98OSM    O11 9738   0.535   3.227  10.889 -0.4604  0.3660 -0.7010
   98OSM    O12 9739   0.553   3.272  11.129  0.1567 -0.3509  0.1386
   98OSM    C1S 9740   0.451   3.236  10.770  0.0303 -0.0024  0.0527
   98OSM    H1S 9741   0.416   3.341  10.755  3.5895  1.1176 -0.8892
   98OSM    H1T 9742   0.359   3.177  10.792  0.3909 -0.1418  1.2142
   98OSM     NF 9743   0.437   3.226  10.522  0.6815 -0.2293  0.3906
   98OSM    HNF 9744   0.382   3.158  10.476 -2.7540  1.6975  1.4214
   98OSM    C2S 9745   0.518   3.188  10.638 -0.1372  0.0025 -0.0803
   98OSM    H2S 9746   0.613   3.244  10.639 -0.1625  0.0476 -0.1731
   98OSM    C3S 9747   0.555   3.035  10.643 -0.5952  0.6272  0.0571
   98OSM    H3S 9748   0.464   2.978  10.616 -1.0502  0.8423  1.1184
   98OSM     O3 9749   0.590   2.995  10.776 -0.8685  0.0487 -0.1655
   98OSM    HO3 9750   0.588   3.077  10.826  0.8480  0.4988 -0.7887
   98OSM    C4S 9751   0.678   3.025  10.549  0.3275  0.2763 -0.2444
   98OSM    H4S 9752   0.768   3.079  10.583 -0.0760 -1.1870  3.4296
   98OSM    C5S 9753   0.686   2.949  10.440 -0.3102  0.9892 -0.1661
   98OSM    H5S 9754   0.606   2.883  10.405  0.6200 -0.2720  0.0699
   98OSM    C6S 9755   0.814   2.936  10.364 -0.4773 -0.3499 -0.5500
   98OSM    H6S 9756   0.847   2.830  10.355 -0.0804 -0.1723 -1.2298
   98OSM    H6T 9757   0.893   2.988  10.422 -0.7889 -0.0242 -0.4131
   98OSM    C7S 9758   0.804   3.005  10.226  0.1881  0.0853 -0.4999
   98OSM    H7S 9759   0.905   3.030  10.186  0.6110  1.4426  1.3548
   98OSM    H7T 9760   0.751   3.102  10.233  0.5561  0.2892 -0.5443
   98OSM    C8S 9761   0.740   2.916  10.123 -0.1982  0.3764 -0.2696
   98OSM    H8S 9762   0.646   2.872  10.163 -0.0908  0.7106  0.3490
   98OSM    H8T 9763   0.809   2.832  10.099  0.2506  0.6339  0.1249
   98OSM    C9S 9764   0.709   2.993   9.992 -0.5315  0.3616  0.3468
   98OSM    H9S 9765   0.765   3.088   9.987  0.5143 -0.2986 -0.8705
   98OSM    H9T 9766   0.600   3.012   9.991 -0.4306  1.0949  2.0492
   98OSM   C10S 9767   0.734   2.920   9.862 -0.2138  0.1745  0.2251
   98OSM   H10S 9768   0.675   2.826   9.859 -1.9014  1.2493 -1.8015
   98OSM   H10T 9769   0.842   2.898   9.852 -0.7540 -1.2005 -3.5886
   98OSM   C11S 9770   0.694   3.009   9.742  0.1412  0.3149  0.5555
   98OSM   H11S 9771   0.740   3.109   9.761  0.4343 -0.1262  2.2559
   98OSM   H11T 9772   0.583   3.015   9.739  0.1966  0.8035 -0.8293
   98OSM   C12S 9773   0.744   2.953   9.613 -0.5108  0.1250 -0.2631
   98OSM   H12S 9774   0.704   2.849   9.612 -1.7137  0.5625  0.8676
   98OSM   H12T 9775   0.854   2.947   9.624 -0.4026 -1.7141 -2.0993
   98OSM   C13S 9776   0.705   3.020   9.479  0.4857 -0.4822  0.4648
   98OSM   H13S 9777   0.737   3.126   9.485 -0.6669 -0.0200 -1.1460
   98OSM   H13T 9778   0.594   3.011   9.480  0.6726 -2.9748  1.2013
   98OSM   C14S 9779   0.766   2.971   9.348  0.4450 -0.6525  0.1337
   98OSM   H14S 9780   0.750   2.861   9.344  0.9216 -0.7465  0.6879
   98OSM   H14T 9781   0.873   2.999   9.353  0.4611  0.1298 -3.3847
   98OSM   C15S 9782   0.689   3.029   9.233 -0.5444  0.3362  0.0978
   98OSM   H15S 9783   0.704   3.138   9.221  1.4541  0.0108 -0.5044
   98OSM   H15T 9784   0.580   3.010   9.245 -0.4149 -1.2641 -1.1094
   98OSM   C16S 9785   0.722   2.960   9.103 -0.8432  0.5522 -0.5334
   98OSM   H16S 9786   0.662   3.016   9.028 -0.3282 -1.6197 -2.6236
   98OSM   H16T 9787   0.689   2.854   9.110  0.0513  0.3501  0.8882
   98OSM   C17S 9788   0.871   2.973   9.067 -0.1982  0.6024 -0.1122
   98OSM   H17S 9789   0.938   2.923   9.140 -0.9869  0.4039  0.4906
   98OSM   H17T 9790   0.899   3.080   9.074 -2.1150  1.2180 -1.6705
   98OSM   C18S 9791   0.898   2.924   8.922 -1.0339 -1.1328 -0.5695
   98OSM   H18S 9792   0.835   2.837   8.893  0.5993 -2.7063  0.5168
   98OSM   H18T 9793   1.007   2.911   8.903 -0.0821  3.1377  1.3455
   98OSM   H18U 9794   0.869   3.003   8.849 -0.5481  0.5648  1.0429
   98OSM    C1F 9795   0.405   3.355  10.498 -0.4259  0.1043 -0.2644
   98OSM     OF 9796   0.457   3.456  10.550 -0.0731 -0.4414 -0.0611
   98OSM    C2F 9797   0.291   3.381  10.407  0.0953  0.0729  0.3994
   98OSM    H2F 9798   0.203   3.410  10.468 -0.2835  1.1025 -0.6145
   98OSM    H2G 9799   0.268   3.288  10.351  2.4873 -0.1085 -0.3319
   98OSM    C3F 9800   0.318   3.490  10.295  0.5265  0.5889 -0.5823
   98OSM    H3F 9801   0.393   3.452  10.223 -1.9458 -2.1510 -1.7949
   98OSM    H3G 9802   0.358   3.584  10.340  0.5228  0.4374 -0.2617
   98OSM    C4F 9803   0.199   3.515  10.193 -0.8741 -0.1805 -0.4631
   98OSM    H4F 9804   0.216   3.611  10.141 -1.5323 -0.2438 -0.7903
   98OSM    H4G 9805   0.113   3.552  10.253 -0.3553  1.0484 -0.4687
   98OSM    C5F 9806   0.164   3.394  10.103  0.3223  0.1209  0.4080
   98OSM    H5F 9807   0.070   3.419  10.048  1.5838  2.0777 -0.9016
   98OSM    H5G 9808   0.148   3.301  10.161 -1.2173  1.1789  1.7445
   98OSM    C6F 9809   0.278   3.381   9.998  0.5182  0.3380 -0.8669
   98OSM    H6F 9810   0.373   3.359  10.051 -0.7945 -1.0109  0.9794
   98OSM    H6G 9811   0.290   3.481   9.950  0.7958  2.2715  3.0321
   98OSM    C7F 9812   0.249   3.275   9.893  0.0956 -0.6139  0.7806
   98OSM    H7F 9813   0.150   3.301   9.849  1.9329  0.3842 -3.0114
   98OSM    H7G 9814   0.243   3.179   9.950  0.7684  0.0246  1.9377
   98OSM    C8F 9815   0.349   3.285   9.781 -0.0078  0.6344 -0.9978
   98OSM    H8F 9816   0.455   3.285   9.816  0.1829  1.5149 -1.5491
   98OSM    H8G 9817   0.343   3.386   9.734  0.4998  0.8363 -0.6416
   98OSM    C9F 9818   0.323   3.167   9.689 -0.5853  0.4119 -0.0759
   98OSM    H9F 9819   0.312   3.069   9.739 -0.2134  0.7918  0.7489
   98OSM   C10F 9820   0.307   3.174   9.554  0.0945  1.0102  0.6301
   98OSM   H10F 9821   0.266   3.087   9.500 -0.6661  2.9074 -1.9317
   98OSM   C11F 9822   0.324   3.299   9.470  0.5609  0.0240  0.4268
   98OSM   H11F 9823   0.335   3.393   9.529  0.0086 -0.1900  0.8785
   98OSM   H11G 9824   0.231   3.316   9.411  1.1441  1.7835 -0.0129
   98OSM   C12F 9825   0.441   3.279   9.371  0.2399 -0.6686 -0.0406
   98OSM   H12F 9826   0.432   3.178   9.326  0.2883  0.2749 -2.2232
   98OSM   H12G 9827   0.543   3.288   9.415  1.1421 -0.7104 -2.0592
   98OSM   C13F 9828   0.431   3.394   9.268 -0.5864  0.1977  0.2319
   98OSM   H13F 9829   0.534   3.405   9.228 -0.5320  2.2116  0.8924
   98OSM   H13G 9830   0.396   3.490   9.312  1.6062  1.0086  0.2309
   98OSM   C14F 9831   0.337   3.358   9.158 -0.2719  0.8835  0.3381
   98OSM   H14F 9832   0.305   3.450   9.103  1.0999 -0.2818 -2.4965
   98OSM   H14G 9833   0.242   3.321   9.202 -1.2404  0.7015 -1.7999
   98OSM   C15F 9834   0.388   3.267   9.043 -0.3349 -0.3840  0.5578
   98OSM   H15F 9835   0.433   3.173   9.083  0.3027 -0.7369 -0.9679
   98OSM   H15G 9836   0.473   3.314   8.988  0.8383 -2.8263  0.2081
   98OSM   C16F 9837   0.280   3.228   8.934 -0.5862 -0.3854  0.2980
   98OSM   H16F 9838   0.221   3.143   8.975 -0.3882  0.4697  2.4371
   98OSM   H16G 9839   0.340   3.198   8.845  0.7497  0.6867  0.8162
   98OSM   C17F 9840   0.197   3.348   8.890 -0.7407 -0.2846 -0.3413
   98OSM   H17F 9841   0.254   3.441   8.868 -0.7593 -0.3444 -0.6396
   98OSM   H17G 9842   0.136   3.379   8.977  1.5210 -0.2446  1.2649
   98OSM   C18F 9843   0.121   3.311   8.766  0.4469 -0.5459 -0.1427
   98OSM   H18F 9844   0.051   3.227   8.788 -1.1929  0.8706  0.1347
   98OSM   H18G 9845   0.190   3.290   8.682  1.0272  0.8464 -0.0288
   98OSM   H18H 9846   0.075   3.408   8.737  1.1449 -0.4332 -0.9094
   99OSM      N 9847   2.725   3.957  10.848 -0.1257 -0.3682  0.1744
   99OSM    C15 9848   2.719   3.876  10.728  0.0932 -0.5969 -0.2110
   99OSM   H15A 9849   2.716   3.938  10.639 -1.1274  0.7642  0.7714
   99OSM   H15B 9850   2.625   3.823  10.718  0.8456 -2.3682  1.8065
   99OSM   H15C 9851   2.807   3.814  10.719  1.0580  0.3177  2.4426
   99OSM    C14 9852   2.730   3.859  10.961 -0.6494  0.1985 -0.4664
   99OSM   H14A 9853   2.811   3.788  10.947 -0.9869 -0.6437  1.7113
   99OSM   H14B 9854   2.637   3.803  10.965 -0.4960 -0.0780 -0.6856
   99OSM   H14C 9855   2.735   3.904  11.058 -2.2403 -0.4132 -0.0801
   99OSM    C13 9856   2.856   4.027  10.850  0.1726  0.3284 -0.0642
   99OSM   H13A 9857   2.886   4.074  10.941  0.2514  1.8532 -0.8663
   99OSM   H13B 9858   2.863   4.101  10.772  0.1945  1.1242  0.6978
   99OSM   H13C 9859   2.925   3.946  10.830 -0.3053 -0.5316  1.6798
   99OSM    C12 9860   2.607   4.046  10.850  0.4444  0.2393  0.2484
   99OSM   H12A 9861   2.514   3.991  10.845  0.3722  0.3221  0.6603
   99OSM   H12B 9862   2.604   4.102  10.758  0.2108  0.0183  0.1224
   99OSM    C11 9863   2.597   4.151  10.964  0.6146  0.8485 -0.5072
   99OSM   H11A 9864   2.613   4.114  11.067 -0.0436 -1.0539 -1.0639
   99OSM   H11B 9865   2.495   4.193  10.958 -0.4215 -1.5121 -0.1094
   99OSM      P 9866   2.667   4.374  10.844 -0.0536  0.1043  0.3019
   99OSM    O13 9867   2.601   4.489  10.912  0.1721 -0.8363 -0.6096
   99OSM    O14 9868   2.796   4.399  10.778  0.1158 -0.3013 -0.3284
   99OSM    O11 9869   2.572   4.321  10.737 -0.1426  0.2705  0.1861
   99OSM    O12 9870   2.698   4.255  10.946 -0.1725  0.4897  0.5763
   99OSM    C1S 9871   2.466   4.396  10.678 -0.1897  0.7675  0.2975
   99OSM    H1S 9872   2.473   4.507  10.671 -3.7905  0.8961 -2.7319
   99OSM    H1T 9873   2.375   4.373  10.736  2.0716 -3.1851  2.4486
   99OSM     NF 9874   2.298   4.402  10.493  0.0199 -0.3754  0.3383
   99OSM    HNF 9875   2.210   4.361  10.515 -0.3681 -1.5741 -3.2217
   99OSM    C2S 9876   2.423   4.340  10.533 -0.2391  0.1576 -0.2704
   99OSM    H2S 9877   2.498   4.384  10.464  0.2991 -0.9157 -0.3695
   99OSM    C3S 9878   2.425   4.188  10.535  0.0333 -0.3669  0.2429
   99OSM    H3S 9879   2.356   4.144  10.611  1.7363 -0.0844  1.9948
   99OSM     O3 9880   2.559   4.143  10.556 -0.1804 -0.0805 -0.0579
   99OSM    HO3 9881   2.602   4.216  10.600  0.5802 -0.4054 -0.2543
   99OSM    C4S 9882   2.372   4.139  10.402  0.0998 -0.2701  0.6453
   99OSM    H4S 9883   2.453   4.115  10.331  0.0188 -1.8398  1.0437
   99OSM    C5S 9884   2.244   4.111  10.369  0.2168  0.8479 -0.1924
   99OSM    H5S 9885   2.160   4.102  10.440  1.4953  1.8522  1.4724
   99OSM    C6S 9886   2.209   4.054  10.229 -0.0369  0.2579  0.1569
   99OSM    H6S 9887   2.105   4.077  10.198  0.5654  2.1203 -0.5045
   99OSM    H6T 9888   2.225   3.944  10.229  2.5460  0.6117 -0.6254
   99OSM    C7S 9889   2.287   4.113  10.110 -0.2444 -0.7815  0.5555
   99OSM    H7S 9890   2.388   4.068  10.112 -0.4972 -1.8984 -4.5591
   99OSM    H7T 9891   2.292   4.224  10.109  2.0478 -0.8645  0.2341
   99OSM    C8S 9892   2.225   4.056   9.981  0.1738 -0.0743 -0.0361
   99OSM    H8S 9893   2.117   4.080   9.979  0.1114 -0.2511  0.8167
   99OSM    H8T 9894   2.216   3.946   9.984 -0.9201 -0.0177 -1.0951
   99OSM    C9S 9895   2.298   4.089   9.847  0.3717 -0.6627  0.1001
   99OSM    H9S 9896   2.405   4.063   9.864  1.0290  0.4569 -2.1392
   99OSM    H9T 9897   2.290   4.197   9.825 -0.0635 -1.0437 -1.7228
   99OSM   C10S 9898   2.224   4.022   9.723 -0.7584 -0.2644 -0.6971
   99OSM   H10S 9899   2.122   4.056   9.695 -1.4354  0.0157  1.9393
   99OSM   H10T 9900   2.221   3.914   9.749 -0.8207 -0.4454 -1.4540
   99OSM   C11S 9901   2.315   4.034   9.599  0.0082  0.6347  0.2043
   99OSM   H11S 9902   2.275   3.963   9.524  0.1958  1.6549 -0.8705
   99OSM   H11T 9903   2.418   4.003   9.629 -0.1783  1.2997  1.5704
   99OSM   C12S 9904   2.322   4.175   9.547  0.1418 -0.2816 -0.5450
   99OSM   H12S 9905   2.218   4.215   9.538 -1.1663 -2.8678  2.2410
   99OSM   H12T 9906   2.362   4.239   9.629  0.2984  1.9191 -2.2685
   99OSM   C13S 9907   2.402   4.186   9.417 -0.5587 -0.0536 -0.5832
   99OSM   H13S 9908   2.468   4.096   9.414 -0.2277 -0.1016  4.4587
   99OSM   H13T 9909   2.457   4.282   9.426  0.6000 -0.7926  0.4705
   99OSM   C14S 9910   2.316   4.187   9.292 -0.3611  0.4653  0.5023
   99OSM   H14S 9911   2.234   4.254   9.328 -0.4202  0.8224 -0.2826
   99OSM   H14T 9912   2.271   4.087   9.277  2.1978 -0.5461 -0.6869
   99OSM   C15S 9913   2.378   4.238   9.169 -0.1562 -0.2916  0.1824
   99OSM   H15S 9914   2.475   4.190   9.144  1.0601  0.0301  4.0104
   99OSM   H15T 9915   2.388   4.347   9.188 -1.2209 -0.3418  1.0747
   99OSM   C16S 9916   2.285   4.250   9.045  0.3179 -0.9735 -0.1336
   99OSM   H16S 9917   2.210   4.325   9.076  2.7714  1.5823 -0.1615
   99OSM   H16T 9918   2.233   4.154   9.022 -0.4886  0.0800 -2.8860
   99OSM   C17S 9919   2.367   4.289   8.925  0.3019 -0.0088  0.0835
   99OSM   H17S 9920   2.454   4.344   8.965  1.7944 -2.1706 -0.0993
   99OSM   H17T 9921   2.322   4.377   8.873  1.4865  1.3100  1.2529
   99OSM   C18S 9922   2.408   4.193   8.819 -0.5873  0.1417 -0.7971
   99OSM   H18S 9923   2.499   4.226   8.765  0.2895 -0.5202  0.2414
   99OSM   H18T 9924   2.327   4.177   8.745 -0.9757  1.0616 -0.5775
   99OSM   H18U 9925   2.427   4.093   8.865 -0.8257  0.8964  0.9466
   99OSM    C1F 9926   2.303   4.532  10.462  0.1882 -0.4635 -0.4490
   99OSM     OF 9927   2.409   4.600  10.438 -0.2595  0.0299 -0.0134
   99OSM    C2F 9928   2.173   4.607  10.460 -0.2470  0.3320 -0.3017
   99OSM    H2F 9929   2.195   4.699  10.517  1.8740 -0.8736  0.8946
   99OSM    H2G 9930   2.095   4.543  10.508  0.9490 -0.3863  0.7197
   99OSM    C3F 9931   2.119   4.647  10.315  0.0836 -0.0796 -0.4433
   99OSM    H3F 9932   2.085   4.566  10.247 -1.3771  0.5416 -0.4707
   99OSM    H3G 9933   2.028   4.703  10.344  0.6696  0.3881  0.4974
   99OSM    C4F 9934   2.198   4.740  10.225  0.4067 -0.1151 -0.5617
   99OSM    H4F 9935   2.297   4.706  10.187 -0.3891  0.1399 -3.0077
   99OSM    H4G 9936   2.213   4.834  10.281 -0.9372 -1.2250  1.7230
   99OSM    C5F 9937   2.114   4.777  10.105  0.0578 -0.6814 -0.1006
   99OSM    H5F 9938   2.012   4.808  10.137 -0.4085  1.0817 -3.0886
   99OSM    H5G 9939   2.093   4.692  10.037  0.9140  0.1744 -1.4708
   99OSM    C6F 9940   2.184   4.894  10.037  0.0757  0.2892  0.2801
   99OSM    H6F 9941   2.292   4.874  10.049 -0.1833 -0.5688  1.2381
   99OSM    H6G 9942   2.162   4.988  10.092  0.6916 -0.8587  2.5180
   99OSM    C7F 9943   2.145   4.914   9.886  0.4706 -1.1720  0.8282
   99OSM    H7F 9944   2.037   4.940   9.875  0.4495 -1.9117 -0.8262
   99OSM    H7G 9945   2.142   4.808   9.853 -4.1293 -0.6566 -0.9144
   99OSM    C8F 9946   2.252   4.971   9.792  0.1313  0.1233  0.0916
   99OSM    H8F 9947   2.222   4.947   9.688 -1.0986 -0.3746  0.5503
   99OSM    H8G 9948   2.349   4.918   9.807  0.0746 -0.0299 -0.0866
   99OSM    C9F 9949   2.264   5.125   9.805 -0.1418 -0.0494 -0.4099
   99OSM    H9F 9950   2.338   5.155   9.881 -0.4563 -1.6534  0.5643
   99OSM   C10F 9951   2.216   5.220   9.724  0.3942 -0.1047  0.1113
   99OSM   H10F 9952   2.225   5.329   9.737 -3.7701  0.6446 -2.3590
   99OSM   C11F 9953   2.135   5.184   9.602 -0.0872  0.2954  0.0614
   99OSM   H11F 9954   2.059   5.260   9.576 -0.9940 -0.3501  0.7702
   99OSM   H11G 9955   2.079   5.090   9.620  1.9798 -0.8423  0.7764
   99OSM   C12F 9956   2.209   5.177   9.466 -0.0801 -0.5043  0.2645
   99OSM   H12F 9957   2.291   5.102   9.472 -0.5077 -1.0858 -0.8173
   99OSM   H12G 9958   2.260   5.274   9.444  0.5461 -0.7520  0.6049
   99OSM   C13F 9959   2.112   5.142   9.358  0.1723 -0.3472 -0.1589
   99OSM   H13F 9960   2.037   5.222   9.342  1.4549  1.2081  1.4026
   99OSM   H13G 9961   2.048   5.064   9.405 -2.2752  1.3681 -0.6019
   99OSM   C14F 9962   2.177   5.092   9.228  0.2697 -0.0144  0.3961
   99OSM   H14F 9963   2.088   5.059   9.170  0.5537  0.3797 -0.2584
   99OSM   H14G 9964   2.235   5.000   9.249 -0.0900 -0.7571 -1.7624
   99OSM   C15F 9965   2.262   5.196   9.140  0.2052 -0.0615 -0.3432
   99OSM   H15F 9966   2.348   5.239   9.196  1.5017 -3.2055  0.1827
   99OSM   H15G 9967   2.197   5.279   9.104  1.8762  1.1968 -0.5239
   99OSM   C16F 9968   2.314   5.128   9.012 -0.6425  0.1752  0.8190
   99OSM   H16F 9969   2.232   5.063   8.974 -3.2521  2.5637  2.1157
   99OSM   H16G 9970   2.401   5.063   9.036 -0.7617 -0.6445 -0.8646
   99OSM   C17F 9971   2.348   5.231   8.900  0.0551  0.0077  0.0574
   99OSM   H17F 9972   2.433   5.298   8.927  1.1481 -1.1558 -0.4047
   99OSM   H17G 9973   2.263   5.302   8.900 -1.6192 -1.9696 -0.7418
   99OSM   C18F 9974   2.379   5.162   8.770  0.3250 -0.3346  0.4414
   99OSM   H18F 9975   2.294   5.094   8.749 -0.7516  0.3419  2.4810
   99OSM   H18G 9976   2.470   5.098   8.765 -0.6731 -1.7233 -0.2691
   99OSM   H18H 9977   2.363   5.239   8.693 -1.5937 -0.1569  1.0004
  100OSM      N 9978   4.885   4.748  10.928  0.0824 -0.3052 -0.0783
  100OSM    C15 9979   5.012   4.820  10.880 -0.1454 -1.0306 -0.5251
  100OSM   H15A 9980   4.984   4.881  10.795 -2.4075 -1.4824 -0.1466
  100OSM   H15B 9981   5.099   4.759  10.862  1.2027  0.2696  1.3139
  100OSM   H15C 9982   5.043   4.882  10.963 -2.3951 -2.3505  1.3648
  100OSM    C14 9983   4.862   4.640  10.830 -0.3845 -0.0235 -0.5548
  100OSM   H14A 9984   4.939   4.568  10.853  0.6354  1.4263  0.6215
  100OSM   H14B 9985   4.858   4.660  10.724 -0.9273 -2.8175 -1.1026
  100OSM   H14C 9986   4.767   4.595  10.855  0.3137 -1.5268 -0.5412
  100OSM    C13 9987   4.911   4.687  11.064 -0.0237 -0.3709  0.1719
  100OSM   H13A 9988   4.920   4.762  11.141  0.2465 -0.4655  0.2300
  100OSM   H13B 9989   5.005   4.634  11.056 -0.6074 -1.8384  2.4761
  100OSM   H13C 9990   4.832   4.616  11.087  0.7362 -1.2610  0.0821
  100OSM    C12 9991   4.761   4.837  10.938  0.4636 -0.2262  0.4122
  100OSM   H12A 9992   4.739   4.877  10.840 -1.0396  0.8905  1.2038
  100OSM   H12B 9993   4.781   4.922  11.001 -1.1466 -0.8488  1.8043
  100OSM    C11 9994   4.626   4.778  10.983 -0.0549 -0.2551  0.1944
  100OSM   H11A 9995   4.566   4.866  11.014  0.1232 -0.3571  0.8397
  100OSM   H11B 9996   4.635   4.719  11.077 -0.9316 -1.9883 -0.7819
  100OSM      P 9997   4.441   4.728  10.803  0.2383  0.2950 -0.4042
  100OSM    O13 9998   4.339   4.623  10.837  0.9383 -0.7518  0.3751
  100OSM    O14 9999   4.396   4.867  10.828 -0.0504  0.2208  0.2727
  100OSM    O1110000   4.470   4.721  10.652 -0.3517  0.1898 -0.3657
  100OSM    O1210001   4.571   4.696  10.880 -0.3000  0.6221 -0.5955
  100OSM    C1S10002   4.586   4.655  10.596 -0.3272 -0.2448  0.1210
  100OSM    H1S10003   4.605   4.552  10.634 -0.5055 -1.2311 -2.3972
  100OSM    H1T10004   4.676   4.716  10.621 -0.5906  0.5808 -0.9151
  100OSM     NF10005   4.645   4.540  10.384 -0.3875  0.2952 -0.3301
  100OSM    HNF10006   4.719   4.579  10.330  1.0348 -1.0813  0.5596
  100OSM    C2S10007   4.550   4.633  10.447 -0.2499  0.4958 -0.4605
  100OSM    H2S10008   4.450   4.585  10.449 -0.4253  0.9065  2.9549
  100OSM    C3S10009   4.537   4.773  10.382  0.4022  0.6140  0.5469
  100OSM    H3S10010   4.632   4.827  10.401 -0.7358  2.5884  0.7247
  100OSM     O310011   4.437   4.858  10.434  0.1262  0.1034  0.8674
  100OSM    HO310012   4.421   4.822  10.522 -3.4142  2.1221  1.1392
  100OSM    C4S10013   4.509   4.757  10.230 -0.6622 -0.4499  0.0431
  100OSM    H4S10014   4.406   4.741  10.196 -0.1711 -1.6724 -0.8855
  100OSM    C5S10015   4.590   4.779  10.126  0.3435  0.2105 -0.2166
  100OSM    H5S10016   4.697   4.804  10.135  0.9791 -2.2019 -0.7216
  100OSM    C6S10017   4.560   4.763   9.982 -0.6753 -0.0040 -0.1777
  100OSM    H6S10018   4.545   4.859   9.930 -0.6754  0.4420  0.6412
  100OSM    H6T10019   4.466   4.706   9.963 -1.3871  0.9731  0.3359
  100OSM    C7S10020   4.682   4.694   9.919  0.2943 -0.0563 -0.3525
  100OSM    H7S10021   4.713   4.601   9.971  1.4631  0.3091 -0.3825
  100OSM    H7T10022   4.767   4.765   9.930 -0.9479  1.3254  0.5280
  100OSM    C8S10023   4.666   4.661   9.777 -0.0616 -0.0177  0.0965
  100OSM    H8S10024   4.620   4.744   9.720 -0.4651 -0.8010 -0.7506
  100OSM    H8T10025   4.582   4.588   9.773  0.5454 -0.7284  0.1492
  100OSM    C9S10026   4.797   4.605   9.723  0.6170  0.6295 -0.0611
  100OSM    H9S10027   4.827   4.506   9.763 -0.6030  0.2539 -0.0657
  100OSM    H9T10028   4.882   4.672   9.751 -0.3983  0.3355  4.0267
  100OSM   C10S10029   4.803   4.605   9.566 -0.3678 -0.2904 -0.2163
  100OSM   H10S10030   4.905   4.572   9.536  0.9568  1.8121  1.8284
  100OSM   H10T10031   4.786   4.709   9.532 -1.4493 -0.2657  0.3821
  100OSM   C11S10032   4.705   4.510   9.493 -0.4452 -0.9180  0.3073
  100OSM   H11S10033   4.599   4.542   9.505 -1.2834 -2.9319 -1.3413
  100OSM   H11T10034   4.710   4.405   9.530  1.3112 -1.1634 -0.6024
  100OSM   C12S10035   4.736   4.501   9.338 -0.7305 -0.2592  0.4276
  100OSM   H12S10036   4.829   4.441   9.326 -0.6916 -0.5089  1.8853
  100OSM   H12T10037   4.755   4.602   9.296  1.5349 -1.8285 -2.5499
  100OSM   C13S10038   4.623   4.439   9.262  0.1014 -0.3463  0.3055
  100OSM   H13S10039   4.533   4.503   9.274 -0.1029 -0.2190 -1.8405
  100OSM   H13T10040   4.596   4.334   9.286  1.3954 -0.4344  1.4473
  100OSM   C14S10041   4.658   4.457   9.112  0.4995  0.0577 -0.5835
  100OSM   H14S10042   4.753   4.406   9.087  0.2977 -0.6132 -0.0096
  100OSM   H14T10043   4.688   4.562   9.091  0.1065  0.3536  0.3008
  100OSM   C15S10044   4.542   4.414   9.032 -0.6686 -0.1177  0.0578
  100OSM   H15S10045   4.455   4.480   9.055  1.8905  3.2452  0.5032
  100OSM   H15T10046   4.514   4.311   9.061 -1.0593 -0.1915 -0.5698
  100OSM   C16S10047   4.579   4.440   8.887  0.2533 -0.6020 -0.5195
  100OSM   H16S10048   4.643   4.530   8.878  0.3342 -0.4482  1.4145
  100OSM   H16T10049   4.499   4.462   8.812 -1.6675  0.0605  1.6660
  100OSM   C17S10050   4.668   4.320   8.842  0.5527  0.3901  0.5322
  100OSM   H17S10051   4.621   4.222   8.867  0.4749  1.0707  3.2205
  100OSM   H17T10052   4.772   4.337   8.877  1.9126 -0.8236 -2.7892
  100OSM   C18S10053   4.686   4.309   8.694 -0.1432 -0.8556 -0.3262
  100OSM   H18S10054   4.585   4.303   8.649 -1.2743 -0.3325  2.0679
  100OSM   H18T10055   4.730   4.209   8.675 -2.0178 -1.7676  0.0788
  100OSM   H18U10056   4.746   4.393   8.652 -2.4526  0.6823 -0.5969
  100OSM    C1F10057   4.640   4.406  10.393  0.1309 -0.4653 -0.3787
  100OSM     OF10058   4.544   4.357  10.455 -0.4255 -0.7334  0.1655
  100OSM    C2F10059   4.758   4.330  10.346  0.8298 -0.0560 -0.1085
  100OSM    H2F10060   4.821   4.291  10.429  2.1369 -0.6048 -1.3614
  100OSM    H2G10061   4.829   4.381  10.278 -0.4055  1.1897 -0.4992
  100OSM    C3F10062   4.710   4.191  10.278  0.4392  0.1320 -0.4266
  100OSM    H3F10063   4.643   4.140  10.350  0.0686  0.0539 -0.8238
  100OSM    H3G10064   4.786   4.118  10.244 -0.9018 -0.7576 -1.5706
  100OSM    C4F10065   4.618   4.215  10.156 -0.3097 -0.2412  1.2096
  100OSM    H4F10066   4.518   4.248  10.192 -1.4759 -1.0148 -1.2455
  100OSM    H4G10067   4.587   4.123  10.102 -2.0167  0.1860  1.4182
  100OSM    C5F10068   4.680   4.298  10.042 -0.8670  0.0191 -0.0070
  100OSM    H5F10069   4.775   4.248  10.011 -1.3875  0.5220 -2.4886
  100OSM    H5G10070   4.703   4.397  10.087 -3.4240  0.2806  0.8067
  100OSM    C6F10071   4.596   4.330   9.917 -0.3514  0.3461  0.0983
  100OSM    H6F10072   4.567   4.234   9.870 -0.3257  1.8336 -3.0308
  100OSM    H6G10073   4.645   4.390   9.838  0.9184  1.9709  2.0497
  100OSM    C7F10074   4.463   4.396   9.957  0.7573  0.0078 -0.0619
  100OSM    H7F10075   4.475   4.489  10.017 -1.6033 -0.0566  0.5659
  100OSM    H7G10076   4.415   4.323  10.025 -1.9930  3.2616  1.5806
  100OSM    C8F10077   4.362   4.427   9.843  0.1979  0.4188  0.1646
  100OSM    H8F10078   4.415   4.499   9.778  1.2290  0.2926  0.8406
  100OSM    H8G10079   4.279   4.477   9.898 -1.4815  1.3877 -3.1451
  100OSM    C9F10080   4.318   4.302   9.776  0.4830 -0.3955  0.5014
  100OSM    H9F10081   4.290   4.222   9.847 -1.4864 -0.1930 -0.0232
  100OSM   C10F10082   4.284   4.288   9.645  0.2212  0.5080 -0.3957
  100OSM   H10F10083   4.242   4.196   9.603 -0.6968  0.0402  1.4562
  100OSM   C11F10084   4.289   4.408   9.553 -0.6778  0.1225 -0.1574
  100OSM   H11F10085   4.385   4.463   9.557 -0.4193 -0.3189 -0.3386
  100OSM   H11G10086   4.208   4.481   9.577  0.9157  2.2446 -1.0908
  100OSM   C12F10087   4.286   4.364   9.404  0.3082  0.4301 -0.3271
  100OSM   H12F10088   4.380   4.307   9.386  0.7750  0.8280  0.7657
  100OSM   H12G10089   4.287   4.453   9.337 -1.6300 -0.0974 -1.0625
  100OSM   C13F10090   4.163   4.284   9.365  0.4705  0.8632  0.6182
  100OSM   H13F10091   4.064   4.333   9.356  0.5214  0.4623 -3.1077
  100OSM   H13G10092   4.131   4.208   9.439 -2.7929  0.4463 -1.1395
  100OSM   C14F10093   4.182   4.196   9.236  0.1815 -0.3664  0.6318
  100OSM   H14F10094   4.090   4.137   9.215 -0.6425  1.2878 -0.4874
  100OSM   H14G10095   4.274   4.134   9.237  0.1590 -0.3976  0.7964
  100OSM   C15F10096   4.201   4.278   9.114  0.2194  0.2432  0.0363
  100OSM   H15F10097   4.263   4.219   9.044  1.1004 -1.6048  2.3038
  100OSM   H15G10098   4.262   4.366   9.143 -1.6632  0.9209  2.1252
  100OSM   C16F10099   4.068   4.325   9.046  0.9743 -0.1136  0.2640
  100OSM   H16F10100   4.009   4.387   9.117  1.4729 -0.9853  1.4575
  100OSM   H16G10101   4.011   4.237   9.009 -1.0087  0.6188  1.5014
  100OSM   C17F10102   4.093   4.417   8.926 -0.0229 -0.3146  0.1058
  100OSM   H17F10103   4.138   4.365   8.839  1.9764  0.2918  0.7486
  100OSM   H17G10104   4.154   4.505   8.956  1.0666 -1.5392  1.5204
  100OSM   C18F10105   3.962   4.483   8.885  0.6837 -0.3408  0.1677
  100OSM   H18F10106   3.976   4.554   8.800  3.1451 -0.4703  0.4444
  100OSM   H18G10107   3.927   4.547   8.969  2.6568  2.4167 -1.0468
  100OSM   H18H10108   3.882   4.409   8.863 -0.5840  1.4693 -1.5867
  101OSM      N10109   0.006   4.694  11.200  0.2066 -0.0288  0.1549
  101OSM    C1510110  -0.103   4.588  11.184  0.5475  0.1050 -0.2569
  101OSM   H15A10111  -0.185   4.603  11.252 -0.0308  0.0202 -0.9404
  101OSM   H15B10112  -0.066   4.487  11.194  2.8676  0.9197 -0.1749
  101OSM   H15C10113  -0.139   4.597  11.083 -0.7639  0.2842  0.2277
  101OSM    C1410114  -0.053   4.823  11.162  0.8489 -0.1790 -0.0016
  101OSM   H14A10115  -0.100   4.814  11.066 -0.6825 -0.2959  0.7533
  101OSM   H14B10116   0.018   4.903  11.149 -0.2511  0.7874 -0.1146
  101OSM   H14C10117  -0.136   4.852  11.225  1.0810 -0.3188  0.3696
  101OSM    C1310118   0.047   4.687  11.344  0.1854 -0.1265  0.4772
  101OSM   H13A10119   0.132   4.753  11.355  1.7955 -1.9585 -0.5822
  101OSM   H13B10120   0.074   4.583  11.358 -1.8311 -0.9031 -1.1119
  101OSM   H13C10121  -0.030   4.716  11.414 -1.9477 -1.9433 -1.0472
  101OSM    C1210122   0.129   4.652  11.120  0.4310 -0.8493  0.1998
  101OSM   H12A10123   0.113   4.618  11.019  1.5017 -0.7558 -0.0072
  101OSM   H12B10124   0.164   4.564  11.172  0.2141 -1.3697 -0.5121
  101OSM    C1110125   0.255   4.745  11.124  1.0135 -0.5222  0.6164
  101OSM   H11A10126   0.348   4.701  11.081  1.8582  1.7164  0.0374
  101OSM   H11B10127   0.284   4.757  11.230  0.1209 -2.6975  1.1138
  101OSM      P10128   0.214   4.916  10.932 -0.2073  0.2031 -0.2959
  101OSM    O1310129   0.077   4.881  10.883  0.6227 -0.1168  0.1458
  101OSM    O1410130   0.258   5.052  10.904  0.4431 -0.0827 -0.1024
  101OSM    O1110131   0.308   4.819  10.855 -0.3625  0.4637  0.1736
  101OSM    O1210132   0.227   4.881  11.085 -0.5306  0.5481  0.2971
  101OSM    C1S10133   0.391   4.867  10.750 -0.3259 -0.3068  0.3307
  101OSM    H1S10134   0.473   4.920  10.803  0.0020 -1.3197  0.8440
  101OSM    H1T10135   0.334   4.937  10.685 -1.2613 -1.6122 -0.2867
  101OSM     NF10136   0.539   4.801  10.572 -0.1909  0.2497  0.3832
  101OSM    HNF10137   0.511   4.831  10.481 -1.3062  0.4300  0.7703
  101OSM    C2S10138   0.434   4.750  10.663  0.2640  0.6032  0.6747
  101OSM    H2S10139   0.481   4.665  10.717 -2.3606  0.4202  2.8076
  101OSM    C3S10140   0.318   4.695  10.578 -0.3736 -0.4286  0.4475
  101OSM    H3S10141   0.295   4.769  10.499 -0.4385 -1.6223 -0.6591
  101OSM     O310142   0.194   4.675  10.644  0.2478  0.2797 -0.3753
  101OSM    HO310143   0.215   4.711  10.730  0.6886  1.6478 -1.0410
  101OSM    C4S10144   0.353   4.573  10.495  0.0179  0.2607  0.1426
  101OSM    H4S10145   0.337   4.474  10.539 -2.9580  0.3908 -0.5666
  101OSM    C5S10146   0.366   4.577  10.361  0.1869  0.3084 -0.1016
  101OSM    H5S10147   0.366   4.674  10.311 -2.0215 -0.2257 -1.1780
  101OSM    C6S10148   0.397   4.456  10.277 -0.2711  0.1366  0.3879
  101OSM    H6S10149   0.310   4.400  10.239  1.4530 -1.4212 -1.3368
  101OSM    H6T10150   0.463   4.386  10.332 -2.2222 -1.8738  0.2030
  101OSM    C7S10151   0.475   4.485  10.153 -0.3842 -0.0088 -0.2450
  101OSM    H7S10152   0.562   4.554  10.160 -1.2078  1.3117 -2.4619
  101OSM    H7T10153   0.409   4.547  10.088  0.8809  4.1001  2.1659
  101OSM    C8S10154   0.530   4.366  10.083 -0.1097 -0.4313 -0.6897
  101OSM    H8S10155   0.449   4.292  10.069 -0.7432 -0.0964  1.1327
  101OSM    H8T10156   0.621   4.316  10.123 -0.2473 -1.4949 -1.6734
  101OSM    C9S10157   0.556   4.411   9.936 -0.0248 -0.7146 -0.0865
  101OSM    H9S10158   0.625   4.496   9.955 -1.3204  1.1208 -3.1728
  101OSM    H9T10159   0.464   4.449   9.887  0.0587  0.0686  0.3503
  101OSM   C10S10160   0.629   4.305   9.852 -0.5234 -0.2874  0.0527
  101OSM   H10S10161   0.585   4.205   9.877 -0.6840  0.6661  3.9446
  101OSM   H10T10162   0.736   4.287   9.879 -0.8984 -0.4767  1.4500
  101OSM   C11S10163   0.606   4.316   9.700 -0.2014 -0.5940  0.4252
  101OSM   H11S10164   0.498   4.296   9.689 -0.1079 -1.3510  0.8139
  101OSM   H11T10165   0.657   4.231   9.649  3.4998  1.9884 -0.3927
  101OSM   C12S10166   0.654   4.444   9.629  0.4918 -0.5639  0.3677
  101OSM   H12S10167   0.757   4.475   9.658  0.5048  1.1330 -1.3720
  101OSM   H12T10168   0.591   4.531   9.657  1.4970  0.1563  0.4269
  101OSM   C13S10169   0.647   4.443   9.475 -0.6967  0.4309  0.0786
  101OSM   H13S10170   0.552   4.397   9.441  0.2787 -1.2761 -0.4022
  101OSM   H13T10171   0.742   4.400   9.436  0.1175  1.9388  0.3464
  101OSM   C14S10172   0.641   4.588   9.423  0.3344 -0.2244  0.7397
  101OSM   H14S10173   0.727   4.632   9.477 -0.4516  0.3903  1.5089
  101OSM   H14T10174   0.548   4.648   9.434  2.2534  2.7871  1.0277
  101OSM   C15S10175   0.674   4.590   9.274  0.3651  0.1136 -0.2836
  101OSM   H15S10176   0.601   4.532   9.214  1.0935 -1.5153  0.3859
  101OSM   H15T10177   0.764   4.528   9.256  0.1177 -0.3647  0.1211
  101OSM   C16S10178   0.682   4.731   9.220  0.7711  0.5019  1.0771
  101OSM   H16S10179   0.764   4.785   9.272  2.8657 -1.0792 -0.5259
  101OSM   H16T10180   0.577   4.766   9.229  0.8579  0.8504  0.7771
  101OSM   C17S10181   0.730   4.742   9.073  0.1824  0.4052 -0.6382
  101OSM   H17S10182   0.719   4.842   9.024 -0.6792 -0.1532 -1.5975
  101OSM   H17T10183   0.657   4.685   9.011  1.8854 -2.3642 -0.1247
  101OSM   C18S10184   0.871   4.688   9.045 -1.3261  0.3976 -0.4993
  101OSM   H18S10185   0.886   4.588   8.999  1.6674  0.3559  0.4430
  101OSM   H18T10186   0.918   4.679   9.146  1.2652  1.9762 -1.4993
  101OSM   H18U10187   0.934   4.762   8.991  0.8440 -1.0306  0.0023
  101OSM    C1F10188   0.667   4.818  10.605  0.1855 -0.7407  0.4746
  101OSM     OF10189   0.710   4.791  10.718 -0.1471  0.2756  0.3767
  101OSM    C2F10190   0.751   4.890  10.502 -0.2076 -0.2620  0.0519
  101OSM    H2F10191   0.766   4.997  10.531  0.7166 -0.4398  0.2671
  101OSM    H2G10192   0.691   4.877  10.410  0.3695  1.1884 -0.5434
  101OSM    C3F10193   0.889   4.819  10.496  0.5214  0.0322  0.1287
  101OSM    H3F10194   0.860   4.712  10.498  3.1799 -0.7111  0.6768
  101OSM    H3G10195   0.949   4.838  10.587  0.3917  0.3812  0.1420
  101OSM    C4F10196   0.968   4.858  10.369  0.1538 -0.2357  0.5494
  101OSM    H4F10197   1.076   4.835  10.384  0.0430 -0.4074  1.0755
  101OSM    H4G10198   0.964   4.968  10.352  2.3589 -0.3328 -0.8086
  101OSM    C5F10199   0.917   4.795  10.243  0.3540  0.7591 -0.1280
  101OSM    H5F10200   0.806   4.803  10.231 -0.0208 -1.2719  1.6753
  101OSM    H5G10201   0.936   4.685  10.235  0.3516  0.7399  0.1329
  101OSM    C6F10202   0.998   4.835  10.110  0.3086 -0.8943  0.1219
  101OSM    H6F10203   1.106   4.821  10.129  0.0308 -0.9210  1.7881
  101OSM    H6G10204   0.962   4.763  10.033  1.6130 -1.5020  0.0677
  101OSM    C7F10205   0.957   4.979  10.077  0.2310  0.7563 -0.5673
  101OSM    H7F10206   0.989   5.051  10.156 -0.4038 -0.9905  1.3171
  101OSM    H7G10207   0.847   4.991  10.081  0.1484 -0.2017  0.2324
  101OSM    C8F10208   1.010   5.025   9.944  0.5673 -0.7067  0.3850
  101OSM    H8F10209   0.957   5.117   9.914  0.8167 -0.9923 -0.9820
  101OSM    H8G10210   0.988   4.947   9.868  2.2845  0.0970 -0.9770
  101OSM    C9F10211   1.158   5.050   9.966 -0.5897  0.4359 -0.1483
  101OSM    H9F10212   1.181   5.099  10.061  1.1170 -0.1357 -0.2342
  101OSM   C10F10213   1.262   5.056   9.879 -1.0751 -0.3994  0.2930
  101OSM   H10F10214   1.365   5.073   9.913 -0.9821  1.5773 -0.8980
  101OSM   C11F10215   1.239   5.035   9.733  0.6027  0.4778  0.2170
  101OSM   H11F10216   1.134   5.029   9.698  0.5851 -1.3465  0.5423
  101OSM   H11G10217   1.286   4.937   9.708  0.1361  0.0733  0.9216
  101OSM   C12F10218   1.319   5.132   9.641  0.0826  0.3281 -0.0328
  101OSM   H12F10219   1.427   5.144   9.668  0.0796 -0.9108  0.5640
  101OSM   H12G10220   1.269   5.229   9.661 -2.4565 -1.2275  1.4869
  101OSM   C13F10221   1.328   5.073   9.497 -0.1227  0.3313  0.7735
  101OSM   H13F10222   1.392   4.982   9.497  0.1420  0.5168  0.3261
  101OSM   H13G10223   1.376   5.145   9.427 -1.8623 -0.9803 -1.8464
  101OSM   C14F10224   1.192   5.032   9.428 -0.3788 -0.3988 -0.4720
  101OSM   H14F10225   1.118   5.106   9.464  2.0864  1.8153  0.1139
  101OSM   H14G10226   1.150   4.934   9.461 -3.4941  1.0228 -0.0099
  101OSM   C15F10227   1.204   5.039   9.275  0.1529  0.7008  0.3438
  101OSM   H15F10228   1.287   4.973   9.243 -0.7604 -0.2572 -0.0837
  101OSM   H15G10229   1.227   5.142   9.242  1.7427  0.1306 -0.3405
  101OSM   C16F10230   1.079   4.993   9.212  0.5305 -0.0457  0.3648
  101OSM   H16F10231   0.999   5.048   9.266  0.7370  0.4631  0.1549
  101OSM   H16G10232   1.057   4.885   9.227  0.1244 -0.2396 -1.4566
  101OSM   C17F10233   1.074   5.024   9.062  0.1395 -0.0345  0.1960
  101OSM   H17F10234   1.067   5.135   9.052  1.1401 -0.0486 -0.8078
  101OSM   H17G10235   0.977   4.987   9.022 -0.2378  0.2559  0.8213
  101OSM   C18F10236   1.197   4.986   8.979  0.2137 -0.1621  0.3114
  101OSM   H18F10237   1.209   4.876   8.970 -0.0773 -0.2237  0.6705
  101OSM   H18G10238   1.292   5.027   9.018  0.2063 -0.2196  0.3901
  101OSM   H18H10239   1.170   5.013   8.875 -0.7116  1.0916  0.8683
  102OSM      N10240   3.915   6.040  10.790  0.2114  0.0944 -0.1017
  102OSM    C1510241   3.915   6.171  10.868 -0.1066 -0.4345  0.4261
  102OSM   H15A10242   3.865   6.243  10.804  1.6771 -1.6102 -2.4080
  102OSM   H15B10243   4.020   6.191  10.883 -0.1363 -0.4399  0.6395
  102OSM   H15C10244   3.868   6.152  10.963 -0.6586 -0.7798  0.0917
  102OSM    C1410245   4.019   6.044  10.681 -0.0184 -0.3991  0.1235
  102OSM   H14A10246   3.997   6.118  10.606  0.7101  2.0611  2.2399
  102OSM   H14B10247   4.011   5.951  10.627 -0.0995  1.8991 -3.9876
  102OSM   H14C10248   4.119   6.047  10.722 -0.3586 -2.3305  1.1544
  102OSM    C1310249   3.938   5.932  10.890  0.0749 -0.6385 -0.4296
  102OSM   H13A10250   3.937   5.830  10.856 -0.5936  0.1678 -2.9486
  102OSM   H13B10251   3.866   5.931  10.971 -0.7994 -0.2564 -1.1923
  102OSM   H13C10252   4.035   5.943  10.936 -1.0076 -2.2570  2.3413
  102OSM    C1210253   3.780   6.027  10.727 -0.4347 -0.4476 -1.3279
  102OSM   H12A10254   3.714   6.027  10.813  1.4870 -1.1497  0.1894
  102OSM   H12B10255   3.758   5.932  10.682 -0.8686 -0.9573 -0.0731
  102OSM    C1110256   3.733   6.135  10.629 -0.0564  0.3650 -0.2795
  102OSM   H11A10257   3.637   6.102  10.585  0.5199 -1.7862  0.0022
  102OSM   H11B10258   3.800   6.119  10.542 -1.2371 -1.7397 -0.8389
  102OSM      P10259   3.602   6.321  10.743  0.0047 -0.0786 -0.1746
  102OSM    O1310260   3.522   6.220  10.810  0.1229  0.1977 -0.3789
  102OSM    O1410261   3.629   6.437  10.824 -0.3378  0.2770 -0.4923
  102OSM    O1110262   3.516   6.373  10.624  0.1729 -0.2817  0.3425
  102OSM    O1210263   3.737   6.264  10.674 -0.7971  0.6554  0.4039
  102OSM    C1S10264   3.582   6.405  10.501 -0.5872  0.9532  0.0924
  102OSM    H1S10265   3.604   6.307  10.455  1.0556  1.0364  0.6882
  102OSM    H1T10266   3.670   6.472  10.511 -0.1388  0.2577  0.8687
  102OSM     NF10267   3.569   6.486  10.276  0.9117  1.2477  0.6334
  102OSM    HNF10268   3.631   6.557  10.244  0.0700  2.1365  0.9516
  102OSM    C2S10269   3.491   6.485  10.404  0.0698  0.1026 -0.6845
  102OSM    H2S10270   3.400   6.422  10.395 -0.2404  0.4714 -0.1060
  102OSM    C3S10271   3.468   6.620  10.468  0.2350  0.4349 -0.0440
  102OSM    H3S10272   3.563   6.676  10.483  0.1065  0.7210 -0.2848
  102OSM     O310273   3.400   6.621  10.594 -0.2540 -0.1904 -0.1548
  102OSM    HO310274   3.461   6.566  10.643 -0.8397 -0.5096  0.2285
  102OSM    C4S10275   3.387   6.707  10.366 -0.1233  0.0994  0.0141
  102OSM    H4S10276   3.281   6.676  10.356 -0.5439  1.5847 -0.2667
  102OSM    C5S10277   3.424   6.816  10.302 -0.0448  0.4063 -0.1893
  102OSM    H5S10278   3.528   6.846  10.318 -0.9172  3.0640  0.6445
  102OSM    C6S10279   3.351   6.899  10.204 -0.7560 -0.3732 -0.4798
  102OSM    H6S10280   3.385   7.005  10.201 -1.8212 -0.0240 -0.3044
  102OSM    H6T10281   3.241   6.898  10.217 -0.9163  1.9197 -1.3211
  102OSM    C7S10282   3.379   6.828  10.068  0.3753 -0.0917 -0.2246
  102OSM    H7S10283   3.363   6.719  10.083 -1.4181  0.4661  2.2979
  102OSM    H7T10284   3.483   6.834  10.031  1.5457  0.2040  2.9472
  102OSM    C8S10285   3.295   6.892   9.956  0.0892  0.0027 -0.6147
  102OSM    H8S10286   3.316   7.000   9.965 -1.2524  0.2770 -0.7574
  102OSM    H8T10287   3.191   6.865   9.984  0.1289  0.1756 -0.2921
  102OSM    C9S10288   3.328   6.828   9.822  0.0394  0.0903 -0.1811
  102OSM    H9S10289   3.294   6.722   9.822  2.3400 -0.6808 -3.0170
  102OSM    H9T10290   3.438   6.826   9.810 -0.0499 -0.1600 -1.0036
  102OSM   C10S10291   3.267   6.914   9.710 -0.0578  0.1585 -0.3841
  102OSM   H10S10292   3.242   7.015   9.747  2.0781  1.1959 -1.7077
  102OSM   H10T10293   3.179   6.858   9.672  1.7647 -1.8811 -1.7268
  102OSM   C11S10294   3.360   6.942   9.588  0.0245  0.2324 -0.0064
  102OSM   H11S10295   3.398   6.841   9.559 -0.5230  0.0537 -0.1190
  102OSM   H11T10296   3.445   7.006   9.620 -1.6702  2.5925 -0.1188
  102OSM   C12S10297   3.284   7.007   9.471 -0.0043 -0.3785 -0.4132
  102OSM   H12S10298   3.270   7.114   9.499 -0.3688 -0.7086  0.7020
  102OSM   H12T10299   3.181   6.964   9.468 -0.5319  0.9359 -1.5478
  102OSM   C13S10300   3.354   6.996   9.348 -0.1592 -0.2079  0.5841
  102OSM   H13S10301   3.380   6.890   9.329  0.4514  0.2588 -1.3741
  102OSM   H13T10302   3.451   7.048   9.367 -0.1843 -0.2768  0.9003
  102OSM   C14S10303   3.281   7.043   9.219 -0.7302 -0.2055  0.4287
  102OSM   H14S10304   3.289   7.154   9.222  1.9163 -0.3444 -0.1409
  102OSM   H14T10305   3.175   7.014   9.208 -0.7254  0.1760 -0.6905
  102OSM   C15S10306   3.346   7.009   9.083 -0.0577  0.0765 -0.1871
  102OSM   H15S10307   3.322   6.901   9.073  1.1999 -0.6257  3.7733
  102OSM   H15T10308   3.457   7.020   9.080  0.0275 -0.8699 -0.7227
  102OSM   C16S10309   3.280   7.098   8.971 -0.8792 -0.2212  0.0482
  102OSM   H16S10310   3.312   7.203   8.983  1.3030 -0.5941 -2.3363
  102OSM   H16T10311   3.169   7.096   8.981 -0.8322  0.5009  0.7391
  102OSM   C17S10312   3.308   7.058   8.826  0.0971  0.3769  0.1187
  102OSM   H17S10313   3.241   7.117   8.760 -1.5049 -2.2602 -0.7166
  102OSM   H17T10314   3.281   6.952   8.806 -2.4231  0.7706  1.2892
  102OSM   C18S10315   3.445   7.087   8.771 -0.4140  0.2303 -0.6957
  102OSM   H18S10316   3.525   7.039   8.830 -0.9467  2.1749  1.6988
  102OSM   H18T10317   3.461   7.194   8.798  0.5555 -0.5627  2.0185
  102OSM   H18U10318   3.469   7.052   8.669  3.1311 -1.0199  0.5242
  102OSM    C1F10319   3.581   6.379  10.196 -0.2654 -0.1852 -0.0128
  102OSM     OF10320   3.511   6.280  10.207 -0.8193 -0.0218 -0.1883
  102OSM    C2F10321   3.687   6.383  10.083  0.6477  0.1253  0.2217
  102OSM    H2F10322   3.715   6.283  10.045  1.8014  1.0235 -1.3518
  102OSM    H2G10323   3.777   6.424  10.135 -1.1134  2.7394  1.3147
  102OSM    C3F10324   3.651   6.475   9.960 -0.5365  0.0014  0.1590
  102OSM    H3F10325   3.734   6.477   9.886  0.5197 -0.8415  1.2935
  102OSM    H3G10326   3.626   6.579   9.988 -1.7980 -0.4792  0.8527
  102OSM    C4F10327   3.546   6.403   9.884  0.2106 -0.2275  0.1121
  102OSM    H4F10328   3.457   6.388   9.949 -0.0748  0.8017 -0.0356
  102OSM    H4G10329   3.590   6.304   9.859  0.0742 -0.7854  2.0261
  102OSM    C5F10330   3.510   6.484   9.762  0.3623 -1.2004 -0.1889
  102OSM    H5F10331   3.477   6.586   9.792 -0.8809 -1.6229 -0.0589
  102OSM    H5G10332   3.417   6.439   9.721  0.7293  0.1596 -2.6021
  102OSM    C6F10333   3.608   6.494   9.649  0.0173  0.4232 -0.2739
  102OSM    H6F10334   3.647   6.396   9.614 -2.5963 -0.8334  0.2473
  102OSM    H6G10335   3.694   6.559   9.676 -0.9207  1.7547 -0.4637
  102OSM    C7F10336   3.544   6.557   9.526 -0.0606 -0.2202 -0.3152
  102OSM    H7F10337   3.515   6.660   9.555  0.1655  0.1186 -1.2547
  102OSM    H7G10338   3.449   6.508   9.498 -1.1087  1.2009  0.6692
  102OSM    C8F10339   3.643   6.537   9.407  0.4915  0.1604 -0.0257
  102OSM    H8F10340   3.646   6.432   9.370 -1.5047 -0.3471  1.2093
  102OSM    H8G10341   3.751   6.553   9.429  0.4972 -2.2491  1.8620
  102OSM    C9F10342   3.600   6.633   9.301  0.4800 -0.8729 -0.1085
  102OSM    H9F10343   3.586   6.732   9.346 -1.8747 -1.7056  1.0881
  102OSM   C10F10344   3.552   6.610   9.178  0.2401 -0.7135  0.1382
  102OSM   H10F10345   3.532   6.694   9.110 -0.9504  0.2806  1.6905
  102OSM   C11F10346   3.530   6.469   9.119 -0.0432  0.0355  0.3119
  102OSM   H11F10347   3.436   6.453   9.064 -0.4507  1.7016  0.4916
  102OSM   H11G10348   3.537   6.391   9.198 -0.1354 -2.1526 -1.7853
  102OSM   C12F10349   3.639   6.417   9.029  1.1934  0.6218  0.1030
  102OSM   H12F10350   3.731   6.389   9.084  1.7193  0.6746 -0.7436
  102OSM   H12G10351   3.680   6.497   8.963  0.6255  1.3427  0.6245
  102OSM   C13F10352   3.587   6.310   8.934  0.3318 -0.4695  0.1795
  102OSM   H13F10353   3.513   6.353   8.862 -0.7617 -1.0800  0.9205
  102OSM   H13G10354   3.529   6.241   8.999 -1.6547  0.6322 -0.3736
  102OSM   C14F10355   3.695   6.232   8.863  0.2484  0.0243 -0.4282
  102OSM   H14F10356   3.775   6.214   8.937 -2.5686 -0.1828  2.7230
  102OSM   H14G10357   3.733   6.296   8.781  0.9630 -0.4979 -0.5132
  102OSM   C15F10358   3.671   6.100   8.796  0.3605  0.1022 -1.0407
  102OSM   H15F10359   3.746   6.088   8.715 -0.3700  3.7485 -2.3914
  102OSM   H15G10360   3.575   6.097   8.739 -1.1232  1.5046  1.3018
  102OSM   C16F10361   3.680   5.988   8.889  0.5102  0.0379 -0.4531
  102OSM   H16F10362   3.618   6.018   8.976 -0.4932 -1.6499 -0.5664
  102OSM   H16G10363   3.780   5.981   8.937 -0.6788  1.9523  2.4825
  102OSM   C17F10364   3.646   5.854   8.819  0.2742 -0.2776 -0.2518
  102OSM   H17F10365   3.674   5.781   8.897 -0.9752  0.9422  1.3835
  102OSM   H17G10366   3.710   5.836   8.730 -0.7463  1.5715 -1.4109
  102OSM   C18F10367   3.503   5.829   8.771 -0.0540  0.4034 -0.2564
  102OSM   H18F10368   3.433   5.854   8.854 -1.8929 -1.0049 -1.3456
  102OSM   H18G10369   3.489   5.726   8.733  1.5298 -0.0478  0.3542
  102OSM   H18H10370   3.479   5.904   8.693 -1.7508 -0.1310 -0.2714
  103OSM      N10371   2.157   3.496  10.868  0.3740  0.2695 -0.5314
  103OSM    C1510372   2.177   3.348  10.835 -0.2275  0.4862 -0.2796
  103OSM   H15A10373   2.140   3.279  10.910 -0.0617 -0.6073 -1.1811
  103OSM   H15B10374   2.282   3.326  10.829  0.0599  0.1869  4.1869
  103OSM   H15C10375   2.128   3.317  10.743  2.3024 -3.6280 -0.3326
  103OSM    C1410376   2.223   3.528  10.999 -0.0495  0.2293 -0.5604
  103OSM   H14A10377   2.319   3.480  10.993 -1.5116 -3.1413  1.8117
  103OSM   H14B10378   2.179   3.473  11.080  0.0142 -0.0431 -0.7085
  103OSM   H14C10379   2.224   3.634  11.021 -1.0151  0.2814 -0.7277
  103OSM    C1310380   2.225   3.566  10.752 -0.2530  0.3739 -0.4737
  103OSM   H13A10381   2.213   3.672  10.767 -3.2561  0.0384 -0.3606
  103OSM   H13B10382   2.184   3.545  10.655  0.4527  1.0709 -0.9334
  103OSM   H13C10383   2.332   3.546  10.755 -0.1391  1.0395  0.0599
  103OSM    C1210384   2.003   3.521  10.877 -0.0800  0.1747  0.4945
  103OSM   H12A10385   1.992   3.619  10.921 -0.5523 -0.3477  1.5488
  103OSM   H12B10386   1.958   3.446  10.940 -1.2678  1.6399  1.4208
  103OSM    C1110387   1.926   3.518  10.746 -0.4519  0.0997 -0.8045
  103OSM   H11A10388   1.980   3.577  10.669 -1.0221  1.0633 -0.4725
  103OSM   H11B10389   1.829   3.565  10.773 -0.3299 -0.9588  1.5478
  103OSM      P10390   1.816   3.284  10.773  0.1533  0.2799  0.3867
  103OSM    O1310391   1.894   3.157  10.795 -0.0761 -0.0410 -0.4956
  103OSM    O1410392   1.762   3.351  10.892  0.3960 -0.0912 -0.3870
  103OSM    O1110393   1.700   3.265  10.674  0.1268 -0.2308  0.1320
  103OSM    O1210394   1.911   3.386  10.700 -0.2427 -0.0987  0.1905
  103OSM    C1S10395   1.638   3.370  10.605  0.5438 -0.3090 -0.2461
  103OSM    H1S10396   1.718   3.434  10.561  0.2672 -0.8564 -1.5782
  103OSM    H1T10397   1.581   3.442  10.667  0.2633  0.8092 -1.7791
  103OSM     NF10398   1.556   3.390  10.371 -0.4141 -0.1185  0.3807
  103OSM    HNF10399   1.489   3.463  10.359 -0.4860 -0.4565 -1.3913
  103OSM    C2S10400   1.547   3.303  10.493 -0.4139 -0.7593 -0.2286
  103OSM    H2S10401   1.592   3.204  10.468 -1.1419 -0.7009 -1.8610
  103OSM    C3S10402   1.406   3.277  10.555 -0.0166 -0.0826 -0.1852
  103OSM    H3S10403   1.358   3.371  10.590  1.5211  0.6848 -0.1007
  103OSM     O310404   1.404   3.193  10.665 -0.1421 -0.1957 -0.8524
  103OSM    HO310405   1.498   3.173  10.670  0.4078  2.4908  0.6112
  103OSM    C4S10406   1.328   3.215  10.446  0.0290 -0.0531  0.7306
  103OSM    H4S10407   1.365   3.122  10.402 -2.4881 -0.7869  0.1328
  103OSM    C5S10408   1.224   3.273  10.378  0.1631  0.1266  0.3693
  103OSM    H5S10409   1.193   3.378  10.389 -0.1135  0.2147 -1.1273
  103OSM    C6S10410   1.160   3.206  10.256 -0.4203 -0.6054 -0.1311
  103OSM    H6S10411   1.050   3.204  10.265 -0.4218  0.0100 -0.0196
  103OSM    H6T10412   1.190   3.101  10.234  0.8509  0.2057 -2.4679
  103OSM    C7S10413   1.217   3.270  10.127  0.2364  0.7960  0.6901
  103OSM    H7S10414   1.322   3.234  10.124 -0.5526 -1.7082  1.7988
  103OSM    H7T10415   1.220   3.380  10.140  1.7635  0.8592 -0.0927
  103OSM    C8S10416   1.142   3.228   9.998 -0.1503  0.3157  0.2563
  103OSM    H8S10417   1.033   3.239  10.015 -0.0755 -0.7429  1.4587
  103OSM    H8T10418   1.166   3.120   9.989  1.9755  0.6125  2.1434
  103OSM    C9S10419   1.198   3.287   9.870 -0.3340  0.2375  0.3595
  103OSM    H9S10420   1.304   3.253   9.870 -0.2888  0.3648 -0.3123
  103OSM    H9T10421   1.210   3.396   9.885 -2.3919  0.4666  0.4612
  103OSM   C10S10422   1.123   3.258   9.743  0.1092  0.2368 -0.6155
  103OSM   H10S10423   1.016   3.289   9.745  0.0923  0.1091  0.5725
  103OSM   H10T10424   1.124   3.147   9.736  1.5739  0.2958 -1.3321
  103OSM   C11S10425   1.187   3.316   9.613 -0.0415  0.0710 -0.1798
  103OSM   H11S10426   1.298   3.325   9.621  0.2616 -1.0365 -2.4761
  103OSM   H11T10427   1.155   3.422   9.624  0.1135  0.3507 -2.2032
  103OSM   C12S10428   1.137   3.257   9.488  0.0836 -0.0171 -0.9292
  103OSM   H12S10429   1.030   3.232   9.500  0.5999 -2.7357 -1.6783
  103OSM   H12T10430   1.185   3.159   9.467 -2.3268 -1.7426  1.2203
  103OSM   C13S10431   1.185   3.355   9.377 -0.2462  0.1408  0.6254
  103OSM   H13S10432   1.294   3.363   9.395 -0.3793  0.1297  1.4637
  103OSM   H13T10433   1.134   3.452   9.392 -0.9939 -0.2482  0.6483
  103OSM   C14S10434   1.157   3.288   9.244  0.3832  0.2720  0.1489
  103OSM   H14S10435   1.049   3.301   9.223  0.5643 -0.2830 -1.1766
  103OSM   H14T10436   1.166   3.177   9.234 -2.0274  0.2752 -2.8078
  103OSM   C15S10437   1.240   3.348   9.127  0.2128 -0.2589 -0.7959
  103OSM   H15S10438   1.334   3.290   9.119  1.9267  2.2188  0.5663
  103OSM   H15T10439   1.268   3.455   9.141 -1.3731  0.2525 -1.3586
  103OSM   C16S10440   1.156   3.337   8.996 -0.3807 -0.2905 -0.8271
  103OSM   H16S10441   1.053   3.370   9.020 -0.6970 -0.2258 -2.2101
  103OSM   H16T10442   1.150   3.230   8.966 -0.2014 -0.9137  1.3284
  103OSM   C17S10443   1.222   3.423   8.887  0.1370  0.2639 -0.4307
  103OSM   H17S10444   1.326   3.385   8.875  0.1322 -0.8527  2.6461
  103OSM   H17T10445   1.225   3.528   8.924 -2.1814  0.5387 -0.9308
  103OSM   C18S10446   1.148   3.424   8.758  0.3025 -0.1802 -0.7760
  103OSM   H18S10447   1.046   3.467   8.764  0.5517  0.4097 -0.8055
  103OSM   H18T10448   1.143   3.325   8.707  0.8166 -0.9661  0.6613
  103OSM   H18U10449   1.203   3.482   8.681 -0.6140  0.5872 -0.8525
  103OSM    C1F10450   1.660   3.393  10.286  0.6867 -0.2531  0.2327
  103OSM     OF10451   1.744   3.314  10.294 -0.2276  0.3363  0.3016
  103OSM    C2F10452   1.652   3.484  10.162 -0.3504  0.3237 -0.3622
  103OSM    H2F10453   1.744   3.453  10.109 -0.8187  1.8866 -2.1557
  103OSM    H2G10454   1.660   3.588  10.201 -0.1314  0.4434 -0.7250
  103OSM    C3F10455   1.525   3.472  10.079 -0.1832  0.2865  0.1048
  103OSM    H3F10456   1.438   3.489  10.146  0.6307  0.4764  1.1141
  103OSM    H3G10457   1.514   3.369  10.041 -0.5387 -0.3512  1.9171
  103OSM    C4F10458   1.531   3.592   9.976  0.2310 -0.4171  0.2533
  103OSM    H4F10459   1.632   3.595   9.930  0.4158 -1.6631  0.5528
  103OSM    H4G10460   1.510   3.688  10.029 -1.6475  0.3015 -1.7209
  103OSM    C5F10461   1.417   3.587   9.878 -0.4668 -0.1119 -0.2518
  103OSM    H5F10462   1.321   3.601   9.931 -1.4785 -1.8345 -1.5768
  103OSM    H5G10463   1.423   3.493   9.819  0.5315 -0.6365  0.6676
  103OSM    C6F10464   1.416   3.699   9.771  0.1711 -0.4912  0.3156
  103OSM    H6F10465   1.521   3.709   9.738  0.7064 -1.5042  1.6987
  103OSM    H6G10466   1.387   3.797   9.813  1.2507 -0.2252  0.4534
  103OSM    C7F10467   1.317   3.667   9.656  0.2699  0.7910 -0.5466
  103OSM    H7F10468   1.214   3.642   9.690  0.5384 -0.8700 -0.9078
  103OSM    H7G10469   1.363   3.575   9.614  3.0542  1.3584  1.1332
  103OSM    C8F10470   1.310   3.785   9.560 -0.5464 -0.5562  0.7431
  103OSM    H8F10471   1.413   3.812   9.529 -0.4403 -1.3701  0.3523
  103OSM    H8G10472   1.257   3.867   9.612 -0.6523 -0.7305  0.9121
  103OSM    C9F10473   1.231   3.758   9.434 -0.7116 -0.1814 -0.5372
  103OSM    H9F10474   1.167   3.669   9.433  0.2222 -0.8835  0.9909
  103OSM   C10F10475   1.255   3.833   9.321  0.4747  0.4549  0.0160
  103OSM   H10F10476   1.201   3.822   9.226 -0.7740  0.8995  0.6727
  103OSM   C11F10477   1.352   3.953   9.318 -0.4516 -0.3142 -0.3368
  103OSM   H11F10478   1.362   4.005   9.416 -0.5270  0.4878 -0.7518
  103OSM   H11G10479   1.301   4.035   9.263 -1.1156 -0.6583 -0.2367
  103OSM   C12F10480   1.480   3.922   9.241 -0.1863  0.2658 -0.5585
  103OSM   H12F10481   1.521   3.839   9.301  0.0832 -0.7610 -2.1243
  103OSM   H12G10482   1.555   4.004   9.244 -0.0789  0.2916 -3.0940
  103OSM   C13F10483   1.466   3.873   9.087  0.6554  0.0433  0.1672
  103OSM   H13F10484   1.376   3.811   9.070 -0.5427  2.4059 -2.6009
  103OSM   H13G10485   1.558   3.825   9.049 -0.2469 -0.4003 -1.5038
  103OSM   C14F10486   1.454   3.996   9.007  0.0945  0.5745  0.4660
  103OSM   H14F10487   1.547   4.058   9.011  0.2023  0.3940  0.8363
  103OSM   H14G10488   1.374   4.066   9.041 -0.1429  0.8936 -0.7393
  103OSM   C15F10489   1.426   3.969   8.851 -0.0729  0.2040 -0.2213
  103OSM   H15F10490   1.330   3.913   8.856  1.8270 -3.2695 -0.5339
  103OSM   H15G10491   1.510   3.911   8.806  0.2702  1.9079 -1.8336
  103OSM   C16F10492   1.413   4.103   8.783  0.4955  0.4484 -0.1702
  103OSM   H16F10493   1.502   4.164   8.809  0.0286  1.0677  0.0169
  103OSM   H16G10494   1.320   4.154   8.818 -0.2360 -1.0457  0.0979
  103OSM   C17F10495   1.393   4.107   8.635 -0.7257  0.0593 -0.3903
  103OSM   H17F10496   1.292   4.079   8.598 -0.4988 -0.6822 -0.4523
  103OSM   H17G10497   1.473   4.051   8.583  0.0247  0.6867  0.0755
  103OSM   C18F10498   1.433   4.238   8.571  0.6197 -0.4703  0.2555
  103OSM   H18F10499   1.423   4.240   8.460  0.6365  0.5165  0.2694
  103OSM   H18G10500   1.541   4.259   8.587  0.5573  1.5798 -1.6687
  103OSM   H18H10501   1.368   4.325   8.594  3.1023  1.8524 -1.2084
  104OSM      N10502   3.441   1.889  10.955  0.0535  1.4584  0.3299
  104OSM    C1510503   3.552   1.820  11.024  0.2130 -0.4042  0.0557
  104OSM   H15A10504   3.576   1.721  10.988  0.3601 -0.0002 -0.9827
  104OSM   H15B10505   3.522   1.813  11.127 -1.4124 -0.1168 -0.3826
  104OSM   H15C10506   3.635   1.890  11.025  0.1013 -0.2836  1.4221
  104OSM    C1410507   3.506   1.944  10.831 -0.3180  0.5510  0.7532
  104OSM   H14A10508   3.542   1.862  10.771 -2.1935  0.1685  0.0953
  104OSM   H14B10509   3.582   2.018  10.847  0.9768 -0.7490  0.6632
  104OSM   H14C10510   3.435   1.996  10.768  0.1271 -1.3200 -1.3480
  104OSM    C1310511   3.340   1.791  10.924  0.1347  0.1647  0.1870
  104OSM   H13A10512   3.301   1.749  11.015 -0.7041 -0.2967 -0.3757
  104OSM   H13B10513   3.374   1.711  10.859 -2.2453 -1.5540  1.0138
  104OSM   H13C10514   3.258   1.841  10.875  1.7780  1.6599 -1.1377
  104OSM    C1210515   3.375   2.001  11.046 -0.3032 -0.4590  0.2430
  104OSM   H12A10516   3.459   2.055  11.087  1.5689 -0.7894 -2.9879
  104OSM   H12B10517   3.321   1.945  11.120 -1.0707  0.2968  0.2655
  104OSM    C1110518   3.270   2.098  10.977 -0.0374  0.1289 -0.4278
  104OSM   H11A10519   3.337   2.184  10.960  1.5048 -0.3541  2.8218
  104OSM   H11B10520   3.204   2.121  11.064  1.1426  0.9111  0.2709
  104OSM      P10521   3.109   2.135  10.785 -0.0535 -0.0572 -0.1335
  104OSM    O1310522   3.028   2.066  10.683 -1.0464  0.2665 -0.6618
  104OSM    O1410523   3.024   2.207  10.889 -0.5364 -0.2183  0.2664
  104OSM    O1110524   3.219   2.235  10.730 -0.0727  0.0601 -0.5264
  104OSM    O1210525   3.197   2.040  10.865  0.1157 -0.4981  0.7863
  104OSM    C1S10526   3.182   2.326  10.625  0.8931  0.2114 -0.3694
  104OSM    H1S10527   3.131   2.416  10.666  0.8387  0.8450 -1.7839
  104OSM    H1T10528   3.108   2.283  10.553  1.0722 -1.6425  0.5086
  104OSM     NF10529   3.234   2.439  10.421  0.4087  0.5161  0.3309
  104OSM    HNF10530   3.220   2.389  10.336 -2.9127  0.6892  0.7031
  104OSM    C2S10531   3.300   2.367  10.531 -0.1136 -0.1673 -0.0674
  104OSM    H2S10532   3.368   2.431  10.591 -0.6552  1.8197 -1.5178
  104OSM    C3S10533   3.386   2.236  10.494 -0.3293 -0.1854  0.5254
  104OSM    H3S10534   3.319   2.157  10.454 -1.1418  0.9034 -0.2598
  104OSM     O310535   3.457   2.176  10.602 -0.3045  0.5569 -0.3587
  104OSM    HO310536   3.402   2.200  10.676 -1.2188 -0.7769 -0.5901
  104OSM    C4S10537   3.479   2.273  10.383 -0.1514  0.2242 -0.2911
  104OSM    H4S10538   3.436   2.249  10.285 -0.6453  2.6635 -0.7004
  104OSM    C5S10539   3.608   2.313  10.387  0.8138  0.4324 -0.6485
  104OSM    H5S10540   3.651   2.305  10.488 -1.9856  2.2937  0.7627
  104OSM    C6S10541   3.697   2.344  10.269  0.3951 -0.2661 -0.2918
  104OSM    H6S10542   3.795   2.299  10.294  0.1786 -0.3277  0.4792
  104OSM    H6T10543   3.716   2.453  10.257 -0.1915  0.0209  1.2596
  104OSM    C7S10544   3.637   2.302  10.137  0.2729 -0.4318  0.2876
  104OSM    H7S10545   3.550   2.371  10.127  1.2690  0.9296  0.7698
  104OSM    H7T10546   3.600   2.198  10.124 -0.0618 -0.1885 -0.7350
  104OSM    C8S10547   3.724   2.340  10.023  0.4317  0.0072 -0.6915
  104OSM    H8S10548   3.821   2.285  10.028  0.4011  0.1037  1.2861
  104OSM    H8T10549   3.734   2.450  10.012 -1.8743  0.6821  3.0776
  104OSM    C9S10550   3.652   2.291   9.889 -0.3205  0.4444 -0.4030
  104OSM    H9S10551   3.561   2.350   9.867  0.1953  1.2485 -0.3826
  104OSM    H9T10552   3.620   2.186   9.906 -0.8477  0.7030  0.2235
  104OSM   C10S10553   3.753   2.278   9.770 -0.7685 -0.0793  0.2392
  104OSM   H10S10554   3.833   2.205   9.796 -1.1648 -0.7489 -0.3818
  104OSM   H10T10555   3.803   2.375   9.749  2.2960 -1.4960  0.7079
  104OSM   C11S10556   3.678   2.234   9.644  0.5200 -0.1731  1.2457
  104OSM   H11S10557   3.600   2.311   9.624 -0.1681 -0.9168  0.9939
  104OSM   H11T10558   3.627   2.139   9.672  0.5836  0.4129  3.4380
  104OSM   C12S10559   3.765   2.212   9.520 -0.5271 -0.3096 -0.1878
  104OSM   H12S10560   3.840   2.131   9.535 -0.3733 -0.2462 -0.6229
  104OSM   H12T10561   3.824   2.304   9.501  1.2282 -1.6770 -1.4438
  104OSM   C13S10562   3.690   2.177   9.391 -0.2048  0.1350  0.5554
  104OSM   H13S10563   3.621   2.262   9.371 -0.0589  0.3024  0.7619
  104OSM   H13T10564   3.630   2.088   9.419  1.5939 -1.5513 -0.8866
  104OSM   C14S10565   3.790   2.153   9.280  0.6272 -0.1016 -0.2992
  104OSM   H14S10566   3.843   2.057   9.300  1.3954  0.7904  2.1788
  104OSM   H14T10567   3.873   2.227   9.285  1.1703 -0.7757  0.9198
  104OSM   C15S10568   3.725   2.165   9.143  0.3791 -0.1381  0.3840
  104OSM   H15S10569   3.682   2.265   9.121  0.6917  0.0665  0.6847
  104OSM   H15T10570   3.652   2.082   9.151 -0.0825  0.2070 -0.2747
  104OSM   C16S10571   3.826   2.130   9.031 -0.1851 -0.2304  0.5968
  104OSM   H16S10572   3.883   2.041   9.064 -1.0148 -0.9257  0.1703
  104OSM   H16T10573   3.905   2.208   9.032  0.1168 -0.4496 -1.8611
  104OSM   C17S10574   3.747   2.107   8.898 -0.1427 -0.0046  0.2631
  104OSM   H17S10575   3.671   2.030   8.921 -2.6796  1.5420 -2.5918
  104OSM   H17T10576   3.799   2.050   8.818 -0.9369 -0.0176 -0.2509
  104OSM   C18S10577   3.668   2.228   8.840 -0.3156  0.1803  0.4400
  104OSM   H18S10578   3.618   2.196   8.746  1.2099 -1.1755  0.0575
  104OSM   H18T10579   3.740   2.307   8.809 -0.6326  0.7839  1.2268
  104OSM   H18U10580   3.595   2.272   8.911 -0.0612  0.8078  0.3155
  104OSM    C1F10581   3.184   2.560  10.444  0.7477  0.1452  0.6219
  104OSM     OF10582   3.212   2.615  10.548 -0.4915 -0.3156  0.2288
  104OSM    C2F10583   3.102   2.621  10.332  0.0418  0.2797  0.3149
  104OSM    H2F10584   2.994   2.605  10.354  0.4651 -0.2294  2.1146
  104OSM    H2G10585   3.126   2.562  10.241  4.6823 -0.7712  2.0823
  104OSM    C3F10586   3.135   2.761  10.290  0.1021  0.6833 -0.2136
  104OSM    H3F10587   3.246   2.764  10.303 -0.1796 -1.0177  3.1857
  104OSM    H3G10588   3.099   2.842  10.357  0.1314  0.8718 -0.4272
  104OSM    C4F10589   3.098   2.790  10.145  0.3605  0.1891 -0.1198
  104OSM    H4F10590   2.989   2.804  10.131  0.1822  0.6542  1.6516
  104OSM    H4G10591   3.126   2.699  10.087 -0.5562 -1.3839  1.8547
  104OSM    C5F10592   3.175   2.910  10.092  0.0161  0.1097  0.5823
  104OSM    H5F10593   3.281   2.893  10.118  0.5823  1.2914 -0.8485
  104OSM    H5G10594   3.144   2.999  10.151 -2.2244  1.4180 -2.3794
  104OSM    C6F10595   3.156   2.945   9.942  0.4449  0.3449 -0.2482
  104OSM    H6F10596   3.222   3.032   9.926 -0.2341  0.9109  0.0036
  104OSM    H6G10597   3.054   2.986   9.924  0.3250 -1.0648 -3.0314
  104OSM    C7F10598   3.200   2.826   9.847 -0.1607  0.2919 -0.2680
  104OSM    H7F10599   3.177   2.725   9.885 -2.3458  0.6004 -0.7018
  104OSM    H7G10600   3.310   2.827   9.861  0.1088  1.1224 -2.2471
  104OSM    C8F10601   3.150   2.852   9.702  0.0308 -0.0918  0.0655
  104OSM    H8F10602   3.039   2.848   9.703  0.0808 -2.8239  2.1722
  104OSM    H8G10603   3.171   2.770   9.631 -1.0711 -2.3729  2.2668
  104OSM    C9F10604   3.198   2.987   9.637 -0.2812  0.2659 -0.2690
  104OSM    H9F10605   3.266   3.049   9.698 -1.0680 -0.9448  1.9274
  104OSM   C10F10606   3.158   3.036   9.520  0.2826 -0.0773  0.4977
  104OSM   H10F10607   3.206   3.128   9.484 -0.7821  0.3380  0.1444
  104OSM   C11F10608   3.059   2.986   9.424  0.5406  0.0785  0.3197
  104OSM   H11F10609   2.972   3.054   9.418 -0.5622 -1.4344 -1.2591
  104OSM   H11G10610   3.010   2.888   9.442 -0.1862  0.2215 -0.8581
  104OSM   C12F10611   3.118   2.973   9.281  0.2114 -0.4411  0.2676
  104OSM   H12F10612   3.187   2.887   9.290  0.5406 -0.0148  1.9820
  104OSM   H12G10613   3.164   3.070   9.252  2.3366 -1.4364  0.1964
  104OSM   C13F10614   3.013   2.935   9.172 -0.2615  0.4750  0.8587
  104OSM   H13F10615   2.941   3.018   9.151  0.4265  0.8185 -0.1462
  104OSM   H13G10616   2.950   2.853   9.214  1.8522 -0.5206  2.1522
  104OSM   C14F10617   3.064   2.889   9.038 -0.4415 -0.2581  0.1854
  104OSM   H14F10618   3.142   2.813   9.060  0.6133  0.0984 -2.2089
  104OSM   H14G10619   3.099   2.977   8.979  0.5272  0.2690  1.5055
  104OSM   C15F10620   2.952   2.811   8.965 -0.2543  0.9368  0.1337
  104OSM   H15F10621   2.853   2.854   8.989 -1.5009 -1.7247 -0.0914
  104OSM   H15G10622   2.954   2.708   9.007  0.0777  0.6563 -0.5695
  104OSM   C16F10623   2.970   2.796   8.817 -0.1006 -0.1047 -0.4675
  104OSM   H16F10624   3.068   2.747   8.802  1.3992  2.4807  0.6419
  104OSM   H16G10625   2.964   2.896   8.769  2.2808  0.6397  0.7119
  104OSM   C17F10626   2.870   2.695   8.758 -0.1247 -0.2633 -0.3773
  104OSM   H17F10627   2.767   2.733   8.775 -0.2706 -1.2711  1.0684
  104OSM   H17G10628   2.885   2.594   8.801  1.2431  0.3925  0.7387
  104OSM   C18F10629   2.883   2.692   8.602 -0.0153 -0.0201 -0.1215
  104OSM   H18F10630   2.783   2.657   8.571 -0.6292  1.3856  0.2566
  104OSM   H18G10631   2.956   2.621   8.558 -2.6020 -0.2663 -4.2565
  104OSM   H18H10632   2.888   2.794   8.559 -0.5818 -1.1686 -3.0174
  105OSM      N10633   0.471   5.640  10.675  0.1984  0.5323 -0.2144
  105OSM    C1510634   0.482   5.667  10.825  0.0713  0.4501  0.1743
  105OSM   H15A10635   0.558   5.742  10.843  1.9532 -1.3655 -0.0179
  105OSM   H15B10636   0.523   5.576  10.865 -1.9023 -1.3727 -1.8339
  105OSM   H15C10637   0.385   5.665  10.874 -0.6374 -0.0476 -1.2385
  105OSM    C1410638   0.453   5.771  10.613  0.5695 -0.0398 -0.0911
  105OSM   H14A10639   0.464   5.766  10.505 -3.4121 -0.9913 -0.5434
  105OSM   H14B10640   0.517   5.849  10.651  1.0935  0.0405 -1.1181
  105OSM   H14C10641   0.356   5.812  10.637  0.8491  1.2376 -1.0673
  105OSM    C1310642   0.595   5.570  10.642 -0.1090 -0.1728 -0.1914
  105OSM   H13A10643   0.605   5.560  10.535  1.6687 -0.7795  0.0180
  105OSM   H13B10644   0.596   5.470  10.683 -0.1974 -0.0935  0.0089
  105OSM   H13C10645   0.681   5.622  10.680  0.0603 -1.8859  1.8616
  105OSM    C1210646   0.360   5.544  10.634  0.3545 -0.1472 -0.7309
  105OSM   H12A10647   0.370   5.450  10.686  0.9876 -1.2944 -2.8895
  105OSM   H12B10648   0.374   5.534  10.528  0.7593  1.4506 -0.8558
  105OSM    C1110649   0.213   5.600  10.644  0.5692  0.4741 -0.2566
  105OSM   H11A10650   0.157   5.509  10.615  0.3790 -0.0625  1.7253
  105OSM   H11B10651   0.201   5.687  10.576 -2.4001 -1.0887 -1.8057
  105OSM      P10652   0.098   5.554  10.885 -0.3561 -0.5454  0.2821
  105OSM    O1310653   0.199   5.471  10.952 -0.4363  0.4062  0.2115
  105OSM    O1410654   0.031   5.649  10.974  0.1109 -0.5782 -0.3934
  105OSM    O1110655   0.004   5.461  10.804 -0.0359 -0.2926 -0.4385
  105OSM    O1210656   0.170   5.639  10.770 -0.6558  0.4363  0.0688
  105OSM    C1S10657  -0.119   5.502  10.743 -0.0897  0.3181 -0.7887
  105OSM    H1S10658  -0.141   5.610  10.755 -0.4499  0.0936  0.6489
  105OSM    H1T10659  -0.204   5.453  10.793 -0.4440 -0.1995 -1.8740
  105OSM     NF10660  -0.238   5.515  10.529 -0.5761  0.2320 -0.2073
  105OSM    HNF10661  -0.304   5.456  10.484  0.3357 -1.1546  0.2459
  105OSM    C2S10662  -0.120   5.462  10.592  0.2261 -0.1837 -0.1058
  105OSM    H2S10663  -0.030   5.516  10.554 -0.4402  0.5558 -0.6304
  105OSM    C3S10664  -0.097   5.307  10.582  0.8456 -0.3418 -0.0121
  105OSM    H3S10665  -0.177   5.263  10.645  1.7415  0.1089  1.4488
  105OSM     O310666   0.023   5.253  10.631  0.0034  0.0482 -0.4351
  105OSM    HO310667   0.042   5.299  10.713  0.2411 -0.6150 -0.1165
  105OSM    C4S10668  -0.112   5.251  10.439 -0.2714  0.1316  0.5153
  105OSM    H4S10669  -0.215   5.215  10.426 -0.1020 -1.6033  3.5637
  105OSM    C5S10670  -0.025   5.249  10.333 -0.1861  0.0052  0.6286
  105OSM    H5S10671   0.071   5.303  10.335 -0.9778  1.4305  0.8269
  105OSM    C6S10672  -0.059   5.190  10.198 -0.3216  0.1154 -0.5996
  105OSM    H6S10673  -0.162   5.149  10.195 -1.5923  2.8853  1.8713
  105OSM    H6T10674   0.005   5.100  10.189 -0.9244 -0.1675 -2.2166
  105OSM    C7S10675  -0.006   5.272  10.081  0.1432  0.3705  0.6452
  105OSM    H7S10676   0.103   5.290  10.089 -0.1236  1.9161  0.9469
  105OSM    H7T10677  -0.056   5.368  10.059  0.9722  0.5729 -0.4023
  105OSM    C8S10678  -0.001   5.193   9.954 -0.1710 -0.1355  0.1358
  105OSM    H8S10679  -0.101   5.153   9.924  0.7053 -0.8489 -1.9876
  105OSM    H8T10680   0.054   5.097   9.968  0.2614 -0.1033 -1.2735
  105OSM    C9S10681   0.057   5.270   9.838 -0.1035  0.3221  0.3459
  105OSM    H9S10682   0.162   5.286   9.870  0.4182 -4.1644  1.2440
  105OSM    H9T10683   0.013   5.372   9.836  0.5010  0.5614 -0.6064
  105OSM   C10S10684   0.034   5.203   9.701  0.1926  0.3215 -0.1347
  105OSM   H10S10685  -0.075   5.194   9.687 -0.0505 -0.3308  2.0135
  105OSM   H10T10686   0.077   5.100   9.706  0.0802  0.3557  1.6489
  105OSM   C11S10687   0.102   5.273   9.590 -0.1076 -0.6988 -0.1739
  105OSM   H11S10688   0.210   5.287   9.614 -0.4968 -1.1491  1.8724
  105OSM   H11T10689   0.056   5.373   9.576  0.9639 -0.0669  0.7087
  105OSM   C12S10690   0.093   5.196   9.450 -0.0745 -0.1981  0.3162
  105OSM   H12S10691  -0.013   5.174   9.425 -0.6373  0.9872  1.6219
  105OSM   H12T10692   0.135   5.094   9.463 -0.6818 -0.4188  0.5761
  105OSM   C13S10693   0.145   5.279   9.338 -0.0015 -0.3838  0.4342
  105OSM   H13S10694   0.242   5.330   9.356 -0.1460 -0.0059  0.1368
  105OSM   H13T10695   0.084   5.370   9.321  1.8915  0.9039  0.3806
  105OSM   C14S10696   0.172   5.190   9.213 -0.2480  0.0337 -0.5177
  105OSM   H14S10697   0.078   5.139   9.183 -0.2579 -0.4223  0.2810
  105OSM   H14T10698   0.233   5.103   9.243 -1.7111 -0.8605 -0.1061
  105OSM   C15S10699   0.243   5.256   9.098  0.6835  0.1445  0.6109
  105OSM   H15S10700   0.276   5.183   9.021 -0.5153 -2.5160  2.5627
  105OSM   H15T10701   0.340   5.296   9.133  0.6176  1.3302 -0.5007
  105OSM   C16S10702   0.181   5.381   9.034 -0.7275 -0.8379  0.3134
  105OSM   H16S10703   0.157   5.453   9.115  0.2061 -0.7973  0.5682
  105OSM   H16T10704   0.085   5.361   8.983  1.1219 -0.9277 -3.2882
  105OSM   C17S10705   0.289   5.439   8.941  0.6554 -0.6218  0.1709
  105OSM   H17S10706   0.312   5.366   8.861 -0.9575 -0.8919 -0.0629
  105OSM   H17T10707   0.382   5.456   8.999  0.5676  0.8915 -0.0893
  105OSM   C18S10708   0.245   5.573   8.880 -0.3468  1.1038 -0.0934
  105OSM   H18S10709   0.330   5.620   8.827 -1.0341  1.5359 -0.8130
  105OSM   H18T10710   0.220   5.646   8.960  0.3644  0.7171  0.4888
  105OSM   H18U10711   0.166   5.550   8.805  0.2806  0.3927 -0.5447
  105OSM    C1F10712  -0.252   5.651  10.498 -0.3035  0.5575 -0.0917
  105OSM     OF10713  -0.173   5.740  10.530 -0.2005 -0.6502  0.2566
  105OSM    C2F10714  -0.386   5.684  10.433  0.7891 -0.1132  0.7918
  105OSM    H2F10715  -0.429   5.776  10.478 -1.2016 -1.2202  1.2134
  105OSM    H2G10716  -0.468   5.611  10.448 -1.2281  1.8111 -0.6599
  105OSM    C3F10717  -0.388   5.697  10.273  0.3086 -0.5151 -0.4817
  105OSM    H3F10718  -0.306   5.767  10.245 -0.2075 -0.8278 -2.8416
  105OSM    H3G10719  -0.493   5.729  10.256  0.4268  0.4967  0.6574
  105OSM    C4F10720  -0.369   5.565  10.196  0.5199 -0.0118 -0.6144
  105OSM    H4F10721  -0.433   5.491  10.250  0.6162 -0.5699 -1.2664
  105OSM    H4G10722  -0.267   5.526  10.217  0.6367  0.1687 -0.8487
  105OSM    C5F10723  -0.409   5.572  10.049 -0.3955 -0.3232 -0.1460
  105OSM    H5F10724  -0.511   5.617  10.042 -0.9412 -1.9151 -2.6949
  105OSM    H5G10725  -0.399   5.465  10.023  1.4621 -0.5661  1.4602
  105OSM    C6F10726  -0.306   5.638   9.956  0.6056 -0.3237 -0.0334
  105OSM    H6F10727  -0.207   5.589   9.947  1.2723  1.1032 -0.5340
  105OSM    H6G10728  -0.274   5.728  10.012 -0.8268  0.1796 -0.0021
  105OSM    C7F10729  -0.361   5.677   9.823 -0.4433 -0.1799 -0.6244
  105OSM    H7F10730  -0.306   5.771   9.802  1.0564 -0.9843 -0.3626
  105OSM    H7G10731  -0.470   5.686   9.839 -0.1686  2.2049  0.0724
  105OSM    C8F10732  -0.335   5.571   9.712  0.0836 -0.0668 -0.4792
  105OSM    H8F10733  -0.419   5.586   9.642 -1.0091  1.9620  1.2237
  105OSM    H8G10734  -0.357   5.470   9.754 -0.6709 -0.0812 -0.8979
  105OSM    C9F10735  -0.196   5.573   9.648  0.1048 -0.0027  0.9529
  105OSM    H9F10736  -0.114   5.570   9.721 -0.3488  1.5188  1.5593
  105OSM   C10F10737  -0.158   5.561   9.519 -0.4343 -1.0878 -0.0137
  105OSM   H10F10738  -0.050   5.572   9.499 -0.6222 -0.1109 -0.4981
  105OSM   C11F10739  -0.241   5.560   9.399  0.4777  0.0080 -0.1650
  105OSM   H11F10740  -0.343   5.596   9.423  0.3399 -0.3007 -0.2983
  105OSM   H11G10741  -0.241   5.466   9.339  1.7889  1.4442 -2.4974
  105OSM   C12F10742  -0.187   5.660   9.293 -0.0498  0.0564 -0.0958
  105OSM   H12F10743  -0.083   5.629   9.268 -0.1931 -0.3914 -0.1474
  105OSM   H12G10744  -0.182   5.760   9.342 -0.6502 -0.6461  1.4507
  105OSM   C13F10745  -0.275   5.658   9.162 -0.0824 -0.5909 -1.0931
  105OSM   H13F10746  -0.376   5.696   9.190  0.0791 -0.4240 -0.7293
  105OSM   H13G10747  -0.279   5.555   9.122  1.8843 -0.7412 -0.9318
  105OSM   C14F10748  -0.216   5.761   9.060  0.3369 -0.1648  0.2473
  105OSM   H14F10749  -0.124   5.714   9.020 -0.3109 -0.9065 -0.3868
  105OSM   H14G10750  -0.183   5.855   9.110  1.3089  0.0072 -0.6972
  105OSM   C15F10751  -0.312   5.796   8.952  0.1546 -0.3769  0.4043
  105OSM   H15F10752  -0.387   5.858   9.004  0.1895 -0.7539  0.9034
  105OSM   H15G10753  -0.348   5.698   8.913  0.1279 -0.8777  1.6556
  105OSM   C16F10754  -0.251   5.876   8.836 -0.1225 -0.0182  0.1917
  105OSM   H16F10755  -0.189   5.811   8.770 -1.6044 -2.3176  1.0125
  105OSM   H16G10756  -0.181   5.955   8.870  2.4855 -2.2760  0.2601
  105OSM   C17F10757  -0.362   5.948   8.759 -0.3824 -1.0016  0.7806
  105OSM   H17F10758  -0.421   6.016   8.824  0.7757  0.5364  0.2682
  105OSM   H17G10759  -0.435   5.872   8.726  0.5559 -3.0065  3.1128
  105OSM   C18F10760  -0.293   6.026   8.641 -0.6937 -0.3475 -0.2154
  105OSM   H18F10761  -0.249   5.948   8.576  1.1969  0.6509 -0.1684
  105OSM   H18G10762  -0.227   6.109   8.673 -2.1896  1.6684 -2.1657
  105OSM   H18H10763  -0.363   6.091   8.583 -0.9010  0.3055  0.7465
  106OSM      N10764   5.438   4.289  10.574  0.2838  0.3914 -0.7743
  106OSM    C1510765   5.324   4.204  10.622  0.1188 -0.1429 -0.3522
  106OSM   H15A10766   5.366   4.124  10.682 -0.3157  1.0378  1.6010
  106OSM   H15B10767   5.272   4.158  10.540  1.6190 -0.0951 -1.3423
  106OSM   H15C10768   5.258   4.263  10.684  1.1563 -2.8814  3.5857
  106OSM    C1410769   5.528   4.202  10.488  0.3402 -0.0336 -0.5107
  106OSM   H14A10770   5.475   4.155  10.407  0.4307 -0.0802 -0.5439
  106OSM   H14B10771   5.560   4.120  10.552 -1.5832 -0.5593 -0.1737
  106OSM   H14C10772   5.619   4.248  10.454  1.8148 -0.5379  2.5517
  106OSM    C1310773   5.398   4.403  10.486 -0.3447  0.5104  0.1677
  106OSM   H13A10774   5.482   4.468  10.467 -0.1116  0.9459  2.6031
  106OSM   H13B10775   5.321   4.464  10.532 -0.5720 -0.1987  0.7388
  106OSM   H13C10776   5.352   4.371  10.393 -0.0753 -0.7297  0.4617
  106OSM    C1210777   5.512   4.334  10.692 -0.0685 -0.7310  0.0669
  106OSM   H12A10778   5.549   4.247  10.743  0.5274 -0.3767  0.2386
  106OSM   H12B10779   5.443   4.365  10.770 -1.7336 -0.6845 -1.3780
  106OSM    C1110780   5.637   4.424  10.668 -0.4354  0.6631 -0.2352
  106OSM   H11A10781   5.710   4.360  10.613 -0.3790 -0.0495  0.6546
  106OSM   H11B10782   5.687   4.443  10.766 -2.5172 -1.4231  1.2916
  106OSM      P10783   5.568   4.675  10.636 -0.1094  0.1461  0.2016
  106OSM    O1310784   5.473   4.727  10.537 -0.5858  0.6994 -0.8650
  106OSM    O1410785   5.546   4.673  10.784  0.2163  0.0791  0.1999
  106OSM    O1110786   5.697   4.767  10.619  0.1535  0.8237 -0.2107
  106OSM    O1210787   5.624   4.535  10.582 -0.1189  0.0828  0.8036
  106OSM    C1S10788   5.769   4.800  10.495  0.3516 -0.4148 -0.2021
  106OSM    H1S10789   5.800   4.705  10.446  2.0736  0.3846 -0.7001
  106OSM    H1T10790   5.859   4.861  10.519 -0.2607  0.3760  0.0865
  106OSM     NF10791   5.756   4.879  10.259 -0.0042 -0.1168 -0.8000
  106OSM    HNF10792   5.807   4.960  10.232  0.0276  0.2601  0.3946
  106OSM    C2S10793   5.683   4.879  10.386  0.0213  0.2487 -0.5230
  106OSM    H2S10794   5.585   4.830  10.365  0.5675 -1.6849  1.2953
  106OSM    C3S10795   5.652   5.020  10.444  0.1016 -0.0124 -0.2271
  106OSM    H3S10796   5.752   5.068  10.446  0.1633 -0.1258  3.1178
  106OSM     O310797   5.597   5.035  10.576 -0.7418  0.0697  0.1325
  106OSM    HO310798   5.615   4.947  10.609  0.9224  0.9281  1.6492
  106OSM    C4S10799   5.563   5.094  10.351 -0.1704  0.4940  0.0315
  106OSM    H4S10800   5.462   5.053  10.334  0.4155 -0.0806 -2.2282
  106OSM    C5S10801   5.588   5.207  10.292  0.0177 -0.5790  0.1768
  106OSM    H5S10802   5.693   5.239  10.282 -0.3829  0.9408  0.8044
  106OSM    C6S10803   5.501   5.288  10.200 -0.0410  0.1877 -0.1334
  106OSM    H6S10804   5.485   5.382  10.257  0.7352 -0.1997  0.7435
  106OSM    H6T10805   5.409   5.228  10.179  0.2602 -0.2696 -0.1508
  106OSM    C7S10806   5.580   5.326  10.068  0.4870  0.1195 -0.4023
  106OSM    H7S10807   5.668   5.377  10.112  1.0014 -0.3535 -0.8759
  106OSM    H7T10808   5.525   5.402  10.009 -1.8447 -0.0438  1.4720
  106OSM    C8S10809   5.621   5.204   9.985 -0.2182 -0.9613  0.6807
  106OSM    H8S10810   5.535   5.162   9.929 -0.2140  2.5495 -2.1229
  106OSM    H8T10811   5.658   5.132  10.062 -0.2832 -0.8121  0.8481
  106OSM    C9S10812   5.718   5.233   9.868 -0.0495 -0.1060 -0.5425
  106OSM    H9S10813   5.766   5.140   9.833 -1.2543 -0.2298 -1.9058
  106OSM    H9T10814   5.788   5.310   9.906  0.2928  0.1770 -1.7416
  106OSM   C10S10815   5.652   5.298   9.740 -0.2735 -0.2014 -0.6541
  106OSM   H10S10816   5.611   5.401   9.747 -0.2191 -0.2235  0.0676
  106OSM   H10T10817   5.562   5.239   9.712 -1.1439  0.7688  0.0583
  106OSM   C11S10818   5.746   5.295   9.624 -0.1776  0.5174  0.1192
  106OSM   H11S10819   5.851   5.282   9.660  0.6716  2.8323 -1.3695
  106OSM   H11T10820   5.759   5.398   9.582 -1.5618  1.9768  3.1052
  106OSM   C12S10821   5.699   5.195   9.513  0.2707  0.1065 -0.0763
  106OSM   H12S10822   5.605   5.235   9.470  1.1947  2.0112 -0.3889
  106OSM   H12T10823   5.706   5.092   9.553  0.5841  0.0602 -0.2399
  106OSM   C13S10824   5.777   5.193   9.378 -0.2787 -0.7423 -0.7121
  106OSM   H13S10825   5.741   5.113   9.310 -0.4256 -2.8260  1.7208
  106OSM   H13T10826   5.881   5.170   9.410 -0.9865 -3.2110 -0.0693
  106OSM   C14S10827   5.773   5.325   9.303 -0.1582 -0.6954  0.1006
  106OSM   H14S10828   5.806   5.401   9.377  0.9632 -0.7858 -0.2965
  106OSM   H14T10829   5.670   5.359   9.280 -0.1397 -2.6431 -3.2623
  106OSM   C15S10830   5.848   5.336   9.169 -0.9157  0.1334  0.3900
  106OSM   H15S10831   5.820   5.255   9.100  0.3714 -1.3946  1.6252
  106OSM   H15T10832   5.959   5.327   9.172 -0.9689 -0.6384  0.0150
  106OSM   C16S10833   5.804   5.466   9.095 -0.0107 -0.1819 -0.3139
  106OSM   H16S10834   5.851   5.553   9.146 -0.3414 -1.3639  2.0861
  106OSM   H16T10835   5.696   5.487   9.087 -0.0402 -1.6945 -4.9265
  106OSM   C17S10836   5.849   5.469   8.949  0.4527  0.1323 -0.4269
  106OSM   H17S10837   5.817   5.570   8.917 -3.4872 -0.4941  1.2834
  106OSM   H17T10838   5.793   5.392   8.892  0.4536 -0.5230  0.4328
  106OSM   C18S10839   5.997   5.447   8.918  0.1086 -0.6445 -0.5358
  106OSM   H18S10840   6.031   5.349   8.958  0.2995 -0.9608 -1.4594
  106OSM   H18T10841   6.072   5.514   8.965 -0.0322  0.4655 -1.8743
  106OSM   H18U10842   6.018   5.454   8.809 -0.0647 -0.6667 -0.5720
  106OSM    C1F10843   5.751   4.769  10.181  0.1373  0.4001  0.5268
  106OSM     OF10844   5.678   4.674  10.216  0.1728 -0.1088 -0.2667
  106OSM    C2F10845   5.837   4.754  10.059 -0.1637 -0.1283  0.3500
  106OSM    H2F10846   5.941   4.734  10.092 -0.5484  2.2182  3.2326
  106OSM    H2G10847   5.839   4.852  10.005  0.4519 -0.7527 -0.7961
  106OSM    C3F10848   5.794   4.636   9.970 -0.6202  0.1357 -0.0002
  106OSM    H3F10849   5.693   4.655   9.928 -0.2622  1.1103 -0.4381
  106OSM    H3G10850   5.803   4.539  10.023  0.9345  0.9057  1.1830
  106OSM    C4F10851   5.898   4.622   9.857 -0.2076 -0.0335  0.3842
  106OSM    H4F10852   5.872   4.526   9.808 -0.7762 -0.7510  2.0497
  106OSM    H4G10853   5.996   4.605   9.907 -1.5786 -2.6172  2.3459
  106OSM    C5F10854   5.899   4.726   9.741 -0.1152  0.1527  0.8471
  106OSM    H5F10855   5.918   4.828   9.781  0.7800  0.3863 -0.1647
  106OSM    H5G10856   5.799   4.724   9.692  1.5147  2.7039 -2.7764
  106OSM    C6F10857   6.007   4.687   9.638 -0.3375 -0.3414  0.3216
  106OSM    H6F10858   6.001   4.576   9.637 -0.7605 -0.3301  1.2137
  106OSM    H6G10859   6.110   4.714   9.669 -0.3402  1.3766 -1.0886
  106OSM    C7F10860   5.982   4.749   9.500 -0.3475 -0.5251 -0.2101
  106OSM    H7F10861   5.991   4.859   9.514  1.3105 -0.6217 -0.4393
  106OSM    H7G10862   5.882   4.727   9.457 -0.8817  2.5311 -0.6746
  106OSM    C8F10863   6.083   4.699   9.390  0.6591  0.1501  0.1038
  106OSM    H8F10864   6.185   4.729   9.426  0.3784 -0.8261  1.7537
  106OSM    H8G10865   6.062   4.770   9.307 -2.0407 -1.1780 -0.3988
  106OSM    C9F10866   6.088   4.556   9.351  0.1408  0.5409  0.5366
  106OSM    H9F10867   6.061   4.482   9.428  1.9648  0.0802  0.7383
  106OSM   C10F10868   6.122   4.510   9.230 -0.0163  0.2423  0.2288
  106OSM   H10F10869   6.126   4.401   9.216  0.7705  0.1559  1.0678
  106OSM   C11F10870   6.166   4.590   9.113  0.6072  0.4448 -0.5358
  106OSM   H11F10871   6.213   4.524   9.037 -0.6034 -1.7952  0.5993
  106OSM   H11G10872   6.242   4.665   9.144  0.1172  0.2709  1.1432
  106OSM   C12F10873   6.044   4.661   9.055  0.3491  0.5211  0.1487
  106OSM   H12F10874   6.073   4.741   8.983  1.5647 -0.1822 -0.1646
  106OSM   H12G10875   5.982   4.708   9.134 -0.8165 -0.5673 -0.1054
  106OSM   C13F10876   5.943   4.576   8.974 -0.6852  1.0427 -0.4702
  106OSM   H13F10877   5.869   4.651   8.939 -0.3013  2.6677  2.0582
  106OSM   H13G10878   5.888   4.511   9.046  0.5207  0.8200  0.2756
  106OSM   C14F10879   5.998   4.490   8.857 -0.0281 -0.8286 -0.4237
  106OSM   H14F10880   5.910   4.465   8.793 -1.8326 -0.1147  1.7264
  106OSM   H14G10881   6.033   4.392   8.896 -1.2607 -0.4874  1.5944
  106OSM   C15F10882   6.103   4.556   8.771 -0.5358 -0.4563 -0.8842
  106OSM   H15F10883   6.203   4.579   8.815  0.0499  1.0052 -2.9159
  106OSM   H15G10884   6.063   4.654   8.737  1.5432  0.3994 -0.9269
  106OSM   C16F10885   6.130   4.471   8.640 -0.5819 -0.4528  0.2168
  106OSM   H16F10886   6.034   4.468   8.585  0.3917 -0.6949 -1.4956
  106OSM   H16G10887   6.171   4.371   8.664 -0.7556 -1.2098 -2.5466
  106OSM   C17F10888   6.239   4.535   8.549 -0.0253 -0.0749 -0.0119
  106OSM   H17F10889   6.332   4.556   8.607 -1.5994  0.5388  2.3940
  106OSM   H17G10890   6.209   4.634   8.508  0.5695  0.6495  1.2739
  106OSM   C18F10891   6.282   4.434   8.438  0.4564 -0.4725  0.1779
  106OSM   H18F10892   6.191   4.428   8.374 -0.0633  3.0816  0.4884
  106OSM   H18G10893   6.314   4.338   8.483  2.2901  1.9531  4.3929
  106OSM   H18H10894   6.365   4.487   8.387  1.6709 -1.6075  0.9628
  107OSM      N10895   1.914   2.671  11.162  0.3411  1.1677 -0.4098
  107OSM    C1510896   1.812   2.772  11.196  0.1226  0.1180 -0.6366
  107OSM   H15A10897   1.718   2.720  11.182  0.0919 -0.2159  0.6605
  107OSM   H15B10898   1.812   2.866  11.143 -1.8810  0.6390  0.2319
  107OSM   H15C10899   1.814   2.792  11.303 -0.1751 -1.3599 -0.3487
  107OSM    C1410900   2.046   2.740  11.174 -1.0021 -0.3736  0.6972
  107OSM   H14A10901   2.069   2.781  11.271  0.0921  0.4765  0.0935
  107OSM   H14B10902   2.049   2.825  11.106  1.8467 -1.8739 -1.1556
  107OSM   H14C10903   2.131   2.681  11.145 -1.2792 -0.1938 -0.5131
  107OSM    C1310904   1.912   2.565  11.269 -0.5056  0.2388 -0.4305
  107OSM   H13A10905   1.975   2.479  11.254  0.4948  1.0873 -1.1967
  107OSM   H13B10906   1.813   2.525  11.284  0.3646 -1.4536  0.9870
  107OSM   H13C10907   1.945   2.605  11.364 -0.2198  0.9328 -0.8154
  107OSM    C1210908   1.891   2.624  11.022 -0.6754 -0.5686  0.5700
  107OSM   H12A10909   1.908   2.708  10.957 -3.9515  0.3905  0.8617
  107OSM   H12B10910   1.785   2.606  11.008 -0.0215 -1.5558 -3.7369
  107OSM    C1110911   1.972   2.502  10.969  0.7925  0.1701 -0.1247
  107OSM   H11A10912   1.929   2.454  10.878 -0.9199 -0.1781  0.8624
  107OSM   H11B10913   1.970   2.430  11.053  0.8795  0.9301  0.5395
  107OSM      P10914   2.131   2.626  10.825  0.2427 -0.0586  0.4388
  107OSM    O1310915   2.221   2.734  10.868  0.1200  0.2518  0.3121
  107OSM    O1410916   2.183   2.529  10.722  0.2306 -0.0836  0.6465
  107OSM    O1110917   2.000   2.692  10.764  0.4695  0.5067  0.1849
  107OSM    O1210918   2.095   2.543  10.950  0.1440 -0.4183  0.5802
  107OSM    C1S10919   2.027   2.794  10.668  0.7377 -0.3443  0.8423
  107OSM    H1S10920   2.132   2.803  10.633  0.9699  1.6219  1.9920
  107OSM    H1T10921   1.983   2.889  10.703 -0.4718 -0.6285  0.1474
  107OSM     NF10922   2.000   2.816  10.420 -0.4274 -0.0639 -0.0754
  107OSM    HNF10923   1.962   2.907  10.401 -1.8893 -0.5767  0.3581
  107OSM    C2S10924   1.939   2.757  10.539 -0.4375 -0.8540  0.3454
  107OSM    H2S10925   1.943   2.646  10.529 -1.9004 -0.9925  1.1516
  107OSM    C3S10926   1.791   2.799  10.561  0.1195  0.2275  0.1998
  107OSM    H3S10927   1.785   2.909  10.574  1.3205  0.1649  1.3471
  107OSM     O310928   1.741   2.753  10.686 -0.1270 -0.1235 -0.3735
  107OSM    HO310929   1.821   2.714  10.721 -0.2560 -1.2636 -1.3363
  107OSM    C4S10930   1.706   2.747  10.446  0.5533 -0.1650 -0.1930
  107OSM    H4S10931   1.652   2.823  10.388  0.2232  0.4447  0.9116
  107OSM    C5S10932   1.687   2.612  10.426  0.2129  0.1505 -0.3782
  107OSM    H5S10933   1.721   2.549  10.509  0.0727  0.7296  0.1160
  107OSM    C6S10934   1.612   2.548  10.312 -0.4079  0.2692  0.0421
  107OSM    H6S10935   1.504   2.571  10.325 -0.1083  1.9260 -0.2605
  107OSM    H6T10936   1.635   2.440  10.309  1.5332  0.5519  2.6529
  107OSM    C7S10937   1.636   2.612  10.180 -0.3522  0.2189  0.1734
  107OSM    H7S10938   1.741   2.638  10.155 -0.9200  3.3233  0.7520
  107OSM    H7T10939   1.585   2.710  10.173 -1.8892 -0.5585  0.4486
  107OSM    C8S10940   1.596   2.520  10.059  0.7322  0.3095  0.4249
  107OSM    H8S10941   1.496   2.472  10.062  0.1187  1.6405  2.0138
  107OSM    H8T10942   1.665   2.432  10.060 -2.4463 -2.2953 -1.2019
  107OSM    C9S10943   1.620   2.595   9.931 -0.1430 -0.6477 -1.2090
  107OSM    H9S10944   1.713   2.655   9.933 -0.3118 -0.3294  3.9806
  107OSM    H9T10945   1.548   2.678   9.917  0.1184  0.0446  1.2693
  107OSM   C10S10946   1.602   2.505   9.810 -0.7954 -0.8264  0.5378
  107OSM   H10S10947   1.495   2.478   9.799 -0.7450 -0.8425  0.0940
  107OSM   H10T10948   1.669   2.416   9.814 -0.5073 -0.5594  1.9678
  107OSM   C11S10949   1.638   2.580   9.677  0.1539  0.3375  0.6984
  107OSM   H11S10950   1.742   2.617   9.685  0.0884  0.3919  1.2989
  107OSM   H11T10951   1.579   2.674   9.680 -0.0035  0.2301  0.9369
  107OSM   C12S10952   1.606   2.508   9.549  0.2968 -0.0274 -0.1813
  107OSM   H12S10953   1.498   2.481   9.555  0.5951 -0.9856  1.1188
  107OSM   H12T10954   1.665   2.415   9.538 -1.7332 -1.3111 -0.5737
  107OSM   C13S10955   1.619   2.598   9.418 -0.6021 -0.5342  0.9463
  107OSM   H13S10956   1.707   2.666   9.421 -0.5344 -0.5112 -0.6699
  107OSM   H13T10957   1.528   2.659   9.404  0.3638  1.0108  1.2872
  107OSM   C14S10958   1.628   2.502   9.295  0.3816  0.0909  0.1839
  107OSM   H14S10959   1.540   2.434   9.299  0.8215 -0.4618  0.8015
  107OSM   H14T10960   1.718   2.436   9.292 -0.0201 -0.3741 -2.7639
  107OSM   C15S10961   1.605   2.567   9.154  0.3326 -0.0710 -0.8011
  107OSM   H15S10962   1.677   2.649   9.134 -0.7451  1.2842  0.7612
  107OSM   H15T10963   1.508   2.621   9.165  0.6711  0.6976 -1.5688
  107OSM   C16S10964   1.612   2.472   9.036 -0.8727 -0.2194 -0.9368
  107OSM   H16S10965   1.522   2.406   9.037  0.1810 -1.6751  1.1410
  107OSM   H16T10966   1.706   2.414   9.037 -1.1643 -0.6745  0.3769
  107OSM   C17S10967   1.593   2.541   8.899 -0.5883 -0.1634 -0.2297
  107OSM   H17S10968   1.621   2.648   8.909 -2.4344  0.3558 -0.4229
  107OSM   H17T10969   1.487   2.541   8.865 -0.4172 -0.2254 -0.7677
  107OSM   C18S10970   1.699   2.509   8.787 -0.7051 -0.0197 -0.1849
  107OSM   H18S10971   1.803   2.520   8.824 -0.9492 -3.2399  1.6934
  107OSM   H18T10972   1.688   2.584   8.707 -1.7912  1.4582  1.3171
  107OSM   H18U10973   1.688   2.401   8.763  2.3857 -0.2371 -0.7993
  107OSM    C1F10974   2.102   2.764  10.352  0.2142  0.3598 -0.1192
  107OSM     OF10975   2.137   2.649  10.383  0.1000 -0.5212 -0.1424
  107OSM    C2F10976   2.167   2.844  10.242 -0.6104  0.1116  0.2287
  107OSM    H2F10977   2.147   2.951  10.264 -0.2169  0.4669 -1.1292
  107OSM    H2G10978   2.112   2.818  10.149 -0.0710 -2.1584  0.5230
  107OSM    C3F10979   2.319   2.815  10.224 -0.7113 -0.4759 -0.2576
  107OSM    H3F10980   2.325   2.707  10.198  2.0839 -0.3146 -0.4374
  107OSM    H3G10981   2.376   2.834  10.318 -0.5541 -2.3785  0.0504
  107OSM    C4F10982   2.385   2.889  10.107  0.2141 -0.0701 -0.6092
  107OSM    H4F10983   2.495   2.881  10.117  0.3901 -1.7947 -3.3145
  107OSM    H4G10984   2.355   2.994  10.129 -2.7918 -1.0549  0.2878
  107OSM    C5F10985   2.341   2.847   9.966 -0.1543 -0.1037  0.5825
  107OSM    H5F10986   2.230   2.845   9.962 -0.1810  2.2266 -1.3338
  107OSM    H5G10987   2.370   2.741   9.952  0.2787  0.1134 -0.1601
  107OSM    C6F10988   2.382   2.944   9.858 -0.1170 -0.1781 -0.5484
  107OSM    H6F10989   2.488   2.928   9.829  0.9935  1.7956  2.1770
  107OSM    H6G10990   2.365   3.047   9.898 -3.3885 -0.2883 -1.5213
  107OSM    C7F10991   2.301   2.918   9.730 -0.3963 -0.1798 -0.2514
  107OSM    H7F10992   2.192   2.940   9.740  0.0884  2.6085 -0.7104
  107OSM    H7G10993   2.310   2.809   9.715  1.2142 -0.2887  1.3458
  107OSM    C8F10994   2.352   2.994   9.610 -0.7649  0.9179  0.2502
  107OSM    H8F10995   2.460   2.968   9.603 -0.7721  0.5985  1.2060
  107OSM    H8G10996   2.343   3.104   9.614  0.3888  0.9871  1.5920
  107OSM    C9F10997   2.290   2.943   9.480 -0.4168  0.2738  0.2426
  107OSM    H9F10998   2.321   2.838   9.464  0.0367  0.3890  0.3557
  107OSM   C10F10999   2.218   3.008   9.391  0.2179  0.1177 -0.0260
  107OSM   H10F11000   2.175   2.968   9.298  1.9451  2.0103 -1.7146
  107OSM   C11F11001   2.173   3.148   9.415  0.2816 -0.4609  0.6567
  107OSM   H11F11002   2.259   3.202   9.460  1.6553 -0.7813 -1.4987
  107OSM   H11G11003   2.089   3.151   9.486 -1.2947  0.9063 -1.2184
  107OSM   C12F11004   2.130   3.219   9.283 -0.5157  0.7194 -0.6208
  107OSM   H12F11005   2.062   3.297   9.323 -2.4957 -1.6787  0.8801
  107OSM   H12G11006   2.069   3.156   9.215  1.4490 -1.6781 -0.2232
  107OSM   C13F11007   2.258   3.281   9.229  0.3122  0.1771  0.5447
  107OSM   H13F11008   2.330   3.196   9.230 -1.6897 -1.5475  1.7708
  107OSM   H13G11009   2.302   3.359   9.294 -0.3548  0.6199  0.4610
  107OSM   C14F11010   2.233   3.344   9.086 -0.0196 -0.3281  0.0584
  107OSM   H14F11011   2.167   3.434   9.090  1.0143  0.6016 -2.7605
  107OSM   H14G11012   2.178   3.270   9.024 -1.4908  0.8335 -0.0717
  107OSM   C15F11013   2.355   3.398   9.006 -0.5176  0.0661  0.3226
  107OSM   H15F11014   2.419   3.312   8.977  1.7401  0.5039  3.7261
  107OSM   H15G11015   2.406   3.449   9.091 -0.0947  0.4627 -0.1699
  107OSM   C16F11016   2.336   3.491   8.893  0.6898 -0.5414  0.1785
  107OSM   H16F11017   2.434   3.520   8.850  0.4008 -0.5248 -0.4764
  107OSM   H16G11018   2.288   3.584   8.929  2.1484  0.1202  0.4424
  107OSM   C17F11019   2.257   3.432   8.784 -0.4871 -0.1591  0.0920
  107OSM   H17F11020   2.159   3.408   8.829  0.3839  0.7805  2.6023
  107OSM   H17G11021   2.308   3.334   8.772 -2.3332 -1.1192 -0.0593
  107OSM   C18F11022   2.246   3.513   8.652 -0.3877  0.1209  0.7862
  107OSM   H18F11023   2.168   3.470   8.586 -0.8395  0.2700  1.2303
  107OSM   H18G11024   2.340   3.504   8.592 -1.2623 -0.2349 -0.5588
  107OSM   H18H11025   2.240   3.622   8.675  1.0110  0.5319 -0.6303
  108OSM      N11026   5.323   3.506  10.982 -0.2156 -0.1810  0.3319
  108OSM    C1511027   5.407   3.621  11.043 -0.4674  0.5226 -0.0346
  108OSM   H15A11028   5.507   3.607  11.004  0.5553 -0.6534  2.8879
  108OSM   H15B11029   5.408   3.619  11.151  2.1264 -0.1247 -0.0181
  108OSM   H15C11030   5.372   3.720  11.017  1.0459  1.0853 -0.0040
  108OSM    C1411031   5.395   3.379  11.015  0.8293  0.0658 -0.4947
  108OSM   H14A11032   5.331   3.292  11.004 -0.5816  1.2869 -2.1131
  108OSM   H14B11033   5.416   3.391  11.120 -1.7065  3.1135 -0.2677
  108OSM   H14C11034   5.479   3.362  10.949  1.4793  0.8562  0.1259
  108OSM    C1311035   5.193   3.510  11.048 -0.3315 -0.7097  0.1410
  108OSM   H13A11036   5.212   3.510  11.154 -1.1933 -0.8105  0.2940
  108OSM   H13B11037   5.132   3.424  11.025 -0.6536 -0.1555 -1.1450
  108OSM   H13C11038   5.133   3.593  11.014  1.7359  0.2603 -1.2437
  108OSM    C1211039   5.325   3.521  10.834  1.0994 -0.0975  0.1869
  108OSM   H12A11040   5.275   3.437  10.787  0.3124  0.8948 -0.7545
  108OSM   H12B11041   5.425   3.528  10.793  0.7873 -0.8547 -0.7222
  108OSM    C1111042   5.258   3.642  10.769  0.3415 -0.0963  0.0110
  108OSM   H11A11043   5.169   3.664  10.831 -1.2249 -3.0717 -1.0769
  108OSM   H11B11044   5.238   3.620  10.662  1.0970 -0.4328 -0.0703
  108OSM      P11045   5.476   3.787  10.703  0.0547  0.6236 -0.4503
  108OSM    O1311046   5.498   3.935  10.715  0.2551 -0.3523 -0.3226
  108OSM    O1411047   5.588   3.695  10.743  0.0256  0.1279  0.4154
  108OSM    O1111048   5.437   3.756  10.545 -0.4106 -0.1617  0.0293
  108OSM    O1211049   5.348   3.748  10.792  0.8937 -0.8303  0.3521
  108OSM    C1S11050   5.329   3.834  10.492 -0.8711  0.3699  0.0583
  108OSM    H1S11051   5.354   3.940  10.514  0.4603 -0.5091  3.0980
  108OSM    H1T11052   5.236   3.812  10.549 -1.3939  3.2382  0.4233
  108OSM     NF11053   5.234   3.917  10.283  0.3907  0.2775  0.6148
  108OSM    HNF11054   5.138   3.892  10.271  0.3002  1.0036 -0.2247
  108OSM    C2S11055   5.315   3.814  10.342 -0.1990  0.4115 -0.5362
  108OSM    H2S11056   5.419   3.817  10.304 -0.2625 -1.6612 -0.9355
  108OSM    C3S11057   5.255   3.667  10.323  0.5659  0.0904 -0.2243
  108OSM    H3S11058   5.167   3.650  10.388 -1.3247  0.5519 -2.5710
  108OSM     O311059   5.340   3.565  10.381  0.1891 -0.9409 -0.8075
  108OSM    HO311060   5.406   3.602  10.439  1.4822 -2.6249 -1.1595
  108OSM    C4S11061   5.216   3.643  10.176  0.1251  0.2390 -0.2025
  108OSM    H4S11062   5.130   3.705  10.146  0.6839  0.8800 -0.5270
  108OSM    C5S11063   5.279   3.566  10.080  0.4056  0.2601 -0.5762
  108OSM    H5S11064   5.384   3.540  10.099  0.6658  0.8580 -1.1879
  108OSM    C6S11065   5.239   3.556   9.938 -0.5160 -0.4469 -0.1802
  108OSM    H6S11066   5.128   3.555   9.930 -0.3572 -3.9338 -3.2808
  108OSM    H6T11067   5.280   3.464   9.891  0.4041 -0.5132  0.7454
  108OSM    C7S11068   5.287   3.686   9.875  1.3211 -0.0145  0.4447
  108OSM    H7S11069   5.395   3.701   9.897  1.8370 -1.3306 -1.0522
  108OSM    H7T11070   5.230   3.774   9.911 -1.3309 -1.2767 -0.5442
  108OSM    C8S11071   5.262   3.669   9.721  0.0780  0.1157  0.5508
  108OSM    H8S11072   5.265   3.776   9.690 -1.6682 -0.0416 -0.1691
  108OSM    H8T11073   5.154   3.650   9.707 -0.1667  1.9606 -0.2866
  108OSM    C9S11074   5.368   3.581   9.649 -0.7457  0.4546 -0.4200
  108OSM    H9S11075   5.347   3.480   9.689 -2.1789  1.2572  0.9119
  108OSM    H9T11076   5.468   3.615   9.683 -0.5810 -1.4370  1.0473
  108OSM   C10S11077   5.371   3.606   9.495  0.3530 -0.1355 -0.7742
  108OSM   H10S11078   5.446   3.542   9.444 -0.0536  0.3844 -2.0244
  108OSM   H10T11079   5.400   3.713   9.486 -0.5346  0.4075  2.1762
  108OSM   C11S11080   5.239   3.595   9.422  0.9963 -0.4373  0.2578
  108OSM   H11S11081   5.160   3.630   9.492 -0.3079  0.8735 -1.8448
  108OSM   H11T11082   5.194   3.497   9.393 -1.0514  1.2034 -2.2192
  108OSM   C12S11083   5.236   3.681   9.294  0.3200 -0.4628  0.6174
  108OSM   H12S11084   5.310   3.635   9.225  0.9423  1.8587 -0.2914
  108OSM   H12T11085   5.263   3.784   9.326 -0.9478 -0.3006  1.1746
  108OSM   C13S11086   5.098   3.679   9.225  0.4544  0.1780  0.5267
  108OSM   H13S11087   5.021   3.699   9.302  0.9396  1.8591  0.6106
  108OSM   H13T11088   5.089   3.583   9.171 -0.9205  1.9408 -2.5562
  108OSM   C14S11089   5.106   3.779   9.109  0.0804  0.3428  0.0808
  108OSM   H14S11090   5.196   3.757   9.047 -0.9604 -1.3285 -0.8800
  108OSM   H14T11091   5.123   3.883   9.143 -2.1293  0.4595  0.8634
  108OSM   C15S11092   4.972   3.767   9.029 -0.7015 -0.0137 -0.8881
  108OSM   H15S11093   4.884   3.753   9.095  0.3857 -1.4559  0.2899
  108OSM   H15T11094   4.985   3.680   8.961  0.4704 -1.5393  1.2266
  108OSM   C16S11095   4.962   3.898   8.945 -0.6176 -0.0635 -1.2236
  108OSM   H16S11096   5.049   3.917   8.878 -0.7336  1.5125 -0.9605
  108OSM   H16T11097   4.951   3.981   9.018 -0.1886  1.3125 -2.6707
  108OSM   C17S11098   4.830   3.902   8.869 -0.6626  0.0944  1.0338
  108OSM   H17S11099   4.794   4.006   8.857  0.0436  0.0801 -1.2607
  108OSM   H17T11100   4.755   3.846   8.930  0.3098 -0.3686  1.8068
  108OSM   C18S11101   4.856   3.839   8.730  0.0638 -0.1476  0.0718
  108OSM   H18S11102   4.934   3.899   8.679 -0.0670  0.9776  1.1885
  108OSM   H18T11103   4.764   3.835   8.667 -1.8075  0.2542  2.7223
  108OSM   H18U11104   4.897   3.736   8.742 -0.2964 -0.3815 -0.6796
  108OSM    C1F11105   5.276   4.029  10.236  0.1583 -0.0842  0.1885
  108OSM     OF11106   5.401   4.046  10.241  0.2780 -0.2062  0.2628
  108OSM    C2F11107   5.164   4.126  10.187 -0.0248  0.1032  0.0758
  108OSM    H2F11108   5.096   4.132  10.274  0.3577 -1.8065  0.5356
  108OSM    H2G11109   5.104   4.071  10.112  1.7179 -2.0697  0.2064
  108OSM    C3F11110   5.226   4.264  10.141 -0.1638 -0.1519  1.0428
  108OSM    H3F11111   5.315   4.249  10.077 -0.0756  0.5671  0.9935
  108OSM    H3G11112   5.277   4.318  10.224  0.0442  0.8706  0.2552
  108OSM    C4F11113   5.123   4.352  10.076  0.2015 -0.1083 -0.3546
  108OSM    H4F11114   5.156   4.457  10.062 -0.8171  0.2264 -0.3165
  108OSM    H4G11115   5.039   4.351  10.149  1.2135  1.9336  0.8846
  108OSM    C5F11116   5.062   4.303   9.948  0.2966 -0.6421 -0.0229
  108OSM    H5F11117   4.999   4.378   9.894  0.8258 -0.7906 -0.8570
  108OSM    H5G11118   4.986   4.227   9.974 -0.5620 -0.1157 -0.9386
  108OSM    C6F11119   5.160   4.255   9.848 -0.0564  0.0154 -0.1679
  108OSM    H6F11120   5.232   4.186   9.898 -1.5970 -2.7692 -1.6394
  108OSM    H6G11121   5.227   4.336   9.811 -0.8564  1.6432  1.8456
  108OSM    C7F11122   5.096   4.173   9.732  0.1614 -0.1618 -0.1363
  108OSM    H7F11123   5.042   4.089   9.781 -1.2073  0.4943 -0.4946
  108OSM    H7G11124   5.173   4.135   9.662  1.9147  0.6892  1.2709
  108OSM    C8F11125   4.998   4.255   9.641 -0.1076  0.2694  0.5143
  108OSM    H8F11126   4.905   4.284   9.695 -0.6234 -0.0885 -0.1763
  108OSM    H8G11127   4.965   4.184   9.563 -1.7183  0.8010  0.7012
  108OSM    C9F11128   5.072   4.374   9.581 -0.3871  0.2346  0.1676
  108OSM    H9F11129   5.098   4.461   9.644 -2.5881 -1.3773  3.4596
  108OSM   C10F11130   5.106   4.387   9.453 -0.1870 -0.5047 -1.2573
  108OSM   H10F11131   5.155   4.482   9.426  1.4405 -0.5297  1.3938
  108OSM   C11F11132   5.061   4.301   9.343  0.1111 -0.3148 -0.5587
  108OSM   H11F11133   4.950   4.288   9.341  0.2108 -1.4729  0.9600
  108OSM   H11G11134   5.098   4.197   9.355  2.0810  0.2750 -1.2845
  108OSM   C12F11135   5.122   4.367   9.217  0.4382  0.1683 -0.1340
  108OSM   H12F11136   5.232   4.362   9.225  0.3135  0.1996  2.0507
  108OSM   H12G11137   5.096   4.475   9.218 -1.3584 -0.2444  2.2687
  108OSM   C13F11138   5.077   4.311   9.086 -0.7370  0.3931  0.9502
  108OSM   H13F11139   4.966   4.320   9.077 -0.5867  4.5047  2.0778
  108OSM   H13G11140   5.088   4.200   9.088 -1.2047  0.3741  3.4755
  108OSM   C14F11141   5.138   4.380   8.963 -0.5296  0.3501 -0.1797
  108OSM   H14F11142   5.248   4.370   8.958 -0.4037  1.7332 -0.3309
  108OSM   H14G11143   5.119   4.489   8.974 -0.2668  0.2263  1.7193
  108OSM   C15F11144   5.090   4.325   8.824 -0.5761 -0.3385 -0.3326
  108OSM   H15F11145   4.986   4.365   8.815 -0.5272  0.2680  1.5748
  108OSM   H15G11146   5.084   4.215   8.831 -0.9468 -0.3983 -1.4319
  108OSM   C16F11147   5.170   4.363   8.699  0.3454  0.1145  0.2240
  108OSM   H16F11148   5.276   4.368   8.730  0.9192  1.2195 -1.7767
  108OSM   H16G11149   5.148   4.465   8.661  2.3395 -0.4442 -2.5864
  108OSM   C17F11150   5.153   4.262   8.586 -0.6192  0.1919 -0.8819
  108OSM   H17F11151   5.182   4.297   8.485 -2.1961  1.3676 -0.9578
  108OSM   H17G11152   5.042   4.266   8.584 -0.6277  1.1485  0.9029
  108OSM   C18F11153   5.214   4.127   8.615 -0.5860  0.1167 -0.5458
  108OSM   H18F11154   5.148   4.066   8.681 -1.5887 -0.2136 -1.8286
  108OSM   H18G11155   5.312   4.138   8.666  0.7134 -0.1253 -2.9256
  108OSM   H18H11156   5.232   4.061   8.528  1.3276 -0.1044 -0.0104
  109OSM      N11157   4.040   2.454  11.239  0.0258  0.4793 -0.3620
  109OSM    C1511158   4.117   2.577  11.227 -0.2680  0.1738 -0.2246
  109OSM   H15A11159   4.104   2.630  11.134  1.8770 -0.1445 -0.7192
  109OSM   H15B11160   4.222   2.559  11.247 -1.1910 -4.0487  1.2599
  109OSM   H15C11161   4.091   2.637  11.313  0.0493 -2.9841  2.1699
  109OSM    C1411162   4.063   2.373  11.357 -0.7171  0.2258  0.4273
  109OSM   H14A11163   4.023   2.416  11.447  0.7200  0.2062  1.0998
  109OSM   H14B11164   4.169   2.353  11.363 -0.2005  2.0664 -1.6521
  109OSM   H14C11165   4.009   2.280  11.351  0.3323 -0.4381  1.0408
  109OSM    C1311166   3.899   2.499  11.230 -0.3273 -0.1774 -0.0272
  109OSM   H13A11167   3.868   2.552  11.319 -0.4829  0.3929 -0.4218
  109OSM   H13B11168   3.829   2.417  11.217 -0.5052 -0.0468  0.0948
  109OSM   H13C11169   3.886   2.564  11.145  0.1470 -0.3622 -0.2378
  109OSM    C1211170   4.063   2.377  11.101 -0.5144 -0.3370  0.6776
  109OSM   H12A11171   4.171   2.369  11.098 -0.4598  0.5644 -0.0261
  109OSM   H12B11172   4.020   2.436  11.022 -0.0182  0.7775  1.2241
  109OSM    C1111173   4.007   2.239  11.081 -0.6841  0.6671  0.1218
  109OSM   H11A11174   4.031   2.162  11.158  1.5347  0.0152 -1.1841
  109OSM   H11B11175   4.049   2.191  10.990  0.4172 -0.8625  1.4023
  109OSM      P11176   3.769   2.130  11.071  0.2606 -0.0658 -0.1787
  109OSM    O1311177   3.834   2.013  11.125  0.0567  0.0619  0.5503
  109OSM    O1411178   3.644   2.169  11.127 -0.5993 -0.2549 -0.2403
  109OSM    O1111179   3.746   2.105  10.918  0.2982 -0.2964  0.0080
  109OSM    O1211180   3.862   2.261  11.066 -0.3119 -0.4202  0.0678
  109OSM    C1S11181   3.756   2.200  10.813  0.4383  0.1664 -0.1590
  109OSM    H1S11182   3.792   2.300  10.848 -1.9669  1.3527 -0.9429
  109OSM    H1T11183   3.658   2.216  10.764  1.2230 -0.5276 -1.9869
  109OSM     NF11184   3.899   2.233  10.607  0.4613 -0.2289 -0.2374
  109OSM    HNF11185   3.861   2.207  10.518 -0.5586 -1.8028  0.6222
  109OSM    C2S11186   3.861   2.143  10.714  0.2854 -0.1034  0.4562
  109OSM    H2S11187   3.951   2.124  10.776  0.0231  1.1342  1.2312
  109OSM    C3S11188   3.816   2.004  10.671  0.3381 -0.0852  0.2908
  109OSM    H3S11189   3.706   2.015  10.653  0.2202  2.1465  2.2240
  109OSM     O311190   3.842   1.907  10.771  0.1071  0.3347 -0.2338
  109OSM    HO311191   3.853   1.971  10.841  1.5187  2.0290 -1.9491
  109OSM    C4S11192   3.890   1.948  10.551 -0.2089 -0.0607 -0.1481
  109OSM    H4S11193   3.986   1.900  10.575 -0.1383  0.0477 -0.2150
  109OSM    C5S11194   3.842   1.948  10.424 -0.9924 -0.0095  0.7497
  109OSM    H5S11195   3.749   2.000  10.399 -0.3248  1.3916  1.1424
  109OSM    C6S11196   3.925   1.894  10.304  0.1326 -0.2821 -0.9326
  109OSM    H6S11197   3.868   1.801  10.282  2.6160 -2.3953  1.2371
  109OSM    H6T11198   4.028   1.855  10.320 -0.5355 -2.5721 -1.9207
  109OSM    C7S11199   3.934   1.988  10.184 -0.6539 -0.1652  0.6618
  109OSM    H7S11200   3.993   2.082  10.192 -1.4233  0.4860 -0.9875
  109OSM    H7T11201   3.832   2.029  10.162 -0.0639  0.0110 -1.8436
  109OSM    C8S11202   3.980   1.917  10.065  0.1548 -0.2544 -0.0235
  109OSM    H8S11203   3.927   1.820  10.060  0.4037 -0.3137 -2.0084
  109OSM    H8T11204   4.086   1.884  10.059  0.1051 -0.1776 -1.5235
  109OSM    C9S11205   3.942   1.971   9.929  0.2610  0.7123  0.5900
  109OSM    H9S11206   3.969   2.078   9.916  0.9553  0.5644  0.7766
  109OSM    H9T11207   3.832   1.960   9.919  0.3713  1.5147 -1.5852
  109OSM   C10S11208   4.006   1.884   9.825 -0.1558  0.3188 -0.0651
  109OSM   H10S11209   3.953   1.787   9.818  1.2624 -0.5134  0.5879
  109OSM   H10T11210   4.111   1.862   9.855 -0.6030  0.5653  1.7412
  109OSM   C11S11211   4.006   1.953   9.680 -0.5009  0.9292  0.5624
  109OSM   H11S11212   4.049   2.055   9.688  0.6617  0.5166 -0.2361
  109OSM   H11T11213   3.900   1.965   9.648 -0.6787 -2.0528 -0.0954
  109OSM   C12S11214   4.071   1.883   9.564 -0.1610  0.7428  0.6115
  109OSM   H12S11215   4.050   1.947   9.476  1.0575 -0.9556 -0.9426
  109OSM   H12T11216   4.027   1.784   9.541 -2.6757  1.2493  2.9253
  109OSM   C13S11217   4.224   1.865   9.587  0.8305  0.6533  0.7192
  109OSM   H13S11218   4.242   1.766   9.633 -1.1665 -0.4390 -0.7728
  109OSM   H13T11219   4.266   1.941   9.657 -0.8364  1.9014  0.4126
  109OSM   C14S11220   4.310   1.895   9.463 -0.0005 -0.3203  0.4642
  109OSM   H14S11221   4.275   1.822   9.386 -0.3488 -1.6011  1.8212
  109OSM   H14T11222   4.414   1.860   9.480  0.1609  0.1502  0.4553
  109OSM   C15S11223   4.312   2.044   9.419  0.2596  0.5044 -0.0313
  109OSM   H15S11224   4.361   2.106   9.497  0.0344 -1.6578  1.8750
  109OSM   H15T11225   4.206   2.077   9.417  0.4639  1.1235 -0.8917
  109OSM   C16S11226   4.381   2.076   9.290  0.5010 -0.2180 -0.5291
  109OSM   H16S11227   4.318   2.044   9.204 -0.4652 -1.6427  0.6820
  109OSM   H16T11228   4.477   2.024   9.271 -0.4648 -2.1824 -0.1937
  109OSM   C17S11229   4.403   2.225   9.274  0.4114 -0.3582 -0.9806
  109OSM   H17S11230   4.445   2.246   9.173 -1.4745 -0.5474 -1.8197
  109OSM   H17T11231   4.481   2.246   9.350 -1.6850  2.7177  0.4433
  109OSM   C18S11232   4.291   2.320   9.309  0.2033 -0.3058  0.5718
  109OSM   H18S11233   4.318   2.428   9.314  0.9205 -0.4142 -0.6278
  109OSM   H18T11234   4.243   2.296   9.406 -0.7912  1.2275  0.4736
  109OSM   H18U11235   4.209   2.313   9.235  1.7022 -1.0729 -1.0483
  109OSM    C1F11236   3.954   2.358  10.616  0.3125 -0.1027  0.1753
  109OSM     OF11237   4.000   2.397  10.719 -0.9115 -0.0957 -0.2911
  109OSM    C2F11238   3.955   2.450  10.494 -0.2696  0.1404  0.2040
  109OSM    H2F11239   3.851   2.478  10.469  0.1491  1.4719 -0.0619
  109OSM    H2G11240   3.993   2.389  10.409  0.3720 -1.0340  1.3082
  109OSM    C3F11241   4.044   2.581  10.515  0.2291  0.6861  0.6576
  109OSM    H3F11242   4.151   2.558  10.535  0.3702 -1.1904 -1.8980
  109OSM    H3G11243   3.998   2.644  10.593  0.3703  2.5690 -0.7232
  109OSM    C4F11244   4.048   2.669  10.384  0.5761  0.5764  0.3409
  109OSM    H4F11245   4.085   2.771  10.408  1.6731  0.3308 -0.2614
  109OSM    H4G11246   3.946   2.658  10.341 -0.6348  3.0902  2.4148
  109OSM    C5F11247   4.149   2.611  10.288 -0.3658 -0.3738 -0.1688
  109OSM    H5F11248   4.128   2.650  10.186  2.1266 -2.3282 -1.4731
  109OSM    H5G11249   4.134   2.504  10.265 -0.9765 -0.3084 -0.0736
  109OSM    C6F11250   4.297   2.646  10.315 -0.1069 -0.2017  0.6237
  109OSM    H6F11251   4.358   2.595  10.237  0.7814 -0.0472  1.2145
  109OSM    H6G11252   4.330   2.615  10.416 -1.8128  0.3075  1.3601
  109OSM    C7F11253   4.334   2.798  10.306  0.3908  0.0938 -0.1228
  109OSM    H7F11254   4.268   2.849  10.379  1.0627  0.9296 -0.1032
  109OSM    H7G11255   4.303   2.832  10.204  0.8939  1.0955  0.0552
  109OSM    C8F11256   4.483   2.821  10.345 -0.1301 -0.0509  0.1767
  109OSM    H8F11257   4.506   2.760  10.435  2.0315 -0.4108 -0.5813
  109OSM    H8G11258   4.511   2.928  10.357  1.2542 -0.5074  1.1035
  109OSM    C9F11259   4.575   2.757  10.244  0.6955 -0.2360  0.3925
  109OSM    H9F11260   4.626   2.663  10.271  0.5579 -0.7157 -0.9784
  109OSM   C10F11261   4.604   2.813  10.120  0.3587 -0.4952 -0.0888
  109OSM   H10F11262   4.672   2.752  10.058  0.2354 -2.7453  1.9114
  109OSM   C11F11263   4.555   2.950  10.068  0.4271  0.2409 -0.8427
  109OSM   H11F11264   4.643   3.018  10.067  0.6439 -0.0302 -0.4901
  109OSM   H11G11265   4.481   2.999  10.134  1.7686 -0.4402  1.2386
  109OSM   C12F11266   4.501   2.960   9.926 -0.1420  0.5412  0.0905
  109OSM   H12F11267   4.462   3.064   9.920 -0.7311  0.2559 -1.2568
  109OSM   H12G11268   4.420   2.884   9.919  0.3754  0.2082 -2.6022
  109OSM   C13F11269   4.607   2.938   9.815  0.0988  0.2209 -0.0509
  109OSM   H13F11270   4.653   2.838   9.832  0.6446  0.4201 -0.3259
  109OSM   H13G11271   4.676   3.025   9.802 -0.6375  0.5461 -1.9943
  109OSM   C14F11272   4.546   2.928   9.678  0.3436 -0.4654  0.9038
  109OSM   H14F11273   4.483   3.018   9.660  0.5127 -1.1606 -3.8470
  109OSM   H14G11274   4.476   2.842   9.669  0.0230  0.1287 -3.2124
  109OSM   C15F11275   4.659   2.915   9.577 -0.5596  0.4625  0.7098
  109OSM   H15F11276   4.723   2.828   9.606 -1.5494 -0.0854  1.2774
  109OSM   H15G11277   4.725   3.004   9.584  0.2351 -0.0019 -0.7016
  109OSM   C16F11278   4.616   2.897   9.433 -0.3755 -0.0587 -0.4353
  109OSM   H16F11279   4.515   2.937   9.406 -0.9281 -2.5959 -2.2774
  109OSM   H16G11280   4.608   2.788   9.419  1.6631 -0.1975 -0.6253
  109OSM   C17F11281   4.715   2.960   9.335  0.4657 -0.0049  0.7475
  109OSM   H17F11282   4.819   2.933   9.365  1.3727  4.5338  2.1426
  109OSM   H17G11283   4.709   3.070   9.351  0.4794  0.9354 -4.5902
  109OSM   C18F11284   4.675   2.937   9.186  0.4463 -1.1781 -0.1959
  109OSM   H18F11285   4.564   2.946   9.178  0.5002 -0.4668 -0.2187
  109OSM   H18G11286   4.713   2.836   9.160 -0.8204 -1.8680  0.5384
  109OSM   H18H11287   4.728   3.012   9.123  0.3618 -0.7479  0.2426
  110OSM      N11288   4.720   0.861  10.848 -0.0135 -0.4365  0.0474
  110OSM    C1511289   4.611   0.764  10.810  0.6161  0.7097 -0.0172
  110OSM   H15A11290   4.647   0.662  10.815  1.5956  1.1229  1.7625
  110OSM   H15B11291   4.564   0.786  10.715 -2.7115 -2.2325  0.8758
  110OSM   H15C11292   4.529   0.773  10.880  0.4510 -1.0645  0.0423
  110OSM    C1411293   4.675   0.997  10.863 -0.4877 -0.1334  0.6016
  110OSM   H14A11294   4.762   1.054  10.890 -0.5824  0.5499 -0.5045
  110OSM   H14B11295   4.598   1.010  10.938 -2.1732 -1.6777 -0.7867
  110OSM   H14C11296   4.636   1.033  10.769  1.3748 -2.3851 -1.0838
  110OSM    C1311297   4.757   0.816  10.988 -0.4252  0.6861  0.1027
  110OSM   H13A11298   4.760   0.708  10.990 -1.8058  0.6444  1.1030
  110OSM   H13B11299   4.686   0.844  11.064  0.2250 -1.7890  1.6632
  110OSM   H13C11300   4.851   0.846  11.030 -1.1657  0.5849  1.8745
  110OSM    C1211301   4.835   0.830  10.757 -0.5503  0.2900 -0.1288
  110OSM   H12A11302   4.802   0.847  10.656 -0.0931 -0.9869 -0.4936
  110OSM   H12B11303   4.860   0.725  10.763 -1.2044  0.0351 -1.6077
  110OSM    C1111304   4.966   0.915  10.778 -0.0957 -0.5922 -0.1978
  110OSM   H11A11305   4.939   1.021  10.798  0.5122 -0.4302 -0.2263
  110OSM   H11B11306   5.022   0.908  10.682 -0.4779  0.1284 -0.4772
  110OSM      P11307   5.122   0.739  10.900 -0.2052  0.2572  0.3316
  110OSM    O1311308   5.207   0.747  11.019 -0.3692 -0.0056 -0.2067
  110OSM    O1411309   5.040   0.617  10.897  0.3358 -0.4513 -0.2504
  110OSM    O1111310   5.214   0.752  10.767 -0.0137  0.3280  0.4015
  110OSM    O1211311   5.033   0.873  10.900  0.2712  0.3063  0.0150
  110OSM    C1S11312   5.210   0.655  10.660 -0.0791 -0.4345  0.0765
  110OSM    H1S11313   5.106   0.617  10.648  0.5877 -1.8509 -1.4371
  110OSM    H1T11314   5.272   0.568  10.689  0.4380 -0.8716 -2.2259
  110OSM     NF11315   5.247   0.588  10.429 -0.4446  0.2640  0.2684
  110OSM    HNF11316   5.334   0.541  10.442 -1.2257 -1.2716  0.0870
  110OSM    C2S11317   5.253   0.704  10.516  0.3866 -0.3030  0.3312
  110OSM    H2S11318   5.180   0.775  10.471 -0.7676 -0.4624  1.8760
  110OSM    C3S11319   5.393   0.773  10.523  0.3570 -0.0173 -0.3966
  110OSM    H3S11320   5.460   0.689  10.554 -2.2277 -2.2651 -0.8034
  110OSM     O311321   5.396   0.880  10.616 -0.9924 -1.0848  0.1172
  110OSM    HO311322   5.321   0.856  10.671 -0.1921  0.3494  1.8675
  110OSM    C4S11323   5.438   0.822  10.384  0.3143  0.9691  0.0263
  110OSM    H4S11324   5.368   0.891  10.335 -1.4102 -0.8418 -0.1128
  110OSM    C5S11325   5.551   0.784  10.325 -0.2925 -0.5941 -0.3954
  110OSM    H5S11326   5.622   0.723  10.382 -0.1310 -0.6164 -0.6241
  110OSM    C6S11327   5.601   0.824  10.187  0.3474 -0.2270 -0.8769
  110OSM    H6S11328   5.531   0.889  10.130  2.0206  1.4583 -1.0713
  110OSM    H6T11329   5.598   0.729  10.130  0.6820 -0.6123 -0.2533
  110OSM    C7S11330   5.732   0.905  10.183 -0.4010  0.8683 -0.3119
  110OSM    H7S11331   5.817   0.864  10.241 -0.3125 -0.2826 -1.2398
  110OSM    H7T11332   5.713   1.001  10.237 -0.7426  1.2385 -1.0749
  110OSM    C8S11333   5.775   0.953  10.041 -0.3616  0.7585 -0.5125
  110OSM    H8S11334   5.814   0.857  10.002 -0.6575  0.4920 -0.1529
  110OSM    H8T11335   5.857   1.028  10.054  1.5461 -1.3475  0.0175
  110OSM    C9S11336   5.665   1.007   9.947  0.1419 -0.6103  0.1286
  110OSM    H9S11337   5.590   0.925   9.946 -2.3195  1.5902 -3.2430
  110OSM    H9T11338   5.709   1.015   9.846 -0.7090  0.1291 -0.1843
  110OSM   C10S11339   5.595   1.135   9.998 -0.1484  0.0670 -0.4957
  110OSM   H10S11340   5.658   1.227   9.998  2.8894 -1.9320 -1.0804
  110OSM   H10T11341   5.542   1.106  10.092  0.3205 -1.2302 -0.6239
  110OSM   C11S11342   5.479   1.179   9.907  0.3303  0.8159  0.0098
  110OSM   H11S11343   5.422   1.260   9.958 -1.5567 -1.3219  1.3753
  110OSM   H11T11344   5.412   1.092   9.893  0.9026  0.5844 -1.3501
  110OSM   C12S11345   5.526   1.227   9.772 -0.8597 -0.3076  0.1421
  110OSM   H12S11346   5.571   1.147   9.709  1.8134  0.6408  0.7636
  110OSM   H12T11347   5.601   1.309   9.783  0.2364 -1.3520  0.5397
  110OSM   C13S11348   5.401   1.297   9.699  0.3452 -0.1186 -0.2896
  110OSM   H13S11349   5.370   1.395   9.743  1.4489  0.2373 -0.2891
  110OSM   H13T11350   5.317   1.225   9.706 -1.1343  1.6200  0.3714
  110OSM   C14S11351   5.437   1.324   9.552  0.0013  0.0579  0.3403
  110OSM   H14S11352   5.437   1.222   9.508  2.1527  0.2686 -0.2096
  110OSM   H14T11353   5.540   1.365   9.540  0.0588 -0.5818 -1.4499
  110OSM   C15S11354   5.331   1.401   9.473 -0.2960  0.6591 -0.5971
  110OSM   H15S11355   5.316   1.496   9.529  0.5574 -1.0164  2.6265
  110OSM   H15T11356   5.234   1.347   9.475 -0.0282  0.1535 -1.0512
  110OSM   C16S11357   5.367   1.426   9.329  0.0975 -0.0875  0.1611
  110OSM   H16S11358   5.469   1.470   9.320 -0.1354  0.7090  1.2214
  110OSM   H16T11359   5.295   1.501   9.290 -0.8823  0.5437  3.0007
  110OSM   C17S11360   5.342   1.299   9.254  0.7494 -0.5535 -0.1081
  110OSM   H17S11361   5.232   1.288   9.256  0.4551  2.0499 -0.6299
  110OSM   H17T11362   5.387   1.208   9.299 -0.6735 -0.7252  0.9694
  110OSM   C18S11363   5.401   1.297   9.109 -1.3313  0.9483  0.0209
  110OSM   H18S11364   5.368   1.387   9.053 -3.0111 -1.5892 -3.2447
  110OSM   H18T11365   5.382   1.208   9.045  4.0311 -0.8034  0.6575
  110OSM   H18U11366   5.511   1.304   9.118 -1.5372  2.0917  1.9453
  110OSM    C1F11367   5.144   0.543  10.365  0.2006  0.6282  0.0020
  110OSM     OF11368   5.038   0.607  10.367 -0.3091  0.2230 -0.2621
  110OSM    C2F11369   5.168   0.426  10.281 -0.3361 -0.4330  0.6954
  110OSM    H2F11370   5.099   0.345  10.314 -0.8025 -0.1453  0.4199
  110OSM    H2G11371   5.271   0.387  10.295 -0.7001 -2.5075 -2.1524
  110OSM    C3F11372   5.156   0.457  10.138 -0.2427 -0.8668  0.0312
  110OSM    H3F11373   5.059   0.508  10.115  0.4716  0.4826 -0.0299
  110OSM    H3G11374   5.168   0.358  10.090  1.4827 -0.0679 -1.2248
  110OSM    C4F11375   5.262   0.552  10.083 -0.8793  0.7191  1.3054
  110OSM    H4F11376   5.363   0.529  10.124  0.1665  1.8383 -0.5443
  110OSM    H4G11377   5.240   0.655  10.118 -2.3159  0.9003 -0.1033
  110OSM    C5F11378   5.285   0.555   9.927 -0.2182  0.1276 -0.5982
  110OSM    H5F11379   5.197   0.525   9.866  0.3922 -2.0890 -0.4352
  110OSM    H5G11380   5.371   0.488   9.905 -1.0070 -0.2489 -2.5495
  110OSM    C6F11381   5.325   0.696   9.893 -0.3490 -0.4717 -0.1325
  110OSM    H6F11382   5.413   0.727   9.954 -1.1134  2.5822 -0.4603
  110OSM    H6G11383   5.241   0.767   9.912 -1.0241 -0.6274 -2.4144
  110OSM    C7F11384   5.375   0.698   9.743 -0.5114 -0.1368 -0.5210
  110OSM    H7F11385   5.289   0.666   9.681 -0.6920  0.2519 -0.4699
  110OSM    H7G11386   5.460   0.631   9.717  0.3895  2.1633 -3.8778
  110OSM    C8F11387   5.417   0.843   9.706  0.3782  0.3563 -0.9967
  110OSM    H8F11388   5.493   0.871   9.783 -0.6543  0.1716  0.1070
  110OSM    H8G11389   5.329   0.909   9.723  1.1399  0.6225  2.3739
  110OSM    C9F11390   5.471   0.848   9.558  0.5104 -0.0126  0.2341
  110OSM    H9F11391   5.575   0.817   9.539  0.2879 -1.7129  1.6524
  110OSM   C10F11392   5.389   0.872   9.453 -0.4248  0.3120  0.0063
  110OSM   H10F11393   5.430   0.895   9.353  0.9376 -0.6840  0.3260
  110OSM   C11F11394   5.238   0.901   9.462  0.1922  0.0094 -0.1278
  110OSM   H11F11395   5.215   1.008   9.482 -1.6963 -0.2334 -0.9133
  110OSM   H11G11396   5.199   0.837   9.544 -3.3117  0.1750 -1.5469
  110OSM   C12F11397   5.155   0.874   9.343 -0.2477  0.5130  0.2413
  110OSM   H12F11398   5.047   0.885   9.366 -0.2443  0.7089  0.1595
  110OSM   H12G11399   5.167   0.764   9.326 -0.3316  0.4332  0.6931
  110OSM   C13F11400   5.175   0.959   9.212  0.1674 -0.0659  1.2631
  110OSM   H13F11401   5.284   0.955   9.194  0.2415  2.6733  0.9983
  110OSM   H13G11402   5.146   1.064   9.233  0.2248  0.1548  0.2633
  110OSM   C14F11403   5.090   0.920   9.092 -0.1932 -0.2514 -0.0284
  110OSM   H14F11404   5.109   0.814   9.067  0.8378 -0.1171  0.1734
  110OSM   H14G11405   5.118   0.981   9.004 -0.3949  1.2659  0.9358
  110OSM   C15F11406   4.940   0.934   9.101  1.0769  0.4671 -0.6811
  110OSM   H15F11407   4.904   0.875   9.188 -0.4694 -0.8123 -2.1497
  110OSM   H15G11408   4.889   0.891   9.013  0.0421 -2.8641  1.4530
  110OSM   C16F11409   4.891   1.078   9.126  0.5405  0.2024  0.0726
  110OSM   H16F11410   4.919   1.128   9.031  0.4751  0.9061  0.4193
  110OSM   H16G11411   4.936   1.129   9.215 -0.2234  1.5723 -0.3128
  110OSM   C17F11412   4.738   1.082   9.140  0.1478 -0.2333 -0.1909
  110OSM   H17F11413   4.708   1.050   9.242  0.6098 -3.5903 -1.0756
  110OSM   H17G11414   4.708   0.998   9.074  1.3399 -2.5572  2.1734
  110OSM   C18F11415   4.674   1.210   9.102  0.3606 -0.3894 -0.5865
  110OSM   H18F11416   4.697   1.227   8.995  1.2895 -1.9628 -0.6557
  110OSM   H18G11417   4.722   1.291   9.161  1.1288 -0.6124 -0.8912
  110OSM   H18H11418   4.565   1.212   9.123  0.9055  1.0903  2.4538
  111OSM      N11419   5.788   5.261  10.924 -0.0206  0.0149  0.3250
  111OSM    C1511420   5.819   5.118  10.952  0.0570  0.3968 -0.3634
  111OSM   H15A11421   5.917   5.089  10.919 -0.7763 -1.8770 -1.0076
  111OSM   H15B11422   5.754   5.056  10.890  1.0136  2.4315 -3.5383
  111OSM   H15C11423   5.803   5.100  11.057  0.1994  0.2669 -0.3636
  111OSM    C1411424   5.674   5.300  11.011  0.2910 -0.3910 -0.2397
  111OSM   H14A11425   5.689   5.256  11.108 -0.5457 -1.7872 -0.7362
  111OSM   H14B11426   5.577   5.272  10.973  0.7158 -0.4667 -1.2945
  111OSM   H14C11427   5.666   5.407  11.024 -0.0720 -0.7494  2.8040
  111OSM    C1311428   5.909   5.348  10.961 -0.1747  0.2375 -0.1146
  111OSM   H13A11429   5.880   5.452  10.961 -0.2078  0.2388  1.0953
  111OSM   H13B11430   5.980   5.338  10.880  0.4125  2.3364  0.1089
  111OSM   H13C11431   5.957   5.316  11.053 -0.3633 -0.3896 -0.2326
  111OSM    C1211432   5.747   5.289  10.774 -0.3670  0.4079  0.4947
  111OSM   H12A11433   5.748   5.397  10.764 -1.1228  0.3681 -0.0036
  111OSM   H12B11434   5.655   5.237  10.757  1.8701 -3.5248 -0.1594
  111OSM    C1111435   5.838   5.234  10.662  0.1295  0.1515 -0.0312
  111OSM   H11A11436   5.790   5.264  10.567 -0.0045 -0.4543 -0.1573
  111OSM   H11B11437   5.839   5.124  10.673 -0.6855  0.1692  0.2808
  111OSM      P11438   6.030   5.412  10.602 -0.4103 -0.3903  0.2298
  111OSM    O1311439   6.080   5.523  10.691 -0.1703  0.6001  0.2494
  111OSM    O1411440   6.126   5.364  10.497 -0.0803 -0.2474 -0.7598
  111OSM    O1111441   5.897   5.467  10.534  0.0018 -0.5027  0.6730
  111OSM    O1211442   5.972   5.289  10.685 -0.1529 -0.1762  0.6757
  111OSM    C1S11443   5.898   5.599  10.480  0.3736 -1.1052 -0.1632
  111OSM    H1S11444   5.935   5.684  10.541 -1.5448  0.6066 -1.3290
  111OSM    H1T11445   5.790   5.625  10.471  0.3323 -0.7903  1.1260
  111OSM     NF11446   5.949   5.762  10.309  0.5118 -0.2916  0.4383
  111OSM    HNF11447   5.883   5.785  10.238 -0.1860 -2.5905  0.3030
  111OSM    C2S11448   5.962   5.618  10.343  1.2030 -0.1139  0.3114
  111OSM    H2S11449   6.070   5.595  10.352  0.9088 -1.5493  0.2969
  111OSM    C3S11450   5.893   5.523  10.240  0.1913 -0.1699 -0.7896
  111OSM    H3S11451   5.783   5.531  10.248  0.2544  0.6952 -0.7964
  111OSM     O311452   5.943   5.384  10.254  0.0196 -0.0653 -0.1897
  111OSM    HO311453   6.011   5.382  10.322  0.5841 -3.5495 -0.7706
  111OSM    C4S11454   5.910   5.564  10.094 -0.7911 -0.1166 -0.2834
  111OSM    H4S11455   5.819   5.603  10.046  0.2464  2.6269 -0.0773
  111OSM    C5S11456   6.026   5.538  10.026 -0.0548 -0.1513 -0.2269
  111OSM    H5S11457   6.105   5.481  10.077  0.5283 -1.3900 -2.4082
  111OSM    C6S11458   6.048   5.575   9.880 -0.7563  0.2673  0.0493
  111OSM    H6S11459   6.093   5.490   9.824  0.4732 -0.1032  1.5561
  111OSM    H6T11460   6.131   5.650   9.885 -1.1245  0.8193 -1.6704
  111OSM    C7S11461   5.928   5.633   9.802 -0.1737  0.7738  1.0026
  111OSM    H7S11462   5.881   5.711   9.866 -2.1512 -0.2833  0.8558
  111OSM    H7T11463   5.862   5.547   9.780 -0.1174  0.6118  1.4545
  111OSM    C8S11464   5.949   5.694   9.662 -0.1999 -0.5413  0.5031
  111OSM    H8S11465   5.988   5.797   9.674  1.1785 -0.8648 -0.9777
  111OSM    H8T11466   5.846   5.695   9.620  0.1604  0.0879 -0.3771
  111OSM    C9S11467   6.047   5.625   9.574  0.6195 -0.0434  0.4066
  111OSM    H9S11468   6.030   5.515   9.570 -0.0374  0.0905 -0.5474
  111OSM    H9T11469   6.151   5.646   9.609  1.1611 -3.0862  0.7578
  111OSM   C10S11470   6.046   5.669   9.425  0.5927  0.2275  0.4294
  111OSM   H10S11471   6.021   5.777   9.414 -0.5600 -0.1312 -0.6618
  111OSM   H10T11472   5.959   5.613   9.386  0.1857  1.3180 -0.2476
  111OSM   C11S11473   6.171   5.618   9.356 -0.4940  1.0189 -0.5480
  111OSM   H11S11474   6.177   5.508   9.367  1.3814  1.1590 -0.0699
  111OSM   H11T11475   6.266   5.663   9.392  0.8216 -0.2315 -2.3946
  111OSM   C12S11476   6.171   5.648   9.206  0.4613 -1.1147 -0.4362
  111OSM   H12S11477   6.085   5.591   9.165 -0.9261 -0.0895  1.0344
  111OSM   H12T11478   6.261   5.600   9.161  0.3531 -1.7069 -0.0250
  111OSM   C13S11479   6.169   5.799   9.168  0.3657 -0.6075 -0.4387
  111OSM   H13S11480   6.269   5.846   9.174 -0.2306  0.4423  2.0433
  111OSM   H13T11481   6.106   5.855   9.241 -0.2476 -0.7339 -0.8673
  111OSM   C14S11482   6.100   5.835   9.033 -0.1167  0.2426  0.6829
  111OSM   H14S11483   6.013   5.768   9.015 -2.1963  3.3076 -0.9961
  111OSM   H14T11484   6.169   5.808   8.950 -0.1949 -0.6545  0.9057
  111OSM   C15S11485   6.071   5.981   8.997  0.8834  0.0811 -0.4102
  111OSM   H15S11486   6.142   6.052   9.045 -1.2056  3.8060 -2.6037
  111OSM   H15T11487   5.978   6.004   9.053 -0.6047 -0.2468 -2.6816
  111OSM   C16S11488   6.050   6.007   8.847 -0.3018 -0.4387 -0.5716
  111OSM   H16S11489   5.953   5.976   8.803  1.1927 -0.7520 -3.8214
  111OSM   H16T11490   6.127   5.957   8.784 -1.1011 -0.8160 -1.2690
  111OSM   C17S11491   6.067   6.159   8.819  1.0502 -0.2210 -0.2472
  111OSM   H17S11492   6.174   6.189   8.824  0.0408  3.5485 -0.2944
  111OSM   H17T11493   6.019   6.208   8.906  0.1565 -0.3366 -0.6701
  111OSM   C18S11494   6.018   6.187   8.677 -0.7567 -0.5012 -0.5019
  111OSM   H18S11495   6.085   6.129   8.610 -0.5192 -2.3318  1.2813
  111OSM   H18T11496   6.034   6.294   8.651 -0.1572 -0.2639  0.8071
  111OSM   H18U11497   5.910   6.166   8.663 -1.2783  0.9900  1.0032
  111OSM    C1F11498   6.039   5.854  10.353 -0.1293 -0.8029 -0.2693
  111OSM     OF11499   6.131   5.822  10.419 -0.3939  0.4518 -0.4664
  111OSM    C2F11500   6.008   5.998  10.318 -0.0833 -0.0446  0.1868
  111OSM    H2F11501   6.007   6.057  10.412  0.0153 -2.0423  1.4971
  111OSM    H2G11502   5.911   6.014  10.267 -0.7961 -2.0280  0.8510
  111OSM    C3F11503   6.119   6.058  10.226  0.5851  0.1554 -0.0313
  111OSM    H3F11504   6.219   6.052  10.274  0.4494  3.2948  0.7303
  111OSM    H3G11505   6.092   6.166  10.218  1.3465  0.2989 -0.8010
  111OSM    C4F11506   6.120   5.992  10.085 -0.4455 -0.3454  0.7002
  111OSM    H4F11507   6.022   6.004  10.034  1.1241  2.3175 -1.8808
  111OSM    H4G11508   6.167   5.892  10.087  0.8426  0.2153 -0.7105
  111OSM    C5F11509   6.228   6.063  10.001  0.0450 -0.2828  0.2578
  111OSM    H5F11510   6.332   6.041  10.034 -0.5126 -2.2518  0.7659
  111OSM    H5G11511   6.210   6.171  10.015 -3.0566 -0.6293 -0.6559
  111OSM    C6F11512   6.219   6.023   9.849 -0.0985  0.2027  0.8005
  111OSM    H6F11513   6.117   6.019   9.806  0.9097 -0.4201 -1.5783
  111OSM    H6G11514   6.267   5.925   9.827 -0.7709  0.0646 -0.0783
  111OSM    C7F11515   6.296   6.116   9.748  0.3193  0.5467 -0.1736
  111OSM    H7F11516   6.402   6.117   9.780  0.4111 -2.5961 -0.2228
  111OSM    H7G11517   6.261   6.221   9.760 -2.1622 -0.2294 -0.4176
  111OSM    C8F11518   6.266   6.078   9.607 -0.4055  0.0696 -0.1379
  111OSM    H8F11519   6.309   6.168   9.559  0.9998 -0.8198 -0.5721
  111OSM    H8G11520   6.159   6.093   9.579 -0.4147  1.7134  0.7073
  111OSM    C9F11521   6.313   5.941   9.556  0.3924  0.3321  0.7719
  111OSM    H9F11522   6.287   5.856   9.620 -0.7544  0.6359  0.7252
  111OSM   C10F11523   6.372   5.921   9.441 -0.3018  0.3462 -0.0198
  111OSM   H10F11524   6.401   5.818   9.414 -0.3976  1.0449 -2.9904
  111OSM   C11F11525   6.415   6.030   9.350 -0.1344  0.0661  0.2868
  111OSM   H11F11526   6.336   6.109   9.345  1.2511  2.0830  5.9582
  111OSM   H11G11527   6.451   5.993   9.252  1.5642  1.8344  0.1946
  111OSM   C12F11528   6.532   6.111   9.415  0.2025  0.0103  0.2009
  111OSM   H12F11529   6.621   6.048   9.394  1.2198  1.5352 -0.1366
  111OSM   H12G11530   6.521   6.147   9.519  0.7000 -1.4594  0.7856
  111OSM   C13F11531   6.541   6.248   9.335  0.1728 -0.5282  0.4383
  111OSM   H13F11532   6.624   6.312   9.372 -1.1847  0.8597  1.1388
  111OSM   H13G11533   6.445   6.300   9.360  0.6318  0.4099  0.2602
  111OSM   C14F11534   6.559   6.214   9.180  0.2836 -0.2102 -0.4169
  111OSM   H14F11535   6.466   6.165   9.144  0.5386  0.2433 -1.7344
  111OSM   H14G11536   6.657   6.161   9.173  0.8206  0.6328  0.5626
  111OSM   C15F11537   6.560   6.337   9.096 -0.6146 -0.8169  0.3055
  111OSM   H15F11538   6.644   6.406   9.115  0.6405 -2.7160  1.9066
  111OSM   H15G11539   6.464   6.388   9.118  0.6784  0.9671  2.0045
  111OSM   C16F11540   6.561   6.302   8.951  0.3609  0.2869 -0.0102
  111OSM   H16F11541   6.486   6.222   8.934 -1.3361  1.5297  1.4889
  111OSM   H16G11542   6.657   6.265   8.910  0.0636  0.7857 -1.1743
  111OSM   C17F11543   6.527   6.435   8.878 -0.5228 -0.4437  0.1428
  111OSM   H17F11544   6.616   6.501   8.894 -1.7093  0.6285  2.4745
  111OSM   H17G11545   6.429   6.472   8.915 -0.6014 -0.9267  0.4093
  111OSM   C18F11546   6.516   6.405   8.733  0.0961 -0.5899 -0.1676
  111OSM   H18F11547   6.434   6.335   8.707  0.5784 -2.4338  3.0459
  111OSM   H18G11548   6.609   6.355   8.699  0.0081 -0.9395  0.1105
  111OSM   H18H11549   6.495   6.501   8.680 -2.3950 -2.2402 -2.3144
  112OSM      N11550   4.825   3.813  11.364 -0.2729  0.5645  0.9581
  112OSM    C1511551   4.745   3.680  11.391  0.1770 -0.1019 -0.1451
  112OSM   H15A11552   4.742   3.660  11.497 -1.5374 -2.1836 -0.5614
  112OSM   H15B11553   4.787   3.590  11.348  0.0848 -0.0813 -0.2769
  112OSM   H15C11554   4.644   3.693  11.354  0.4720  1.7327 -0.3795
  112OSM    C1411555   4.764   3.919  11.444 -0.4065 -0.6386  0.1587
  112OSM   H14A11556   4.664   3.940  11.409 -0.3810  1.0962  1.0713
  112OSM   H14B11557   4.825   4.007  11.453  0.4576 -1.2360  0.1747
  112OSM   H14C11558   4.736   3.895  11.546 -2.0430 -0.7496 -0.2986
  112OSM    C1311559   4.963   3.785  11.421 -0.2878  0.0055 -0.1342
  112OSM   H13A11560   5.026   3.873  11.431  0.2005 -0.4941  1.4001
  112OSM   H13B11561   5.023   3.718  11.362  0.1697  1.7285 -1.6770
  112OSM   H13C11562   4.956   3.746  11.521 -0.3584  0.3847  0.0117
  112OSM    C1211563   4.835   3.855  11.220  0.0796  0.1367 -0.8434
  112OSM   H12A11564   4.887   3.950  11.216  0.1270  0.2280  1.3987
  112OSM   H12B11565   4.735   3.874  11.184 -0.3891 -1.3955 -0.3858
  112OSM    C1111566   4.914   3.760  11.129 -0.8000  0.4031  0.1914
  112OSM   H11A11567   4.903   3.653  11.157  1.3308 -0.0491 -0.6225
  112OSM   H11B11568   5.021   3.783  11.144 -0.4113 -0.9947 -0.3238
  112OSM      P11569   4.889   3.874  10.900  0.0504 -0.0353  0.0095
  112OSM    O1311570   4.764   3.954  10.890 -0.4731 -0.4606  0.5001
  112OSM    O1411571   5.016   3.940  10.937 -0.1038 -1.1007 -0.5152
  112OSM    O1111572   4.919   3.805  10.764  0.0890 -0.1945  0.3430
  112OSM    O1211573   4.861   3.755  10.994 -0.5786 -0.7148 -0.5735
  112OSM    C1S11574   4.824   3.798  10.661 -0.4027 -0.0636  0.0246
  112OSM    H1S11575   4.837   3.898  10.614 -0.3482 -0.3711 -0.6200
  112OSM    H1T11576   4.720   3.783  10.698 -0.2684 -0.9617  0.0363
  112OSM     NF11577   4.799   3.723  10.430 -0.6466  0.0739 -0.0203
  112OSM    HNF11578   4.705   3.694  10.418 -0.8311 -0.7644  3.1670
  112OSM    C2S11579   4.871   3.696  10.560 -0.0220 -0.4304 -0.4490
  112OSM    H2S11580   4.980   3.711  10.546 -0.3892  2.4442 -0.4414
  112OSM    C3S11581   4.856   3.548  10.622  0.1976  0.2601 -0.2284
  112OSM    H3S11582   4.757   3.536  10.671  0.5448  1.9176  0.9084
  112OSM     O311583   4.942   3.519  10.734  0.0293  0.0973  0.0851
  112OSM    HO311584   4.981   3.605  10.752  0.7956 -0.3099  0.4151
  112OSM    C4S11585   4.879   3.451  10.512  0.0760 -0.5792 -0.3607
  112OSM    H4S11586   4.787   3.411  10.467 -0.0449 -2.7601  1.6742
  112OSM    C5S11587   5.005   3.417  10.468  0.2234  0.2137 -0.0715
  112OSM    H5S11588   5.098   3.461  10.508  0.4308 -1.4808  1.3619
  112OSM    C6S11589   5.022   3.313  10.361 -0.3975 -0.1994 -0.3605
  112OSM    H6S11590   5.097   3.241  10.399 -2.5110 -1.3381  1.7593
  112OSM    H6T11591   5.062   3.364  10.270 -2.2089  0.7306 -0.6574
  112OSM    C7S11592   4.902   3.223  10.326 -0.0565  0.4312  0.4325
  112OSM    H7S11593   4.823   3.283  10.275  0.1565  0.4441  0.1203
  112OSM    H7T11594   4.874   3.183  10.426 -4.3280  0.6286 -0.5753
  112OSM    C8S11595   4.945   3.110  10.233 -0.9149  0.2143 -0.3679
  112OSM    H8S11596   4.861   3.040  10.219 -2.5079  1.7642  1.2269
  112OSM    H8T11597   5.028   3.051  10.276 -0.6108  0.0801 -1.1295
  112OSM    C9S11598   4.994   3.154  10.086  0.1818 -0.2966 -0.7718
  112OSM    H9S11599   5.000   3.063  10.022 -2.7824 -1.8411  1.0476
  112OSM    H9T11600   5.097   3.195  10.100 -0.3312  0.5917  0.5479
  112OSM   C10S11601   4.909   3.265  10.015 -0.1935  0.1080 -0.3386
  112OSM   H10S11602   4.910   3.360  10.071 -0.2678 -1.2060  1.9439
  112OSM   H10T11603   4.804   3.230   9.999  1.0240 -3.4980 -1.1156
  112OSM   C11S11604   4.969   3.281   9.876 -0.4548 -0.5213  0.2483
  112OSM   H11S11605   4.934   3.193   9.817 -2.4325  2.4806 -3.1972
  112OSM   H11T11606   5.080   3.274   9.878 -0.3800  0.8157  1.3611
  112OSM   C12S11607   4.920   3.402   9.796 -0.2364 -0.4467  0.1954
  112OSM   H12S11608   4.948   3.495   9.850  1.4806 -0.5600 -0.4691
  112OSM   H12T11609   4.809   3.404   9.800 -0.3183 -1.1471 -1.3426
  112OSM   C13S11610   4.965   3.404   9.645  0.7985  0.2333  0.3303
  112OSM   H13S11611   5.075   3.397   9.637  1.1184  1.2556  3.1762
  112OSM   H13T11612   4.921   3.497   9.602 -1.0128 -0.6219  0.2799
  112OSM   C14S11613   4.900   3.288   9.571  0.7237  0.3738 -0.2688
  112OSM   H14S11614   4.798   3.260   9.607  0.5704 -0.3018 -1.2079
  112OSM   H14T11615   4.965   3.200   9.591 -0.9345 -0.4414  1.7206
  112OSM   C15S11616   4.899   3.312   9.418  0.4081  0.0703  0.3347
  112OSM   H15S11617   4.874   3.220   9.361 -1.0299  0.4581  0.2912
  112OSM   H15T11618   4.996   3.349   9.380 -0.1851 -1.2435 -2.5775
  112OSM   C16S11619   4.798   3.423   9.379  0.3201  0.1560  0.0483
  112OSM   H16S11620   4.813   3.516   9.438  0.9591 -0.2097  0.4731
  112OSM   H16T11621   4.699   3.384   9.410  0.1992 -0.0946 -0.6424
  112OSM   C17S11622   4.773   3.456   9.230  0.1729 -0.1028  0.6806
  112OSM   H17S11623   4.865   3.499   9.186  1.3471 -2.4533  0.7444
  112OSM   H17T11624   4.697   3.536   9.231 -1.2698 -1.4505  0.4830
  112OSM   C18S11625   4.729   3.335   9.142 -0.4326 -0.1712  0.1499
  112OSM   H18S11626   4.673   3.375   9.054 -0.6296 -1.2363 -0.2120
  112OSM   H18T11627   4.673   3.257   9.197 -2.2743  0.6106 -0.5873
  112OSM   H18U11628   4.814   3.283   9.093  0.2426  0.5186  0.5696
  112OSM    C1F11629   4.859   3.794  10.335 -0.4787 -0.2797  0.3422
  112OSM     OF11630   4.955   3.861  10.361  0.0036 -0.2855 -0.1825
  112OSM    C2F11631   4.797   3.806  10.191  0.2012 -0.6417 -0.2284
  112OSM    H2F11632   4.766   3.913  10.189  1.1810 -0.3310  0.6424
  112OSM    H2G11633   4.702   3.749  10.191  0.0429 -0.4170 -1.8230
  112OSM    C3F11634   4.890   3.788  10.074  0.5453 -0.3012  0.6830
  112OSM    H3F11635   4.930   3.684  10.082 -0.8341 -0.6639  3.2816
  112OSM    H3G11636   4.970   3.865  10.083 -0.6789  1.0030  0.4973
  112OSM    C4F11637   4.811   3.798   9.945  0.2471 -0.5446 -0.3551
  112OSM    H4F11638   4.759   3.896   9.939  0.4802 -0.2799  1.5846
  112OSM    H4G11639   4.732   3.720   9.946  0.6639 -0.9808 -1.3191
  112OSM    C5F11640   4.898   3.783   9.820 -0.0810 -0.1209  0.5564
  112OSM    H5F11641   4.948   3.685   9.802  1.9865  1.0261  0.0255
  112OSM    H5G11642   4.988   3.845   9.836  0.6880 -0.8485 -0.8767
  112OSM    C6F11643   4.829   3.835   9.691  0.0372 -0.0222  0.4821
  112OSM    H6F11644   4.900   3.843   9.606 -0.5402  1.8743  0.1510
  112OSM    H6G11645   4.799   3.938   9.719 -0.3111  0.3069 -1.0730
  112OSM    C7F11646   4.713   3.743   9.641  0.2677 -0.3941  0.0371
  112OSM    H7F11647   4.630   3.751   9.714  0.4486 -1.2680  0.3426
  112OSM    H7G11648   4.756   3.640   9.641  0.8403 -0.1595 -0.1002
  112OSM    C8F11649   4.659   3.790   9.501  0.2184  0.9843 -0.1095
  112OSM    H8F11650   4.574   3.725   9.472  0.1121  1.0927 -0.0374
  112OSM    H8G11651   4.739   3.782   9.425  1.4558  2.4411  0.9995
  112OSM    C9F11652   4.597   3.934   9.512 -0.3187 -0.1862  0.1107
  112OSM    H9F11653   4.548   3.939   9.611  2.8781 -0.3919  1.7666
  112OSM   C10F11654   4.605   4.037   9.423 -0.3293  0.6996 -0.8633
  112OSM   H10F11655   4.568   4.134   9.460  1.9606  1.4166 -0.3380
  112OSM   C11F11656   4.686   4.034   9.300  0.0567  0.2190  0.0903
  112OSM   H11F11657   4.764   3.955   9.298 -0.2677 -0.0803 -1.2627
  112OSM   H11G11658   4.744   4.129   9.295  0.6133  0.0350  2.2620
  112OSM   C12F11659   4.605   4.027   9.169 -0.0064  0.2163  0.0953
  112OSM   H12F11660   4.664   4.062   9.081  0.7768 -1.7708 -0.2077
  112OSM   H12G11661   4.508   4.080   9.172  0.1454  0.4104  3.3512
  112OSM   C13F11662   4.561   3.884   9.126 -0.1534  0.3175 -0.4543
  112OSM   H13F11663   4.501   3.840   9.209  0.6373  0.3126  0.1148
  112OSM   H13G11664   4.652   3.820   9.131  0.4604  1.2481  0.2687
  112OSM   C14F11665   4.474   3.875   8.995 -0.1157 -0.0278  0.6110
  112OSM   H14F11666   4.530   3.939   8.923  1.1798 -0.5463  1.1539
  112OSM   H14G11667   4.382   3.934   9.015 -0.3697 -0.1783 -0.0676
  112OSM   C15F11668   4.431   3.734   8.951 -0.1576  0.3210 -0.0880
  112OSM   H15F11669   4.517   3.664   8.962 -1.0495 -0.6120  1.1358
  112OSM   H15G11670   4.390   3.725   8.848 -2.6324  2.2460  0.6629
  112OSM   C16F11671   4.326   3.675   9.050 -0.3436 -0.1614 -0.2019
  112OSM   H16F11672   4.227   3.720   9.027 -0.2923 -0.0974 -0.3041
  112OSM   H16G11673   4.352   3.707   9.153 -0.3214  2.4421 -0.9740
  112OSM   C17F11674   4.320   3.523   9.045  0.1635 -0.1277 -0.1329
  112OSM   H17F11675   4.270   3.485   9.137  3.7340 -2.7114  0.8428
  112OSM   H17G11676   4.423   3.483   9.044 -0.3550 -1.4852 -2.8370
  112OSM   C18F11677   4.246   3.471   8.917 -0.0385 -0.4261 -0.0997
  112OSM   H18F11678   4.300   3.515   8.830  1.8025  0.5583  1.4927
  112OSM   H18G11679   4.145   3.516   8.910  0.5951  1.3344  1.4319
  112OSM   H18H11680   4.247   3.360   8.918 -1.8515 -0.4497  1.0762
  113OSM      N11681   5.373   2.616  11.313  0.3595 -0.8804 -0.1416
  113OSM    C1511682   5.517   2.650  11.329 -0.4123  0.0923 -0.6528
  113OSM   H15A11683   5.553   2.722  11.258  0.1650 -0.7546 -1.2191
  113OSM   H15B11684   5.569   2.559  11.303  4.1539  1.9785  1.1730
  113OSM   H15C11685   5.540   2.684  11.429 -3.4368 -1.1981  0.5498
  113OSM    C1411686   5.336   2.517  11.422  0.0019  0.7832  0.2165
  113OSM   H14A11687   5.396   2.432  11.392 -0.8957  0.7697 -1.5714
  113OSM   H14B11688   5.231   2.494  11.424  0.2457 -0.5063 -0.8112
  113OSM   H14C11689   5.366   2.547  11.521  0.4532 -0.2381  0.4003
  113OSM    C1311690   5.294   2.742  11.335 -0.3726  0.5493 -0.5174
  113OSM   H13A11691   5.331   2.813  11.263  0.2812  0.5635 -0.1761
  113OSM   H13B11692   5.327   2.790  11.425  1.5450  1.2448 -1.5513
  113OSM   H13C11693   5.188   2.723  11.326 -0.3411 -0.2700  0.6789
  113OSM    C1211694   5.339   2.554  11.174 -0.4073  0.3846 -0.2663
  113OSM   H12A11695   5.232   2.548  11.160 -0.5347 -3.2927  1.7006
  113OSM   H12B11696   5.378   2.454  11.161 -2.3962 -0.2603 -1.4556
  113OSM    C1111697   5.387   2.643  11.054  0.0147 -0.2197  0.1699
  113OSM   H11A11698   5.379   2.579  10.963  1.0838 -3.1754  2.0812
  113OSM   H11B11699   5.494   2.671  11.051  0.6493 -2.4354  0.8045
  113OSM      P11700   5.158   2.761  10.981  0.0327 -0.0679 -0.0389
  113OSM    O1311701   5.112   2.622  10.962  0.3764  0.2295 -0.5576
  113OSM    O1411702   5.085   2.847  11.076 -0.4093 -0.1864  0.0803
  113OSM    O1111703   5.175   2.843  10.843 -0.8664 -0.6426  0.2809
  113OSM    O1211704   5.308   2.761  11.046  0.0390 -0.1484  0.8637
  113OSM    C1S11705   5.298   2.861  10.770  0.2140  0.0505  0.5248
  113OSM    H1S11706   5.386   2.808  10.813  0.7640  0.1382 -0.4791
  113OSM    H1T11707   5.323   2.969  10.762  1.0319 -0.2930 -1.9544
  113OSM     NF11708   5.415   2.841  10.540  0.3332 -0.3058  0.3557
  113OSM    HNF11709   5.413   2.919  10.478  1.4595  0.4522  1.2651
  113OSM    C2S11710   5.294   2.813  10.617  0.2931  0.3457  0.0872
  113OSM    H2S11711   5.277   2.704  10.613 -0.4619  0.4544  0.3021
  113OSM    C3S11712   5.170   2.878  10.547 -0.1463 -0.0463 -0.0792
  113OSM    H3S11713   5.193   2.986  10.553 -0.5174  0.1390 -1.7339
  113OSM     O311714   5.038   2.858  10.607  0.0353  0.0179  0.7794
  113OSM    HO311715   5.049   2.840  10.701  0.3273 -0.2374  0.6980
  113OSM    C4S11716   5.175   2.836  10.401  0.2971  0.1312  0.1517
  113OSM    H4S11717   5.239   2.902  10.340 -0.4488  1.4093  0.7315
  113OSM    C5S11718   5.114   2.733  10.343  0.1582  0.2726  0.5392
  113OSM    H5S11719   5.041   2.675  10.401 -0.0616 -0.8407 -0.8124
  113OSM    C6S11720   5.106   2.687  10.203 -0.1948  0.7057 -0.0112
  113OSM    H6S11721   5.005   2.653  10.174 -0.6738  1.0444  1.2501
  113OSM    H6T11722   5.166   2.595  10.190 -0.5351  0.7735 -2.2387
  113OSM    C7S11723   5.172   2.785  10.100  0.4672  0.1300 -0.6687
  113OSM    H7S11724   5.277   2.811  10.126 -0.1073  1.2857  0.6183
  113OSM    H7T11725   5.117   2.881  10.112  0.5242  0.0476  0.3632
  113OSM    C8S11726   5.157   2.743   9.958  0.5519 -0.1580 -0.2730
  113OSM    H8S11727   5.049   2.726   9.942  1.1050 -3.1974 -1.1017
  113OSM    H8T11728   5.209   2.645   9.948  0.0620 -0.3714 -0.7979
  113OSM    C9S11729   5.195   2.852   9.859 -0.3803  0.2675 -0.0457
  113OSM    H9S11730   5.296   2.895   9.873 -0.2262 -0.2601  0.4919
  113OSM    H9T11731   5.117   2.928   9.881  0.4936  0.7926  1.2500
  113OSM   C10S11732   5.190   2.812   9.709  0.5339 -0.4042  0.1700
  113OSM   H10S11733   5.108   2.738   9.693 -1.2064  1.5632 -0.1645
  113OSM   H10T11734   5.290   2.767   9.691 -0.0282 -0.0665 -4.5260
  113OSM   C11S11735   5.172   2.937   9.620  0.7911  0.4800 -0.4642
  113OSM   H11S11736   5.243   3.018   9.648  0.0838  0.8603  0.2699
  113OSM   H11T11737   5.073   2.986   9.636  0.3073 -0.5678 -0.2550
  113OSM   C12S11738   5.186   2.901   9.468 -0.4108 -0.1533  0.0247
  113OSM   H12S11739   5.128   2.809   9.444 -1.8440  1.0612 -1.3178
  113OSM   H12T11740   5.295   2.893   9.446  0.1517 -0.2716  2.6721
  113OSM   C13S11741   5.123   3.012   9.379  0.1095  0.8327  0.2544
  113OSM   H13S11742   5.157   3.107   9.427 -2.9395  2.2640 -0.2886
  113OSM   H13T11743   5.012   3.002   9.374  0.0856 -0.1916  2.2344
  113OSM   C14S11744   5.172   3.008   9.233  0.5376  0.8025 -0.5106
  113OSM   H14S11745   5.150   2.908   9.191  0.3687  0.7182 -0.2233
  113OSM   H14T11746   5.283   3.003   9.232  0.6022  1.3460  1.4982
  113OSM   C15S11747   5.115   3.118   9.139 -0.2120 -0.4095 -0.1243
  113OSM   H15S11748   5.154   3.214   9.180 -0.1410 -0.7510  0.5942
  113OSM   H15T11749   5.006   3.138   9.132 -0.4220 -1.3466  0.4866
  113OSM   C16S11750   5.165   3.100   8.994 -0.3043 -0.2333  0.1186
  113OSM   H16S11751   5.106   3.013   8.958  0.1264 -1.7906  3.0450
  113OSM   H16T11752   5.273   3.077   8.987  0.3634  3.1496 -1.5142
  113OSM   C17S11753   5.149   3.224   8.904 -0.4370 -0.6069 -0.4844
  113OSM   H17S11754   5.224   3.304   8.922 -1.2060 -0.2198  1.0731
  113OSM   H17T11755   5.050   3.265   8.933 -0.1179  0.0541 -0.3091
  113OSM   C18S11756   5.158   3.197   8.750  0.8931 -0.1970 -0.5659
  113OSM   H18S11757   5.158   3.286   8.683 -1.8047 -0.7594 -1.3481
  113OSM   H18T11758   5.078   3.129   8.715 -0.9931  0.0772  3.0659
  113OSM   H18U11759   5.251   3.144   8.720  0.5610 -1.0652 -0.0843
  113OSM    C1F11760   5.525   2.767  10.567 -0.1921 -0.4632 -0.1845
  113OSM     OF11761   5.516   2.668  10.632 -0.6701 -0.1933 -0.9472
  113OSM    C2F11762   5.660   2.818  10.516  0.5248 -0.0081  0.0928
  113OSM    H2F11763   5.729   2.837  10.602 -0.8434 -1.6764  1.6107
  113OSM    H2G11764   5.639   2.913  10.464  0.3923  0.8578  1.6819
  113OSM    C3F11765   5.745   2.714  10.424  0.1516 -0.0630  0.0521
  113OSM    H3F11766   5.790   2.634  10.488  0.4127 -0.8879 -1.1422
  113OSM    H3G11767   5.829   2.772  10.381  0.1300  0.7594  1.1137
  113OSM    C4F11768   5.653   2.658  10.314  0.2128 -0.2974 -0.0613
  113OSM    H4F11769   5.633   2.743  10.245 -1.8114 -1.5971 -1.1310
  113OSM    H4G11770   5.554   2.619  10.345 -0.0692 -1.4407 -2.2858
  113OSM    C5F11771   5.713   2.531  10.243 -0.7161  0.3112 -0.7473
  113OSM    H5F11772   5.704   2.450  10.319  2.8343  0.4660 -0.0670
  113OSM    H5G11773   5.818   2.552  10.215 -0.8165  0.6215 -0.8993
  113OSM    C6F11774   5.629   2.479  10.126  0.0540  0.9293 -0.3159
  113OSM    H6F11775   5.544   2.424  10.173  2.0063 -1.9941 -0.0952
  113OSM    H6G11776   5.682   2.397  10.073  2.1802  0.3797  2.6056
  113OSM    C7F11777   5.571   2.587  10.039 -0.2311 -0.4182  0.7794
  113OSM    H7F11778   5.517   2.667  10.094 -0.8052  0.5850 -1.1917
  113OSM    H7G11779   5.496   2.537   9.975 -0.0338  1.2479 -0.7802
  113OSM    C8F11780   5.683   2.647   9.953  0.2778  0.2992 -0.3596
  113OSM    H8F11781   5.738   2.564   9.905  0.9696 -0.1017  1.0918
  113OSM    H8G11782   5.755   2.699  10.020  0.9910 -0.4508 -0.5361
  113OSM    C9F11783   5.623   2.741   9.857  0.1394 -0.5672  0.7764
  113OSM    H9F11784   5.549   2.804   9.909  1.0377 -0.1692  1.5911
  113OSM   C10F11785   5.639   2.747   9.720  0.2001 -1.1563 -0.2187
  113OSM   H10F11786   5.597   2.835   9.669 -1.8144 -1.9093  0.0754
  113OSM   C11F11787   5.730   2.668   9.638 -0.3523 -0.4397  0.2251
  113OSM   H11F11788   5.761   2.572   9.685 -0.4580 -0.9804 -0.8102
  113OSM   H11G11789   5.825   2.726   9.628 -0.3295 -0.4664  0.2871
  113OSM   C12F11790   5.669   2.619   9.501 -0.1086  0.5675 -0.2002
  113OSM   H12F11791   5.574   2.564   9.517 -0.8996  2.6240  2.5755
  113OSM   H12G11792   5.746   2.549   9.462 -0.6762  0.8628 -1.9304
  113OSM   C13F11793   5.663   2.727   9.396  0.3545 -0.3983  0.6421
  113OSM   H13F11794   5.766   2.770   9.397 -0.4088  1.4768  0.0554
  113OSM   H13G11795   5.594   2.802   9.439  0.7723 -0.6258  1.7201
  113OSM   C14F11796   5.623   2.674   9.262 -0.1343  0.5633 -0.3093
  113OSM   H14F11797   5.533   2.610   9.271  0.6670 -0.4652  0.7567
  113OSM   H14G11798   5.701   2.603   9.226 -1.1880  0.1663 -1.8424
  113OSM   C15F11799   5.610   2.785   9.150  0.4554  0.5145  0.5444
  113OSM   H15F11800   5.712   2.823   9.129  0.4498  0.9394  1.3154
  113OSM   H15G11801   5.544   2.864   9.191 -1.2770 -0.6945  0.1636
  113OSM   C16F11802   5.547   2.729   9.020  0.3260  0.4095  0.1562
  113OSM   H16F11803   5.457   2.674   9.053  1.9843 -1.4225  1.7281
  113OSM   H16G11804   5.621   2.658   8.977 -0.2234  0.0975 -0.2718
  113OSM   C17F11805   5.519   2.840   8.918 -0.3040  0.2155 -0.5722
  113OSM   H17F11806   5.612   2.885   8.878 -0.2893  0.8162  0.1335
  113OSM   H17G11807   5.455   2.919   8.964 -1.3210  1.0648 -3.3099
  113OSM   C18F11808   5.445   2.788   8.805 -0.1352 -0.5381  0.2675
  113OSM   H18F11809   5.502   2.708   8.753  0.4575 -1.3792  2.1563
  113OSM   H18G11810   5.431   2.865   8.726  0.9349 -0.4399  0.1538
  113OSM   H18H11811   5.351   2.742   8.842 -0.9062  1.0835  0.3275
  114OSM      N11812   0.218   1.477  11.623  0.5073  0.1020 -0.3856
  114OSM    C1511813   0.168   1.355  11.546  0.2896 -0.7549 -0.1884
  114OSM   H15A11814   0.233   1.331  11.463  0.6027  0.7155 -0.3745
  114OSM   H15B11815   0.069   1.382  11.512 -0.3623 -2.1265  0.5558
  114OSM   H15C11816   0.153   1.261  11.598 -0.5161 -0.4553  0.1199
  114OSM    C1411817   0.125   1.490  11.742 -0.0415 -0.0831 -0.4047
  114OSM   H14A11818   0.147   1.578  11.801  1.8655 -0.8670  0.0914
  114OSM   H14B11819   0.143   1.406  11.808  1.0262 -1.3589 -2.2745
  114OSM   H14C11820   0.018   1.484  11.726 -0.2385  1.7818  0.0670
  114OSM    C1311821   0.355   1.434  11.677  0.6796  0.3304  0.6185
  114OSM   H13A11822   0.399   1.513  11.736 -1.0303  0.1518  2.2131
  114OSM   H13B11823   0.418   1.403  11.596 -0.7831 -1.3246  0.0765
  114OSM   H13C11824   0.339   1.346  11.739 -0.2114 -0.0855 -0.1796
  114OSM    C1211825   0.203   1.600  11.542 -0.1830  0.3300  1.3725
  114OSM   H12A11826   0.255   1.590  11.448 -1.2794  1.6939  0.5975
  114OSM   H12B11827   0.251   1.686  11.587  1.5593 -0.3063  0.7514
  114OSM    C1111828   0.063   1.640  11.493  0.8623  0.5700 -0.1289
  114OSM   H11A11829   0.082   1.730  11.429  1.2827  0.3493 -0.3196
  114OSM   H11B11830  -0.008   1.666  11.574 -0.4565 -1.0537 -0.7363
  114OSM      P11831  -0.125   1.568  11.333 -0.1102  0.1626 -0.2301
  114OSM    O1311832  -0.231   1.491  11.400  0.2147 -0.0062  0.0381
  114OSM    O1411833  -0.138   1.720  11.323 -0.5639 -0.2018 -0.2878
  114OSM    O1111834  -0.103   1.514  11.179  0.3798 -0.2729 -0.3366
  114OSM    O1211835   0.009   1.538  11.409  0.1135 -0.1849  0.1741
  114OSM    C1S11836   0.009   1.569  11.114  0.0396 -0.1726 -0.0096
  114OSM    H1S11837   0.096   1.508  11.146  0.5993  0.6559  0.0673
  114OSM    H1T11838   0.036   1.674  11.137 -0.2065 -0.3938  1.3674
  114OSM     NF11839   0.117   1.564  10.894  0.3734  0.3289  0.1817
  114OSM    HNF11840   0.145   1.652  10.856  1.3720 -0.1164 -0.1386
  114OSM    C2S11841  -0.016   1.554  10.959  0.6356  0.1429  0.0524
  114OSM    H2S11842  -0.061   1.453  10.945 -1.3734  0.9586  0.3748
  114OSM    C3S11843  -0.124   1.652  10.918 -0.6112 -0.6259  0.8892
  114OSM    H3S11844  -0.080   1.754  10.922 -1.7048 -0.1348  0.5373
  114OSM     O311845  -0.239   1.648  11.002 -0.2181 -0.8138  0.1762
  114OSM    HO311846  -0.211   1.602  11.081 -0.1117 -0.5855  0.2731
  114OSM    C4S11847  -0.159   1.627  10.780  0.6584  0.5543 -0.9057
  114OSM    H4S11848  -0.092   1.679  10.710  1.1016 -0.0819 -0.9575
  114OSM    C5S11849  -0.259   1.559  10.727  0.2395  0.5801 -0.2961
  114OSM    H5S11850  -0.320   1.502  10.799  2.3266 -1.1510  0.1230
  114OSM    C6S11851  -0.303   1.529  10.587 -0.0349 -0.1258  0.1023
  114OSM    H6S11852  -0.414   1.537  10.578  0.1778  0.3550 -2.7786
  114OSM    H6T11853  -0.270   1.427  10.558  0.2522 -0.5898  1.9887
  114OSM    C7S11854  -0.247   1.626  10.478  0.0386  0.0916 -0.1670
  114OSM    H7S11855  -0.137   1.614  10.485  0.1943  1.5888  0.2637
  114OSM    H7T11856  -0.282   1.731  10.491  0.1567  0.5205 -3.1265
  114OSM    C8S11857  -0.292   1.585  10.332 -0.6976 -0.0611 -0.6899
  114OSM    H8S11858  -0.278   1.475  10.325 -0.6342 -0.1693  1.0696
  114OSM    H8T11859  -0.219   1.637  10.266 -1.6303  0.4474 -1.3364
  114OSM    C9S11860  -0.434   1.629  10.302  0.4123  0.5258  0.5517
  114OSM    H9S11861  -0.464   1.709  10.372 -1.8006 -0.2845  0.5893
  114OSM    H9T11862  -0.495   1.546  10.344  0.7077  0.6343  1.1961
  114OSM   C10S11863  -0.475   1.646  10.156 -0.5635 -0.1747 -0.7014
  114OSM   H10S11864  -0.586   1.650  10.155 -0.5040  3.2120 -1.9606
  114OSM   H10T11865  -0.437   1.559  10.099 -1.7396 -0.5914 -0.8490
  114OSM   C11S11866  -0.412   1.769  10.090 -0.6123 -0.2512  0.1493
  114OSM   H11S11867  -0.304   1.769  10.116 -0.8002  1.1305  0.9911
  114OSM   H11T11868  -0.452   1.864  10.132 -2.3005 -0.3741 -1.1332
  114OSM   C12S11869  -0.439   1.768   9.939 -0.4152  0.1222  0.0033
  114OSM   H12S11870  -0.379   1.686   9.893  0.9681 -0.2503  2.4166
  114OSM   H12T11871  -0.390   1.860   9.900 -0.2729  0.9295  2.0553
  114OSM   C13S11872  -0.584   1.752   9.899  1.4665  0.6045  0.3866
  114OSM   H13S11873  -0.642   1.819   9.965  0.3768  0.2112 -0.1626
  114OSM   H13T11874  -0.603   1.645   9.922 -2.9264  2.0784  4.3472
  114OSM   C14S11875  -0.622   1.781   9.753 -0.2636  0.0938 -0.5438
  114OSM   H14S11876  -0.617   1.891   9.738  0.7648  0.2228  0.6035
  114OSM   H14T11877  -0.725   1.746   9.733 -0.9515  1.6375  0.1641
  114OSM   C15S11878  -0.545   1.704   9.645 -0.9820 -0.3133  0.0723
  114OSM   H15S11879  -0.446   1.751   9.628 -0.7666 -0.4403  0.9562
  114OSM   H15T11880  -0.602   1.702   9.549 -0.0609 -3.4247 -0.4912
  114OSM   C16S11881  -0.518   1.555   9.670  0.3864 -0.3588 -0.1519
  114OSM   H16S11882  -0.610   1.494   9.684  2.9159 -3.2430  5.4705
  114OSM   H16T11883  -0.455   1.544   9.760  2.4798 -1.4226 -1.7185
  114OSM   C17S11884  -0.436   1.494   9.554  0.3609 -0.8115  0.5111
  114OSM   H17S11885  -0.351   1.565   9.546 -1.5341  1.3600 -1.4161
  114OSM   H17T11886  -0.499   1.496   9.462  0.8013 -1.1142  0.2036
  114OSM   C18S11887  -0.392   1.356   9.567 -0.6883  0.0371 -0.9302
  114OSM   H18S11888  -0.473   1.280   9.575 -0.9754  0.4264 -0.1182
  114OSM   H18T11889  -0.328   1.345   9.657 -1.7979 -0.1069 -0.1544
  114OSM   H18U11890  -0.324   1.324   9.484  1.5468 -2.6850  1.8151
  114OSM    C1F11891   0.209   1.467  10.902  0.1907 -0.2720 -0.2965
  114OSM     OF11892   0.168   1.360  10.945 -0.6903  0.5448  0.3942
  114OSM    C2F11893   0.349   1.490  10.866  0.1522  0.2615 -0.1810
  114OSM    H2F11894   0.407   1.454  10.953  1.0565 -1.7017 -1.5486
  114OSM    H2G11895   0.378   1.598  10.863  1.3291 -0.0352  0.0848
  114OSM    C3F11896   0.380   1.399  10.745 -0.6102 -0.2738  0.1958
  114OSM    H3F11897   0.338   1.297  10.731  0.9369 -0.9975  0.6650
  114OSM    H3G11898   0.487   1.377  10.768  0.6165  2.7379 -2.1136
  114OSM    C4F11899   0.379   1.467  10.605  0.5788  0.0415 -0.1816
  114OSM    H4F11900   0.439   1.560  10.601  1.6888 -0.6779 -0.3155
  114OSM    H4G11901   0.272   1.493  10.589  0.5602 -1.1922 -2.3109
  114OSM    C5F11902   0.429   1.375  10.492 -0.3441  0.5726 -0.5902
  114OSM    H5F11903   0.364   1.285  10.500  1.6037 -0.8080  0.1022
  114OSM    H5G11904   0.538   1.359  10.510 -0.6587 -1.9716 -0.6876
  114OSM    C6F11905   0.419   1.430  10.351 -0.2797 -0.1943 -0.3664
  114OSM    H6F11906   0.468   1.530  10.352  0.8976 -0.7774  0.4887
  114OSM    H6G11907   0.316   1.454  10.316  0.0105  0.2395 -0.9353
  114OSM    C7F11908   0.471   1.347  10.234  0.0173 -0.6084 -1.4518
  114OSM    H7F11909   0.441   1.242  10.251  0.7023 -0.8426 -1.6583
  114OSM    H7G11910   0.581   1.346  10.247 -0.0164 -0.2932 -1.1398
  114OSM    C8F11911   0.442   1.390  10.084  0.1269 -0.5590  0.0012
  114OSM    H8F11912   0.331   1.390  10.083  0.1197 -0.1988  0.5814
  114OSM    H8G11913   0.477   1.306  10.021 -0.4614 -1.6216  1.0519
  114OSM    C9F11914   0.486   1.529  10.048 -0.0525 -0.1832  0.5596
  114OSM    H9F11915   0.478   1.602  10.129 -2.2146 -0.2065  0.3824
  114OSM   C10F11916   0.526   1.566   9.927  0.0130 -0.3052 -0.4251
  114OSM   H10F11917   0.568   1.668   9.925 -0.4969 -0.1044 -0.8780
  114OSM   C11F11918   0.538   1.482   9.803  0.5717  0.1269  0.4835
  114OSM   H11F11919   0.462   1.403   9.789 -0.1540  1.0193 -0.6872
  114OSM   H11G11920   0.638   1.433   9.796  0.6083  0.4518 -1.6058
  114OSM   C12F11921   0.529   1.556   9.671 -0.3752 -0.1210  0.1799
  114OSM   H12F11922   0.591   1.648   9.664  0.1547 -0.3714  1.4257
  114OSM   H12G11923   0.428   1.602   9.665 -0.1538  0.2094 -1.0207
  114OSM   C13F11924   0.565   1.475   9.547 -0.0997  0.0683 -0.7522
  114OSM   H13F11925   0.506   1.382   9.557 -2.1544  1.4517  0.3289
  114OSM   H13G11926   0.668   1.438   9.564 -0.6119 -1.1426 -0.1974
  114OSM   C14F11927   0.534   1.538   9.404  0.3179  0.2616  0.5767
  114OSM   H14F11928   0.607   1.617   9.375  0.1643  0.1287 -0.1967
  114OSM   H14G11929   0.431   1.579   9.406  0.2650  0.0960  1.3837
  114OSM   C15F11930   0.507   1.431   9.290  0.1071  0.2980  0.1657
  114OSM   H15F11931   0.403   1.395   9.306 -0.2687  0.6760 -1.3015
  114OSM   H15G11932   0.559   1.336   9.312 -0.2279 -0.3852 -1.8276
  114OSM   C16F11933   0.541   1.469   9.143  0.3302  0.8030  0.5394
  114OSM   H16F11934   0.650   1.491   9.139  0.4855 -0.2097 -1.3514
  114OSM   H16G11935   0.488   1.563   9.117  1.5692  1.1234 -0.9181
  114OSM   C17F11936   0.496   1.371   9.035  0.1173  0.0219  0.3560
  114OSM   H17F11937   0.516   1.264   9.057 -0.1088 -0.1527 -0.2533
  114OSM   H17G11938   0.561   1.397   8.948  0.6571  1.8790  1.3055
  114OSM   C18F11939   0.352   1.404   8.977  0.8801 -0.1812  0.0891
  114OSM   H18F11940   0.348   1.336   8.889 -1.1671 -1.0269  0.7943
  114OSM   H18G11941   0.356   1.509   8.943 -1.1646 -0.3976 -0.8854
  114OSM   H18H11942   0.277   1.384   9.056  0.6833  2.8216  0.6938
  115OSM      N11943   6.681   5.980   6.024  0.1962  0.3695  0.1833
  115OSM    C1511944   6.599   6.102   6.035  0.3734 -0.0549 -0.7032
  115OSM   H15A11945   6.591   6.146   5.936  0.9926  2.2959  0.2522
  115OSM   H15B11946   6.660   6.174   6.089  0.7390 -0.7214 -0.2301
  115OSM   H15C11947   6.505   6.098   6.087  0.4317 -1.0884 -0.6669
  115OSM    C1411948   6.604   5.872   5.949 -0.2263  0.3493  0.5981
  115OSM   H14A11949   6.568   5.918   5.858  0.3116 -0.9020 -0.2712
  115OSM   H14B11950   6.512   5.851   6.002 -0.7347  1.4267  0.1453
  115OSM   H14C11951   6.664   5.785   5.928  1.3558  0.9487  2.4946
  115OSM    C1311952   6.803   6.021   5.950  1.1011  0.2524  0.2381
  115OSM   H13A11953   6.857   6.104   5.994  0.5447 -0.5633  2.5233
  115OSM   H13B11954   6.774   6.039   5.848 -1.8989 -0.3172  0.9538
  115OSM   H13C11955   6.869   5.936   5.943 -0.4743 -1.0163  0.4661
  115OSM    C1211956   6.711   5.943   6.171  0.5885 -0.3663 -0.0389
  115OSM   H12A11957   6.620   5.954   6.228  0.5230  2.1326 -0.5556
  115OSM   H12B11958   6.775   6.013   6.222 -0.5513  1.5656 -1.1596
  115OSM    C1111959   6.786   5.810   6.191  0.0520  1.0070  0.0994
  115OSM   H11A11960   6.725   5.720   6.168 -0.5328  2.0406 -2.6652
  115OSM   H11B11961   6.797   5.805   6.301  1.5311  1.6553 -0.0063
  115OSM      P11962   7.051   5.844   6.175  0.3981  0.2392 -0.1696
  115OSM    O1311963   7.136   5.727   6.197  0.0114 -0.5687 -0.1983
  115OSM    O1411964   7.096   5.951   6.085 -0.5043  0.0128 -0.3586
  115OSM    O1111965   7.035   5.909   6.310 -0.3201  0.1056  0.1299
  115OSM    O1211966   6.905   5.791   6.123 -0.1400  0.5048  0.2980
  115OSM    C1S11967   7.034   5.825   6.428  0.8403  0.7612 -0.0085
  115OSM    H1S11968   7.131   5.771   6.438  0.0798 -0.7201 -0.4464
  115OSM    H1T11969   6.961   5.741   6.430  3.3034 -1.4741 -0.7447
  115OSM     NF11970   7.051   5.815   6.676  0.5801 -0.3515 -0.4873
  115OSM    HNF11971   6.979   5.764   6.722  0.9442 -1.0404 -0.6894
  115OSM    C2S11972   7.005   5.897   6.563  0.0627 -0.1202 -0.1663
  115OSM    H2S11973   7.061   5.992   6.563  0.3057 -0.2596 -0.5782
  115OSM    C3S11974   6.850   5.931   6.560  0.1751  1.1920  0.3629
  115OSM    H3S11975   6.798   5.833   6.564  1.8208  0.3388  1.4682
  115OSM     O311976   6.803   6.018   6.458  0.4373  0.3716  0.6464
  115OSM    HO311977   6.867   6.011   6.386 -0.0820  0.7898  0.1357
  115OSM    C4S11978   6.822   6.004   6.691 -0.2391 -0.1539  1.1315
  115OSM    H4S11979   6.867   6.105   6.688  0.6368 -0.5533  0.3557
  115OSM    C5S11980   6.744   5.972   6.793 -0.1687 -0.4777  0.2842
  115OSM    H5S11981   6.667   5.893   6.787 -0.8011  0.2030 -0.6029
  115OSM    C6S11982   6.726   6.063   6.916  0.9695  0.2204 -0.3195
  115OSM    H6S11983   6.620   6.056   6.949  0.8343 -1.2750 -1.0223
  115OSM    H6T11984   6.733   6.172   6.893  0.8466  0.8663  2.5087
  115OSM    C7S11985   6.812   6.033   7.047  0.0816 -0.6389  0.3017
  115OSM    H7S11986   6.916   6.055   7.016 -0.3128 -0.3415 -0.8795
  115OSM    H7T11987   6.800   5.926   7.075  0.5638 -1.2370 -1.7129
  115OSM    C8S11988   6.783   6.136   7.160  0.2771  0.2977 -0.4113
  115OSM    H8S11989   6.678   6.121   7.194  0.7018  1.6698  1.5984
  115OSM    H8T11990   6.792   6.234   7.109 -1.5324 -0.1055 -1.5801
  115OSM    C9S11991   6.886   6.128   7.263  0.0907 -0.0710  0.1143
  115OSM    H9S11992   6.973   6.188   7.229 -0.5223  1.4202  1.1206
  115OSM    H9T11993   6.923   6.025   7.279  1.6041  0.6064  1.1301
  115OSM   C10S11994   6.855   6.190   7.396  0.0188  0.0116  0.3058
  115OSM   H10S11995   6.761   6.146   7.436 -0.2411  1.7280  1.6442
  115OSM   H10T11996   6.816   6.292   7.374  1.9484  0.7769  0.3347
  115OSM   C11S11997   6.966   6.198   7.495 -0.2527  0.8664  0.3360
  115OSM   H11S11998   7.055   6.244   7.447 -0.3032  0.1811 -0.4366
  115OSM   H11T11999   7.012   6.099   7.516 -0.6286  0.5483 -0.2999
  115OSM   C12S12000   6.914   6.240   7.629  0.5868  0.0691  1.0470
  115OSM   H12S12001   6.831   6.172   7.658  0.2806  0.9629  2.3253
  115OSM   H12T12002   6.861   6.338   7.636 -4.4158 -2.6457  3.9582
  115OSM   C13S12003   7.014   6.229   7.745  0.6021  0.3797 -0.3121
  115OSM   H13S12004   7.081   6.316   7.731  0.6597  0.2450 -0.8533
  115OSM   H13T12005   7.078   6.139   7.747 -1.1230 -0.8508  0.4882
  115OSM   C14S12006   6.941   6.238   7.880 -0.1512  0.1997 -0.6874
  115OSM   H14S12007   6.874   6.149   7.884  1.2860 -0.8153  1.4852
  115OSM   H14T12008   6.872   6.326   7.881  0.2862  0.5328  0.0873
  115OSM   C15S12009   7.022   6.236   8.012  0.3878  0.3307 -0.3288
  115OSM   H15S12010   7.085   6.327   8.003 -1.2093  1.8551  2.8684
  115OSM   H15T12011   7.101   6.159   8.022  0.0383 -0.1536 -1.2761
  115OSM   C16S12012   6.941   6.241   8.140  0.6540  0.1646 -0.1533
  115OSM   H16S12013   6.863   6.319   8.127  0.0547 -0.4443 -0.2418
  115OSM   H16T12014   7.000   6.278   8.226 -1.2563  1.0370  0.8213
  115OSM   C17S12015   6.884   6.099   8.186 -0.6389 -0.0620 -0.0716
  115OSM   H17S12016   6.952   6.044   8.253 -0.2475 -0.5735 -0.8790
  115OSM   H17T12017   6.864   6.043   8.092  1.0391  0.4809 -0.7710
  115OSM   C18S12018   6.756   6.110   8.270 -0.0931 -1.0849 -0.3242
  115OSM   H18S12019   6.729   6.013   8.318 -2.0589 -0.4672 -0.1301
  115OSM   H18T12020   6.669   6.127   8.203 -0.5410 -1.7097  0.0969
  115OSM   H18U12021   6.750   6.188   8.349 -2.0970  0.9422 -2.4260
  115OSM    C1F12022   7.179   5.803   6.709  0.0636 -0.2125  0.2772
  115OSM     OF12023   7.261   5.866   6.640  0.1081  0.2260 -0.3648
  115OSM    C2F12024   7.218   5.712   6.820 -0.2029 -0.1000 -0.2918
  115OSM    H2F12025   7.252   5.620   6.768 -0.3736  0.7470 -1.9320
  115OSM    H2G12026   7.124   5.694   6.876 -1.5896  0.2709 -2.4470
  115OSM    C3F12027   7.330   5.770   6.911  0.3200  0.6180  0.2064
  115OSM    H3F12028   7.420   5.801   6.854  0.1484  0.2885 -0.2529
  115OSM    H3G12029   7.343   5.688   6.985 -1.3803 -0.2639 -0.4308
  115OSM    C4F12030   7.298   5.896   6.990 -0.3731  0.4413 -0.2657
  115OSM    H4F12031   7.196   5.886   7.035 -2.4768 -1.4725 -5.1208
  115OSM    H4G12032   7.296   5.981   6.919  1.7527  1.1813  0.5259
  115OSM    C5F12033   7.407   5.909   7.100  0.5726  0.6341  0.9509
  115OSM    H5F12034   7.500   5.950   7.055 -0.3377  0.8904 -0.6974
  115OSM    H5G12035   7.421   5.805   7.139  2.2126  0.0443 -1.1320
  115OSM    C6F12036   7.355   5.980   7.226 -0.3893  0.4511  0.1923
  115OSM    H6F12037   7.246   5.967   7.243 -0.3235 -0.8851 -0.3125
  115OSM    H6G12038   7.377   6.087   7.207 -0.1382  0.2870 -0.4503
  115OSM    C7F12039   7.424   5.932   7.356  0.3625 -0.4817  0.4079
  115OSM    H7F12040   7.533   5.932   7.335  0.3279 -2.4540  0.0492
  115OSM    H7G12041   7.391   5.832   7.392 -1.0085  0.3814  1.5760
  115OSM    C8F12042   7.394   6.032   7.471 -0.1397  0.2513 -0.7448
  115OSM    H8F12043   7.407   5.971   7.563  0.3055  0.8631 -0.3930
  115OSM    H8G12044   7.288   6.062   7.462  0.4482  2.4650 -0.6976
  115OSM    C9F12045   7.489   6.150   7.481 -0.7081 -0.1921 -0.0384
  115OSM    H9F12046   7.524   6.202   7.390  1.9611  0.2982  1.2135
  115OSM   C10F12047   7.541   6.184   7.601  0.0127  0.5414  0.1504
  115OSM   H10F12048   7.596   6.279   7.602  1.6869 -0.3632 -1.7392
  115OSM   C11F12049   7.520   6.126   7.737 -0.3382 -0.2817  0.5474
  115OSM   H11F12050   7.613   6.076   7.771  0.8027  2.9573  2.4078
  115OSM   H11G12051   7.441   6.047   7.739 -0.4886 -0.1637 -0.5549
  115OSM   C12F12052   7.490   6.246   7.823  0.2556  0.2252 -0.3034
  115OSM   H12F12053   7.425   6.321   7.773  1.1569  0.1338 -1.6506
  115OSM   H12G12054   7.580   6.300   7.860 -0.3106  1.0524 -0.1459
  115OSM   C13F12055   7.399   6.197   7.939  0.0037  0.1866  0.0439
  115OSM   H13F12056   7.322   6.124   7.905 -0.3460  1.8024 -2.7402
  115OSM   H13G12057   7.335   6.282   7.971 -2.6774 -1.6298 -0.2940
  115OSM   C14F12058   7.480   6.143   8.066  0.3772  0.1067 -0.1318
  115OSM   H14F12059   7.521   6.241   8.098 -0.3409 -1.0609  4.9199
  115OSM   H14G12060   7.557   6.068   8.038  0.6891  0.7355 -0.9705
  115OSM   C15F12061   7.386   6.094   8.177 -0.5862  0.8392  0.0264
  115OSM   H15F12062   7.358   5.992   8.144 -0.6763  1.0994 -0.7035
  115OSM   H15G12063   7.291   6.152   8.172  0.9567  3.5102  0.5552
  115OSM   C16F12064   7.457   6.091   8.317 -0.0885 -0.0038 -0.0127
  115OSM   H16F12065   7.497   6.192   8.339 -0.3556  0.0943  0.0153
  115OSM   H16G12066   7.545   6.022   8.319  0.0379  0.1815  0.8131
  115OSM   C17F12067   7.355   6.057   8.429  0.0582 -0.0765 -1.0678
  115OSM   H17F12068   7.300   5.968   8.391  1.3248 -1.8379  1.0929
  115OSM   H17G12069   7.291   6.148   8.443 -0.1174 -0.6362  2.1643
  115OSM   C18F12070   7.414   6.017   8.558 -0.4140 -0.1207 -0.3527
  115OSM   H18F12071   7.341   5.975   8.631  1.5979 -3.3486 -0.0889
  115OSM   H18G12072   7.468   6.106   8.598 -0.5660  0.0460 -0.5224
  115OSM   H18H12073   7.496   5.943   8.547  0.3150  0.3280  1.7839
  116OSM      N12074   6.278   3.516   6.050  0.0267 -0.3373 -0.3095
  116OSM    C1512075   6.367   3.622   6.106  0.3709  0.0962  0.0081
  116OSM   H15A12076   6.328   3.667   6.196  0.7097 -0.4854  0.4485
  116OSM   H15B12077   6.386   3.702   6.035  0.2054 -1.0370 -1.3400
  116OSM   H15C12078   6.467   3.589   6.130  0.3932 -1.0350 -1.5267
  116OSM    C1412079   6.159   3.578   5.983  1.0498 -0.7996 -0.3728
  116OSM   H14A12080   6.084   3.609   6.054 -0.5420  1.0170 -2.7795
  116OSM   H14B12081   6.106   3.497   5.933 -0.1470  0.2197 -0.7799
  116OSM   H14C12082   6.187   3.663   5.923 -0.0900  0.6539  1.1376
  116OSM    C1312083   6.358   3.435   5.943 -0.2678  0.2633  0.0177
  116OSM   H13A12084   6.406   3.502   5.872  2.4614 -1.2256  0.3714
  116OSM   H13B12085   6.287   3.369   5.895 -0.5409  1.2782 -1.0177
  116OSM   H13C12086   6.435   3.377   5.992 -0.7994  0.0288  0.5844
  116OSM    C1212087   6.238   3.420   6.162 -0.0914  1.1148  0.1306
  116OSM   H12A12088   6.198   3.333   6.113  0.5917  0.8373  0.0743
  116OSM   H12B12089   6.157   3.462   6.220  0.4477  1.2258  0.8107
  116OSM    C1112090   6.346   3.364   6.262  0.4100  0.7471 -0.9462
  116OSM   H11A12091   6.298   3.303   6.342  3.8116 -0.5865  0.1645
  116OSM   H11B12092   6.400   3.447   6.313  0.3520 -0.3177  0.8891
  116OSM      P12093   6.480   3.137   6.246  0.0637  0.0220 -0.1211
  116OSM    O1312094   6.380   3.031   6.218 -0.1869 -0.4425  0.3525
  116OSM    O1412095   6.621   3.118   6.212  0.9247 -0.5400  0.2920
  116OSM    O1112096   6.475   3.164   6.397  0.2950 -0.0367 -0.0589
  116OSM    O1212097   6.439   3.281   6.186 -0.0438  0.5489  0.2119
  116OSM    C1S12098   6.526   3.068   6.491  0.3428  0.2842  0.6350
  116OSM    H1S12099   6.632   3.039   6.470  1.8563  3.9406  2.6767
  116OSM    H1T12100   6.469   2.973   6.483  0.6410  0.1078  0.5455
  116OSM     NF12101   6.582   3.028   6.738  1.0585 -0.6331  0.1566
  116OSM    HNF12102   6.515   2.976   6.791 -2.1548  0.8958 -2.2206
  116OSM    C2S12103   6.513   3.115   6.639 -0.2623 -0.6416  0.5261
  116OSM    H2S12104   6.560   3.216   6.644 -1.8688  0.2011 -0.7127
  116OSM    C3S12105   6.365   3.126   6.675  0.2387  0.2418  0.7653
  116OSM    H3S12106   6.312   3.030   6.656  0.8763 -0.2917  1.6881
  116OSM     O312107   6.286   3.209   6.595 -0.1827 -0.2358  0.0669
  116OSM    HO312108   6.340   3.245   6.525  1.0036  1.9980  2.0712
  116OSM    C4S12109   6.345   3.184   6.811  0.1357  0.2534 -0.6388
  116OSM    H4S12110   6.385   3.284   6.834  0.5507  0.1158 -0.7454
  116OSM    C5S12111   6.305   3.108   6.914 -0.2067  0.0327  0.3499
  116OSM    H5S12112   6.265   3.011   6.883 -0.4484  0.1833  0.1912
  116OSM    C6S12113   6.290   3.139   7.066  1.0325 -0.5268 -0.4532
  116OSM    H6S12114   6.351   3.067   7.125  0.0148 -0.4358  0.7284
  116OSM    H6T12115   6.190   3.104   7.101  1.4659 -0.5889  0.7464
  116OSM    C7S12116   6.317   3.276   7.116  0.4862 -0.1301 -0.3065
  116OSM    H7S12117   6.270   3.350   7.049 -1.5240 -2.0730 -1.1038
  116OSM    H7T12118   6.428   3.280   7.116  0.4351  1.6251  0.8730
  116OSM    C8S12119   6.287   3.298   7.260  0.0330 -0.0906 -0.1187
  116OSM    H8S12120   6.362   3.241   7.319  0.5233 -0.3029 -0.9512
  116OSM    H8T12121   6.191   3.250   7.291 -0.1686  1.3940  1.6912
  116OSM    C9S12122   6.296   3.449   7.303  0.5333 -1.0006 -0.0730
  116OSM    H9S12123   6.236   3.502   7.226 -1.6252 -2.9364  0.2341
  116OSM    H9T12124   6.402   3.483   7.298 -0.1269  0.9238 -2.1446
  116OSM   C10S12125   6.232   3.471   7.434  0.4954  0.6126 -0.8629
  116OSM   H10S12126   6.140   3.413   7.456  0.8631  0.9423  1.6831
  116OSM   H10T12127   6.217   3.581   7.439 -0.3795  0.6154 -2.8615
  116OSM   C11S12128   6.333   3.435   7.543  0.2799  0.2184 -0.5404
  116OSM   H11S12129   6.431   3.475   7.509  1.2940 -2.1279 -0.4923
  116OSM   H11T12130   6.332   3.324   7.553 -3.5615  0.2547  0.2587
  116OSM   C12S12131   6.294   3.491   7.683 -0.1601  0.3091  0.6486
  116OSM   H12S12132   6.345   3.422   7.754 -1.1258 -0.3565  0.6977
  116OSM   H12T12133   6.187   3.464   7.691 -0.5406  1.0878 -1.3903
  116OSM   C13S12134   6.326   3.644   7.715 -0.3651 -0.0325  0.3941
  116OSM   H13S12135   6.233   3.698   7.739  0.5774  1.0339  1.6946
  116OSM   H13T12136   6.379   3.695   7.632  3.2827 -0.8337  2.1137
  116OSM   C14S12137   6.416   3.651   7.843  0.6749  0.3896 -0.0514
  116OSM   H14S12138   6.438   3.756   7.873  0.3153  0.9786 -1.8247
  116OSM   H14T12139   6.516   3.614   7.809 -0.3658 -0.7251 -1.9834
  116OSM   C15S12140   6.367   3.573   7.965 -0.7241  0.5378  0.5996
  116OSM   H15S12141   6.448   3.564   8.041 -0.3795  2.0625  0.4273
  116OSM   H15T12142   6.346   3.467   7.937 -0.7493  0.3230  1.4254
  116OSM   C16S12143   6.233   3.636   8.022 -0.1833 -0.0409 -0.0244
  116OSM   H16S12144   6.161   3.631   7.938 -0.5797  1.2680  0.2349
  116OSM   H16T12145   6.259   3.744   8.029  1.8988 -0.2644 -3.0444
  116OSM   C17S12146   6.181   3.580   8.157 -0.0864  0.5401 -0.0742
  116OSM   H17S12147   6.086   3.636   8.170  0.3961  0.5917  3.7094
  116OSM   H17T12148   6.255   3.610   8.233 -1.2936  1.2646  0.8413
  116OSM   C18S12149   6.156   3.430   8.147  0.2427 -0.3182  0.4425
  116OSM   H18S12150   6.094   3.400   8.235 -0.3018  0.8687  0.4799
  116OSM   H18T12151   6.245   3.364   8.148  0.8360  0.4705  0.6186
  116OSM   H18U12152   6.096   3.409   8.056  0.4953  0.9739 -0.0387
  116OSM    C1F12153   6.713   3.018   6.756  0.2524  0.6532  0.2881
  116OSM     OF12154   6.779   3.096   6.693 -0.3354 -0.3303  0.0082
  116OSM    C2F12155   6.768   2.920   6.854  0.7096 -0.7339 -0.1052
  116OSM    H2F12156   6.832   2.852   6.794 -0.8711 -0.2797 -2.3974
  116OSM    H2G12157   6.678   2.862   6.885 -0.0536  1.0292  1.0748
  116OSM    C3F12158   6.847   2.985   6.963  0.7015  0.0458  0.3080
  116OSM    H3F12159   6.786   3.062   7.014 -1.0932  0.0278 -1.6932
  116OSM    H3G12160   6.933   3.042   6.921 -1.0928  2.0265 -0.7915
  116OSM    C4F12161   6.900   2.879   7.066  0.3429  1.1055  0.2942
  116OSM    H4F12162   6.952   2.799   7.009 -1.2554 -1.1562  1.9200
  116OSM    H4G12163   6.813   2.822   7.106  1.5631 -2.3847 -1.7808
  116OSM    C5F12164   6.990   2.931   7.180  0.1468 -0.1050 -0.6719
  116OSM    H5F12165   6.956   3.032   7.213 -2.4164 -0.6598 -1.5125
  116OSM    H5G12166   7.090   2.943   7.134 -0.8279  2.7275 -2.1943
  116OSM    C6F12167   6.972   2.851   7.306  0.1681  1.0012 -0.3701
  116OSM    H6F12168   6.998   2.743   7.295 -3.0894  0.2253 -1.1394
  116OSM    H6G12169   6.866   2.837   7.336  0.1189  1.1939 -0.4548
  116OSM    C7F12170   7.066   2.896   7.420  0.2369 -0.5239 -0.3958
  116OSM    H7F12171   7.040   3.003   7.435  0.8198 -0.3066 -0.9022
  116OSM    H7G12172   7.175   2.898   7.397  0.4023 -1.3582  0.3106
  116OSM    C8F12173   7.025   2.819   7.553 -0.5256 -0.4365 -0.1021
  116OSM    H8F12174   6.922   2.777   7.544 -1.2751  1.3253 -0.0633
  116OSM    H8G12175   7.027   2.887   7.641  3.1717  1.1746 -1.3464
  116OSM    C9F12176   7.115   2.701   7.566 -0.4339  0.3138  0.3546
  116OSM    H9F12177   7.151   2.661   7.469 -0.0308 -6.3343  2.9642
  116OSM   C10F12178   7.170   2.664   7.680  0.2015  0.0570  0.9447
  116OSM   H10F12179   7.235   2.576   7.675 -0.9474 -0.6983 -1.3295
  116OSM   C11F12180   7.136   2.717   7.818  0.0722 -0.3927  0.0028
  116OSM   H11F12181   7.040   2.772   7.809  0.6960  0.5496 -1.0332
  116OSM   H11G12182   7.219   2.787   7.844 -1.0331  1.7775 -2.1640
  116OSM   C12F12183   7.116   2.603   7.919 -0.4450 -0.3738 -0.1061
  116OSM   H12F12184   7.212   2.553   7.944  0.3604  1.8000  1.2884
  116OSM   H12G12185   7.049   2.532   7.865  1.2843 -0.8238 -1.6972
  116OSM   C13F12186   7.062   2.654   8.054 -0.6905  0.1336  0.9290
  116OSM   H13F12187   7.144   2.726   8.075  1.0909 -1.7795  0.7278
  116OSM   H13G12188   7.066   2.567   8.124 -0.4420 -0.6203  0.0013
  116OSM   C14F12189   6.915   2.706   8.056 -0.8225  0.6227  0.1051
  116OSM   H14F12190   6.851   2.618   8.031  0.9663 -0.3280 -1.2584
  116OSM   H14G12191   6.902   2.794   7.989 -2.3102 -0.6116 -1.2769
  116OSM   C15F12192   6.867   2.762   8.198  0.4355 -0.1754  0.2986
  116OSM   H15F12193   6.918   2.858   8.222 -1.3678  1.3681 -1.7275
  116OSM   H15G12194   6.908   2.688   8.269 -0.3195  1.1441  2.1520
  116OSM   C16F12195   6.716   2.760   8.231  0.1805  0.4870  0.0401
  116OSM   H16F12196   6.669   2.660   8.219  1.2671  0.0740 -0.7863
  116OSM   H16G12197   6.665   2.821   8.153  0.0748 -1.0448 -1.1028
  116OSM   C17F12198   6.687   2.831   8.366 -0.3912 -0.2273 -1.1560
  116OSM   H17F12199   6.757   2.917   8.376 -1.6866  1.0379 -2.6662
  116OSM   H17G12200   6.696   2.768   8.457  2.0768  1.4723 -0.1951
  116OSM   C18F12201   6.546   2.898   8.368 -0.4216  0.3622 -0.1228
  116OSM   H18F12202   6.528   2.963   8.456  2.4309 -0.9178  1.4837
  116OSM   H18G12203   6.467   2.819   8.367 -2.4512  2.3452 -3.1869
  116OSM   H18H12204   6.539   2.968   8.282 -0.2119 -0.5735 -0.9123
  117OSM      N12205   5.663   5.233   6.510  0.3315 -0.4794 -0.2625
  117OSM    C1512206   5.752   5.124   6.460 -0.3119 -0.7790  0.2615
  117OSM   H15A12207   5.704   5.038   6.503  3.0107 -2.9420 -0.1624
  117OSM   H15B12208   5.855   5.135   6.491 -0.3895 -0.0419  0.2712
  117OSM   H15C12209   5.761   5.108   6.353  0.5986  0.5278  0.1303
  117OSM    C1412210   5.688   5.260   6.658 -0.6177  0.4400  0.2348
  117OSM   H14A12211   5.794   5.276   6.666 -0.4130 -0.1340 -1.2512
  117OSM   H14B12212   5.653   5.178   6.720  0.6506  0.0236  0.4039
  117OSM   H14C12213   5.639   5.350   6.694 -3.1026 -0.6039 -0.4055
  117OSM    C1312214   5.681   5.359   6.431 -0.0312  0.7381  0.2819
  117OSM   H13A12215   5.781   5.392   6.455  0.0673 -0.5361  1.6856
  117OSM   H13B12216   5.610   5.437   6.455 -0.9712  0.6389 -1.9975
  117OSM   H13C12217   5.672   5.333   6.326  1.0925 -1.1028  0.6292
  117OSM    C1212218   5.519   5.185   6.491 -0.5774 -0.6030  0.2577
  117OSM   H12A12219   5.505   5.150   6.390 -0.9502  0.0402  0.0852
  117OSM   H12B12220   5.453   5.267   6.513  0.5439 -0.1015  1.9024
  117OSM    C1112221   5.474   5.056   6.566 -0.4110  0.6657 -0.1011
  117OSM   H11A12222   5.364   5.042   6.565 -0.4382  0.8563  0.0866
  117OSM   H11B12223   5.502   5.061   6.673 -1.6142 -0.8923  0.3060
  117OSM      P12224   5.508   4.851   6.406  0.0442  0.0482 -0.1424
  117OSM    O1312225   5.472   4.935   6.292  0.2808 -0.1674 -0.1065
  117OSM    O1412226   5.613   4.748   6.387 -0.1537 -0.4238  0.0918
  117OSM    O1112227   5.379   4.777   6.454 -0.5185  1.0161  0.3434
  117OSM    O1212228   5.540   4.937   6.529  0.1818  0.4066 -0.0438
  117OSM    C1S12229   5.381   4.659   6.531  0.2544 -0.2551  0.3787
  117OSM    H1S12230   5.475   4.599   6.523  0.5775  0.3586 -0.5226
  117OSM    H1T12231   5.307   4.589   6.486  1.1349 -1.9562  1.5163
  117OSM     NF12232   5.367   4.560   6.748 -0.0607 -0.4345  0.8274
  117OSM    HNF12233   5.291   4.497   6.765  0.5178 -1.6154 -0.7707
  117OSM    C2S12234   5.338   4.683   6.677 -0.8603  0.2147  0.0688
  117OSM    H2S12235   5.385   4.771   6.726  1.8404  0.8954 -3.5453
  117OSM    C3S12236   5.185   4.733   6.676 -0.3390  0.4205 -0.2045
  117OSM    H3S12237   5.129   4.650   6.627  1.1419  0.1205 -1.4667
  117OSM     O312238   5.149   4.845   6.596  0.2558  0.0945  0.0033
  117OSM    HO312239   5.223   4.861   6.536 -0.4285  2.7224 -0.1992
  117OSM    C4S12240   5.128   4.756   6.817  0.1416 -0.0809  0.1282
  117OSM    H4S12241   5.199   4.814   6.878  2.4757 -0.9007 -1.6815
  117OSM    C5S12242   5.014   4.704   6.864 -0.9197  0.1546 -0.1619
  117OSM    H5S12243   4.952   4.638   6.803 -0.3264 -0.4747 -0.0920
  117OSM    C6S12244   4.975   4.729   7.008 -0.0508 -0.3747  0.1608
  117OSM    H6S12245   5.053   4.796   7.051 -0.4755  2.2515 -2.9767
  117OSM    H6T12246   4.985   4.635   7.067 -1.3741 -0.5378  0.1306
  117OSM    C7S12247   4.836   4.782   7.030 -0.0915 -0.1811  0.3835
  117OSM    H7S12248   4.762   4.721   6.973 -1.3634  1.2093  0.5171
  117OSM    H7T12249   4.841   4.887   6.993  1.3115 -0.8641 -1.4076
  117OSM    C8S12250   4.794   4.775   7.174  0.0224 -0.3906 -0.6774
  117OSM    H8S12251   4.792   4.669   7.208 -1.4625 -0.8277 -2.0866
  117OSM    H8T12252   4.688   4.805   7.186  0.3017 -0.3433  2.1620
  117OSM    C9S12253   4.883   4.842   7.276  0.1413 -0.0490 -0.3736
  117OSM    H9S12254   4.885   4.949   7.246 -4.4544  0.6916  1.5829
  117OSM    H9T12255   4.987   4.804   7.283 -1.0601 -3.2015  1.8473
  117OSM   C10S12256   4.811   4.849   7.413 -0.2772  0.1102 -0.0748
  117OSM   H10S12257   4.780   4.747   7.443  0.6117  0.1404  0.9517
  117OSM   H10T12258   4.710   4.895   7.407  0.0844  1.2159  2.0810
  117OSM   C11S12259   4.898   4.925   7.516  0.0827 -0.1837 -0.7367
  117OSM   H11S12260   4.892   5.034   7.495  0.5608  0.0028  0.0877
  117OSM   H11T12261   5.003   4.895   7.495  0.3989 -0.3237  0.9445
  117OSM   C12S12262   4.855   4.900   7.658 -0.6941 -0.1082 -0.1316
  117OSM   H12S12263   4.828   4.794   7.677 -1.0791 -0.7025 -3.6887
  117OSM   H12T12264   4.767   4.966   7.675 -1.6102 -1.3576  0.0519
  117OSM   C13S12265   4.967   4.943   7.754 -0.0855 -0.2404  0.0028
  117OSM   H13S12266   5.016   5.034   7.710  0.1234  1.2868  3.2460
  117OSM   H13T12267   5.053   4.873   7.761  3.3079  3.6835 -0.0761
  117OSM   C14S12268   4.916   4.971   7.894 -0.7668  0.3558 -0.3278
  117OSM   H14S12269   4.892   4.869   7.931 -0.8055 -0.8200 -3.4243
  117OSM   H14T12270   4.827   5.037   7.897 -1.8524 -1.0449 -0.7378
  117OSM   C15S12271   5.021   5.047   7.979 -0.2856  0.4969 -0.2254
  117OSM   H15S12272   5.032   5.146   7.929  1.2133  0.6247  0.3501
  117OSM   H15T12273   5.117   4.993   7.972 -0.4440  0.2819 -0.7858
  117OSM   C16S12274   4.999   5.060   8.130  0.6366 -1.4903  0.6359
  117OSM   H16S12275   5.077   5.124   8.176 -0.3153  0.7360 -0.7187
  117OSM   H16T12276   5.004   4.959   8.174 -2.6739 -2.0478 -0.1233
  117OSM   C17S12277   4.856   5.116   8.162  0.1642 -0.4925  0.0557
  117OSM   H17S12278   4.768   5.056   8.129 -0.3036  1.8611 -3.2041
  117OSM   H17T12279   4.829   5.208   8.105 -1.6399 -2.5295 -2.5127
  117OSM   C18S12280   4.849   5.161   8.310 -0.1908 -0.1854 -0.6635
  117OSM   H18S12281   4.754   5.210   8.338  1.1314  1.8875  0.3313
  117OSM   H18T12282   4.936   5.220   8.346 -1.3414 -0.0647  2.0124
  117OSM   H18U12283   4.854   5.063   8.363  2.5231  1.3636  2.1097
  117OSM    C1F12284   5.492   4.529   6.777 -0.0352 -0.1755  0.4596
  117OSM     OF12285   5.579   4.606   6.743 -0.3875 -0.1825  0.0799
  117OSM    C2F12286   5.519   4.405   6.856  0.0128 -0.5712 -0.7309
  117OSM    H2F12287   5.535   4.322   6.784  0.0670 -0.7540 -0.5089
  117OSM    H2G12288   5.420   4.394   6.905 -0.5476  0.1778 -1.6799
  117OSM    C3F12289   5.636   4.416   6.961 -0.6822 -0.3321 -0.2348
  117OSM    H3F12290   5.733   4.404   6.908 -0.4867  0.1249  0.0149
  117OSM    H3G12291   5.622   4.327   7.027  1.9840 -0.7489 -0.1652
  117OSM    C4F12292   5.630   4.539   7.050  0.5887 -0.6341  0.5438
  117OSM    H4F12293   5.646   4.630   6.987 -1.1936 -0.5816  0.1483
  117OSM    H4G12294   5.717   4.536   7.119  0.7770  0.8608  0.4018
  117OSM    C5F12295   5.498   4.555   7.122 -0.1371  0.6568  0.6477
  117OSM    H5F12296   5.479   4.464   7.182  0.2918 -0.4444 -0.8587
  117OSM    H5G12297   5.411   4.559   7.053  0.4953  1.5557 -0.1111
  117OSM    C6F12298   5.503   4.680   7.223  0.2776  0.0634 -0.7419
  117OSM    H6F12299   5.482   4.777   7.173  4.7295  1.3783 -0.2061
  117OSM    H6G12300   5.601   4.693   7.273  0.5449  0.5107 -1.3827
  117OSM    C7F12301   5.404   4.667   7.350  0.3816 -0.4251 -0.1944
  117OSM    H7F12302   5.406   4.557   7.368  2.0339 -0.4625 -0.4713
  117OSM    H7G12303   5.300   4.693   7.322 -0.4178 -2.3260  0.8811
  117OSM    C8F12304   5.445   4.744   7.475 -0.6779  0.0056  0.3222
  117OSM    H8F12305   5.432   4.853   7.460 -1.3289  0.2505  2.4307
  117OSM    H8G12306   5.551   4.733   7.505 -0.3564 -0.0243 -0.7929
  117OSM    C9F12307   5.354   4.699   7.581  0.4826  0.2440 -0.7282
  117OSM    H9F12308   5.257   4.654   7.554  1.0010 -1.4340  0.1778
  117OSM   C10F12309   5.363   4.731   7.707 -0.0688  0.5561  0.1011
  117OSM   H10F12310   5.282   4.709   7.778  1.1966 -0.9223  1.1081
  117OSM   C11F12311   5.479   4.802   7.773  0.0218 -0.3127  0.1120
  117OSM   H11F12312   5.434   4.900   7.800  0.5616 -0.1351  0.3691
  117OSM   H11G12313   5.576   4.813   7.720  0.3837 -3.5842 -0.0059
  117OSM   C12F12314   5.520   4.728   7.903  0.3022  0.2334  0.3950
  117OSM   H12F12315   5.433   4.707   7.969  0.3662  0.3855  0.5296
  117OSM   H12G12316   5.587   4.798   7.958  2.7881  0.0395 -2.3042
  117OSM   C13F12317   5.585   4.594   7.871  0.2028  0.6633  0.0601
  117OSM   H13F12318   5.675   4.599   7.806 -0.3903 -0.1406 -0.8377
  117OSM   H13G12319   5.513   4.532   7.813  0.7946  0.9112 -0.9582
  117OSM   C14F12320   5.631   4.515   7.994 -1.3538 -0.6084  0.3851
  117OSM   H14F12321   5.666   4.412   7.969 -2.3876 -0.4968 -1.6175
  117OSM   H14G12322   5.551   4.490   8.066 -0.4260 -1.8930  0.9898
  117OSM   C15F12323   5.749   4.579   8.071 -0.2770  0.7531  0.4169
  117OSM   H15F12324   5.708   4.667   8.126  2.6045  1.2899  1.8010
  117OSM   H15G12325   5.828   4.615   8.002  1.2510 -2.0384  0.6354
  117OSM   C16F12326   5.819   4.476   8.166 -0.7773 -0.3286 -0.8128
  117OSM   H16F12327   5.863   4.398   8.100  0.6305 -0.9141  0.7901
  117OSM   H16G12328   5.754   4.422   8.237 -0.5830 -0.9721 -1.1234
  117OSM   C17F12329   5.946   4.519   8.245 -0.1532  0.0070  0.3225
  117OSM   H17F12330   5.979   4.444   8.320 -0.2531 -1.3685 -0.9828
  117OSM   H17G12331   6.029   4.515   8.171 -0.0212 -1.9351  0.5486
  117OSM   C18F12332   5.956   4.653   8.309 -0.4447 -0.3893  0.9448
  117OSM   H18F12333   6.043   4.647   8.378  0.4040 -0.6731 -0.1292
  117OSM   H18G12334   5.881   4.668   8.390  1.8321 -1.3768  3.3297
  117OSM   H18H12335   5.952   4.746   8.249 -0.4311  1.4330  3.6698
  118OSM      N12336   0.674   6.779   6.178 -0.0251  0.1308 -0.2940
  118OSM    C1512337   0.711   6.700   6.062  0.1020  0.1196 -0.4734
  118OSM   H15A12338   0.669   6.601   6.067  0.6157 -0.1441 -1.1875
  118OSM   H15B12339   0.816   6.675   6.062 -0.7745 -4.0415  3.2964
  118OSM   H15C12340   0.692   6.754   5.970 -1.1687 -0.8543 -0.7983
  118OSM    C1412341   0.729   6.921   6.165  0.4805 -0.1733 -0.2674
  118OSM   H14A12342   0.678   6.979   6.090  1.7608  1.3248  0.0002
  118OSM   H14B12343   0.837   6.921   6.168  0.5522  0.2239 -2.4904
  118OSM   H14C12344   0.707   6.966   6.261  1.9632 -1.4928  0.7152
  118OSM    C1312345   0.528   6.797   6.186 -0.4925  0.1658  0.0278
  118OSM   H13A12346   0.478   6.703   6.208 -2.7481  1.0893 -0.9386
  118OSM   H13B12347   0.491   6.827   6.089 -2.0148 -0.3664  0.4114
  118OSM   H13C12348   0.504   6.872   6.260  0.8882 -0.9335  1.6117
  118OSM    C1212349   0.729   6.721   6.304  0.5010 -0.1583 -1.1245
  118OSM   H12A12350   0.684   6.623   6.318  1.9637 -0.5465  1.0134
  118OSM   H12B12351   0.693   6.775   6.391  0.5503 -0.7195 -0.7547
  118OSM    C1112352   0.881   6.711   6.320 -0.1243 -0.2935  0.4450
  118OSM   H11A12353   0.907   6.699   6.427  1.7868  1.5167  0.2393
  118OSM   H11B12354   0.937   6.797   6.276  1.4917 -2.4950 -1.9684
  118OSM      P12355   1.063   6.577   6.194 -0.4709  0.1392  0.2051
  118OSM    O1312356   1.097   6.434   6.195  0.6853 -0.3167  0.3469
  118OSM    O1412357   1.075   6.651   6.070  0.0396 -0.0959 -0.3397
  118OSM    O1112358   1.162   6.632   6.301  0.1411  0.0842  0.3705
  118OSM    O1212359   0.922   6.590   6.254  0.4762 -0.5039 -0.3596
  118OSM    C1S12360   1.195   6.572   6.422 -0.0592 -0.1887  0.2775
  118OSM    H1S12361   1.270   6.494   6.394 -0.3143  0.2320 -1.6391
  118OSM    H1T12362   1.111   6.507   6.455  0.5870 -2.0084 -1.5291
  118OSM     NF12363   1.264   6.592   6.649 -0.1039 -0.5189 -0.2454
  118OSM    HNF12364   1.173   6.584   6.687  0.1301  1.5593  0.8383
  118OSM    C2S12365   1.252   6.669   6.528 -0.0334 -0.0464  0.5072
  118OSM    H2S12366   1.351   6.708   6.495 -1.3537  2.1160 -1.0678
  118OSM    C3S12367   1.165   6.797   6.537 -0.1750  0.3709 -0.3005
  118OSM    H3S12368   1.066   6.756   6.565  0.4485 -1.3290 -0.5792
  118OSM     O312369   1.160   6.885   6.426  0.7844  0.3316  0.0568
  118OSM    HO312370   1.213   6.840   6.359  1.1873  0.4152  0.3221
  118OSM    C4S12371   1.214   6.873   6.659 -0.4286  0.6334 -0.0056
  118OSM    H4S12372   1.189   6.840   6.761 -0.6000 -1.4817 -0.7044
  118OSM    C5S12373   1.309   6.969   6.655 -0.2650  0.4417  0.8186
  118OSM    H5S12374   1.350   6.987   6.555  0.7747  3.4546  1.7333
  118OSM    C6S12375   1.372   7.048   6.766  0.9003  0.4579  0.6460
  118OSM    H6S12376   1.359   7.157   6.748 -2.4690  0.0255  0.1637
  118OSM    H6T12377   1.482   7.036   6.778  0.9392  1.6901  1.6598
  118OSM    C7S12378   1.297   7.034   6.900 -0.4514 -0.1785  0.2671
  118OSM    H7S12379   1.302   6.930   6.939  0.5333  0.1333  0.9976
  118OSM    H7T12380   1.191   7.069   6.896 -0.4344  0.1505  2.2777
  118OSM    C8S12381   1.374   7.114   7.006 -0.1747 -0.2556  0.0096
  118OSM    H8S12382   1.354   7.221   6.986  2.6860  0.1578 -0.7630
  118OSM    H8T12383   1.482   7.086   7.011 -0.2786 -0.3772  2.1047
  118OSM    C9S12384   1.320   7.087   7.151  0.4760 -0.8925 -0.2639
  118OSM    H9S12385   1.354   6.986   7.184  1.0233 -0.5869  0.1270
  118OSM    H9T12386   1.210   7.092   7.135  0.2080 -1.6393  1.2781
  118OSM   C10S12387   1.359   7.205   7.248 -0.0285  0.1729 -0.2337
  118OSM   H10S12388   1.307   7.293   7.205 -1.1989 -0.2420  0.2991
  118OSM   H10T12389   1.469   7.219   7.260  0.0936  0.8030 -1.9004
  118OSM   C11S12390   1.317   7.177   7.391 -0.2847 -0.0307 -0.1054
  118OSM   H11S12391   1.372   7.092   7.437 -2.9089 -2.0841 -0.6284
  118OSM   H11T12392   1.212   7.142   7.389  0.1959 -1.7254  2.2327
  118OSM   C12S12393   1.336   7.293   7.485 -0.2990 -0.4699  0.2750
  118OSM   H12S12394   1.270   7.375   7.451  0.7038 -0.6335 -2.1504
  118OSM   H12T12395   1.442   7.325   7.500 -0.2404 -1.0573  1.1507
  118OSM   C13S12396   1.283   7.261   7.624  0.0565  0.1323 -0.2397
  118OSM   H13S12397   1.172   7.248   7.621  0.3142 -2.3114 -0.3008
  118OSM   H13T12398   1.296   7.354   7.684 -1.1762  1.1750 -1.5315
  118OSM   C14S12399   1.349   7.137   7.695  0.6317  0.0102  0.4021
  118OSM   H14S12400   1.454   7.168   7.713  0.3285  1.3132 -0.0048
  118OSM   H14T12401   1.339   7.052   7.623  1.0621 -0.1413  0.5235
  118OSM   C15S12402   1.279   7.110   7.827 -0.0889  0.1900 -0.0792
  118OSM   H15S12403   1.185   7.052   7.817  0.7975 -1.4728  1.1468
  118OSM   H15T12404   1.254   7.204   7.881  0.8723  0.2249  0.3266
  118OSM   C16S12405   1.365   7.015   7.926  0.1910  0.4313 -0.0274
  118OSM   H16S12406   1.450   7.072   7.971  0.6133 -0.5718  0.4667
  118OSM   H16T12407   1.406   6.936   7.859  0.4491  1.5724 -1.2342
  118OSM   C17S12408   1.283   6.964   8.046  0.0047 -0.4127  0.4881
  118OSM   H17S12409   1.199   6.902   8.009 -0.6007  0.2196  0.7700
  118OSM   H17T12410   1.238   7.050   8.102  1.6118  0.5602  0.3156
  118OSM   C18S12411   1.359   6.881   8.144 -0.2122 -0.2274 -0.4302
  118OSM   H18S12412   1.286   6.817   8.198  0.5108  0.3882  1.2915
  118OSM   H18T12413   1.421   6.947   8.209 -0.6929 -0.3251  0.1284
  118OSM   H18U12414   1.433   6.814   8.095  0.6033 -0.8987  1.6740
  118OSM    C1F12415   1.376   6.523   6.682 -0.4035  0.3526 -0.2814
  118OSM     OF12416   1.484   6.535   6.622 -0.3104 -0.1602 -0.3948
  118OSM    C2F12417   1.355   6.422   6.785 -0.3064  0.7992  0.3033
  118OSM    H2F12418   1.431   6.342   6.770  1.5718  2.5075  0.4829
  118OSM    H2G12419   1.251   6.383   6.789  0.7530 -1.9505  2.6789
  118OSM    C3F12420   1.380   6.493   6.923  0.4409  0.1290 -0.2820
  118OSM    H3F12421   1.330   6.592   6.927  1.5463  0.8608 -3.2145
  118OSM    H3G12422   1.487   6.515   6.942 -0.5121  2.9948  2.1534
  118OSM    C4F12423   1.336   6.407   7.037  0.4606  0.6548  0.4070
  118OSM    H4F12424   1.383   6.307   7.027 -2.0988 -0.9172  3.1201
  118OSM    H4G12425   1.226   6.390   7.035  0.4361  0.9351 -0.7962
  118OSM    C5F12426   1.385   6.466   7.173  0.2811 -0.2567  0.1880
  118OSM    H5F12427   1.344   6.568   7.184 -0.3349 -0.0635 -3.2156
  118OSM    H5G12428   1.496   6.457   7.169  0.2247 -0.7834 -0.4674
  118OSM    C6F12429   1.340   6.391   7.300 -0.2414 -0.2742  0.8160
  118OSM    H6F12430   1.364   6.282   7.304 -0.2095 -0.2849  0.3641
  118OSM    H6G12431   1.230   6.401   7.294 -0.2746 -1.2606 -0.4333
  118OSM    C7F12432   1.386   6.460   7.421  0.7294  0.2586  0.1579
  118OSM    H7F12433   1.486   6.505   7.404  0.9376 -0.3211 -0.1713
  118OSM    H7G12434   1.387   6.401   7.515 -0.0421 -0.3332 -0.2075
  118OSM    C8F12435   1.299   6.585   7.448 -0.5905  0.0324  0.2073
  118OSM    H8F12436   1.199   6.537   7.457 -0.6391  0.2455  0.7983
  118OSM    H8G12437   1.300   6.659   7.365 -0.0786 -0.6355 -0.4004
  118OSM    C9F12438   1.332   6.647   7.579  0.1947 -0.1747  0.8917
  118OSM    H9F12439   1.398   6.735   7.584 -0.3380  0.3528 -0.9708
  118OSM   C10F12440   1.293   6.612   7.703 -0.4969 -0.3509  0.1825
  118OSM   H10F12441   1.334   6.677   7.782 -0.6224  2.6435 -2.1465
  118OSM   C11F12442   1.201   6.494   7.737  0.2182 -0.7241 -0.6414
  118OSM   H11F12443   1.250   6.410   7.789  1.8267 -2.4859 -4.7578
  118OSM   H11G12444   1.173   6.439   7.644 -3.7797  2.8149 -1.7082
  118OSM   C12F12445   1.078   6.547   7.822 -0.4614 -0.1171 -0.1021
  118OSM   H12F12446   1.001   6.467   7.817 -0.8071  0.1420  0.9593
  118OSM   H12G12447   1.033   6.639   7.778  0.5579  1.2643  1.6785
  118OSM   C13F12448   1.134   6.563   7.959  0.3279  0.0745 -0.0643
  118OSM   H13F12449   1.190   6.658   7.976  0.5674 -0.2370  0.9121
  118OSM   H13G12450   1.207   6.483   7.981  0.5248 -0.1919 -1.6345
  118OSM   C14F12451   1.028   6.544   8.068 -0.0419  0.6438 -0.8577
  118OSM   H14F12452   1.044   6.443   8.111  1.7628  1.5422  0.6762
  118OSM   H14G12453   0.925   6.544   8.027  0.0540  0.7003 -1.1044
  118OSM   C15F12454   1.045   6.636   8.183 -1.1600  0.1478  0.2795
  118OSM   H15F12455   1.013   6.735   8.144  0.5237  1.1624  1.4225
  118OSM   H15G12456   1.149   6.638   8.220 -0.8682 -2.9955 -0.2605
  118OSM   C16F12457   0.956   6.606   8.307 -0.0843 -0.1128  0.1803
  118OSM   H16F12458   0.847   6.593   8.292 -0.5435  1.3252  2.1448
  118OSM   H16G12459   0.963   6.700   8.365  0.3853  1.5373 -2.4456
  118OSM   C17F12460   1.004   6.490   8.396 -0.5956  0.6787 -0.2055
  118OSM   H17F12461   1.016   6.392   8.345  0.6626  0.0592  1.2443
  118OSM   H17G12462   0.921   6.473   8.468 -1.2444  1.2231 -0.8210
  118OSM   C18F12463   1.133   6.511   8.465  0.6858 -0.2436 -0.3809
  118OSM   H18F12464   1.140   6.609   8.516  2.1606 -0.8711  0.6764
  118OSM   H18G12465   1.220   6.508   8.396 -0.9095 -0.6012 -2.4062
  118OSM   H18H12466   1.145   6.428   8.539 -0.9857  2.2973  2.8387
  119OSM      N12467   3.137   5.888   6.101  0.1402 -0.5836  0.1708
  119OSM    C1512468   3.164   5.843   6.242  0.6623 -0.1620  0.4188
  119OSM   H15A12469   3.220   5.751   6.236  2.9051  0.8121  4.3715
  119OSM   H15B12470   3.068   5.825   6.289 -0.7386  4.7275 -0.3231
  119OSM   H15C12471   3.229   5.917   6.285  1.2499 -0.4554  0.0306
  119OSM    C1412472   3.267   5.920   6.034  0.5614  0.4577 -0.6077
  119OSM   H14A12473   3.260   5.943   5.928  0.0433  1.2687 -0.3912
  119OSM   H14B12474   3.319   5.825   6.037  0.4840  0.4681  1.2018
  119OSM   H14C12475   3.337   5.987   6.082  0.5346  0.3081 -0.3594
  119OSM    C1312476   3.065   5.782   6.032  0.3426 -0.1597  0.3503
  119OSM   H13A12477   3.009   5.812   5.945 -0.1963 -3.3222 -0.4901
  119OSM   H13B12478   2.993   5.741   6.101 -1.1534 -0.8356 -1.5703
  119OSM   H13C12479   3.125   5.697   6.002 -1.6447 -1.0977 -1.0887
  119OSM    C1212480   3.047   6.009   6.098  0.6792  0.1106 -0.3283
  119OSM   H12A12481   3.098   6.085   6.155  2.0836 -1.0101 -0.0616
  119OSM   H12B12482   2.953   5.984   6.144 -0.8470  2.6711 -1.9066
  119OSM    C1112483   3.010   6.060   5.949 -0.7230  0.2036 -0.0053
  119OSM   H11A12484   3.099   6.077   5.885 -0.5788 -0.8858 -0.1086
  119OSM   H11B12485   2.964   6.159   5.967  0.7156  0.8952 -0.0940
  119OSM      P12486   2.766   5.980   5.880  0.3246  0.1729 -0.2283
  119OSM    O1312487   2.737   6.095   5.801  0.0802 -0.1996 -0.8097
  119OSM    O1412488   2.713   5.849   5.847  0.1162 -0.0487  0.0331
  119OSM    O1112489   2.737   6.006   6.030 -0.3418 -0.0874 -0.3768
  119OSM    O1212490   2.924   5.975   5.881  0.0598  0.2478 -0.1105
  119OSM    C1S12491   2.707   5.889   6.112  0.6905 -0.7660  0.1578
  119OSM    H1S12492   2.787   5.814   6.128 -0.9627 -2.2090  1.8433
  119OSM    H1T12493   2.624   5.833   6.065  0.6994  0.1658 -1.0025
  119OSM     NF12494   2.665   5.809   6.347  0.0284 -0.1696 -0.2963
  119OSM    HNF12495   2.571   5.796   6.377 -0.8320  2.6953 -1.5500
  119OSM    C2S12496   2.673   5.932   6.262  0.0806  0.0428  0.9292
  119OSM    H2S12497   2.748   6.003   6.304  1.4169 -0.5093 -0.4711
  119OSM    C3S12498   2.540   6.025   6.255 -0.3557 -0.1735 -0.0127
  119OSM    H3S12499   2.457   5.960   6.222 -1.6878  1.8073 -0.6459
  119OSM     O312500   2.542   6.137   6.166  0.1650  0.9389 -0.4338
  119OSM    HO312501   2.622   6.113   6.118 -0.2280 -0.6412 -0.3245
  119OSM    C4S12502   2.508   6.061   6.394  0.4636 -0.1628 -0.0793
  119OSM    H4S12503   2.432   5.993   6.435  0.7149 -0.5334 -0.2191
  119OSM    C5S12504   2.557   6.163   6.472 -0.2956  0.6056 -0.2159
  119OSM    H5S12505   2.624   6.234   6.423  0.9232 -0.3817  0.0077
  119OSM    C6S12506   2.517   6.206   6.617 -0.3470  0.7527 -0.0432
  119OSM    H6S12507   2.477   6.308   6.602 -0.4883  0.1656 -4.2665
  119OSM    H6T12508   2.602   6.225   6.686 -1.6095  1.5099  1.3169
  119OSM    C7S12509   2.416   6.117   6.691 -0.9046 -0.6581 -0.1770
  119OSM    H7S12510   2.457   6.018   6.720 -0.1152 -0.2574  0.0771
  119OSM    H7T12511   2.328   6.094   6.626 -1.3320  1.5386 -0.4169
  119OSM    C8S12512   2.371   6.184   6.819  0.6222 -0.1482  0.3478
  119OSM    H8S12513   2.328   6.281   6.785 -0.9166 -1.1135 -0.5213
  119OSM    H8T12514   2.455   6.213   6.886  2.8054 -1.0111 -1.9162
  119OSM    C9S12515   2.273   6.093   6.897  0.0084  1.0258 -0.9740
  119OSM    H9S12516   2.327   5.997   6.902  2.1182  2.2347  0.3361
  119OSM    H9T12517   2.186   6.083   6.828  1.2825 -2.9275 -2.1217
  119OSM   C10S12518   2.236   6.162   7.032 -1.1027 -0.5168 -0.2738
  119OSM   H10S12519   2.175   6.256   7.027 -2.6817 -1.4433  1.0606
  119OSM   H10T12520   2.336   6.198   7.063 -1.5326 -0.1751  0.7497
  119OSM   C11S12521   2.180   6.067   7.133  0.8302 -0.1631 -0.3179
  119OSM   H11S12522   2.236   5.971   7.124 -0.1691 -0.6784 -1.1655
  119OSM   H11T12523   2.070   6.059   7.120  0.7288 -0.5422  0.6879
  119OSM   C12S12524   2.205   6.108   7.288 -0.2733  0.0329  0.4797
  119OSM   H12S12525   2.155   6.205   7.311  3.5069  1.7472  1.9209
  119OSM   H12T12526   2.311   6.114   7.321 -0.2651 -1.2456  0.6990
  119OSM   C13S12527   2.132   6.020   7.388 -0.5099  1.1753 -0.0622
  119OSM   H13S12528   2.168   5.915   7.387 -1.4366  0.8158  1.9790
  119OSM   H13T12529   2.023   6.019   7.368 -0.8679  1.0574  1.8444
  119OSM   C14S12530   2.161   6.071   7.534 -0.4765 -0.6152  0.2930
  119OSM   H14S12531   2.112   6.165   7.568 -0.4545 -0.6370  0.3868
  119OSM   H14T12532   2.268   6.099   7.524 -0.1474 -2.6176 -1.9752
  119OSM   C15S12533   2.127   5.977   7.642  0.1942 -0.1500  0.7223
  119OSM   H15S12534   2.160   5.873   7.622  0.4215 -0.1906  1.3164
  119OSM   H15T12535   2.018   5.955   7.650  0.3371 -1.7043 -1.1458
  119OSM   C16S12536   2.177   6.008   7.784 -0.1314  0.4852 -0.7234
  119OSM   H16S12537   2.270   6.067   7.772 -1.6644  3.1812  0.2159
  119OSM   H16T12538   2.197   5.914   7.840  1.1051  0.7723 -0.6825
  119OSM   C17S12539   2.075   6.079   7.870  0.3635  0.0911 -0.1925
  119OSM   H17S12540   1.982   6.018   7.871  0.7459 -0.5122 -1.0512
  119OSM   H17T12541   2.042   6.169   7.815  0.2097 -0.9779 -1.8710
  119OSM   C18S12542   2.123   6.119   8.010  0.0721  0.0705 -0.1014
  119OSM   H18S12543   2.185   6.038   8.055  1.9079  1.4493 -0.0584
  119OSM   H18T12544   2.034   6.143   8.072  1.2906 -0.3690  1.8545
  119OSM   H18U12545   2.192   6.207   8.005  3.0747 -2.0732  1.7509
  119OSM    C1F12546   2.773   5.737   6.365 -0.4905 -0.7645 -0.3889
  119OSM     OF12547   2.882   5.793   6.344 -0.2532  0.0453  0.5674
  119OSM    C2F12548   2.761   5.597   6.433 -0.1467  0.3297 -1.0016
  119OSM    H2F12549   2.673   5.547   6.387  0.2380 -0.1069 -1.2737
  119OSM    H2G12550   2.739   5.619   6.539 -2.6551  3.6576 -2.1363
  119OSM    C3F12551   2.883   5.510   6.418  0.1166  0.1846  0.3436
  119OSM    H3F12552   2.978   5.547   6.462  0.7748 -2.3760  1.1969
  119OSM    H3G12553   2.906   5.496   6.310  1.1245 -1.7417  0.7773
  119OSM    C4F12554   2.870   5.363   6.472  0.0026  0.5210 -0.2207
  119OSM    H4F12555   2.936   5.301   6.408  0.3828 -0.2053  0.8636
  119OSM    H4G12556   2.761   5.346   6.456 -0.0371  1.3917 -0.8602
  119OSM    C5F12557   2.933   5.315   6.611  0.1688 -0.0406 -0.3787
  119OSM    H5F12558   3.044   5.322   6.619  0.2599 -0.3692 -1.3208
  119OSM    H5G12559   2.905   5.209   6.628  3.3863 -1.6957 -4.3089
  119OSM    C6F12560   2.881   5.403   6.718 -0.0480  0.2939  0.3699
  119OSM    H6F12561   2.770   5.392   6.723 -0.0626  1.0623  2.3863
  119OSM    H6G12562   2.900   5.510   6.692 -1.3946  0.6386  0.7473
  119OSM    C7F12563   2.942   5.376   6.855 -0.5045  0.2377  0.0785
  119OSM    H7F12564   3.048   5.409   6.855 -0.3562 -0.2343  0.5342
  119OSM    H7G12565   2.948   5.266   6.865  3.3233  0.4650  1.0538
  119OSM    C8F12566   2.857   5.428   6.975  0.2534 -0.0926 -0.0428
  119OSM    H8F12567   2.889   5.373   7.066 -0.1757 -0.7999 -0.3152
  119OSM    H8G12568   2.750   5.398   6.967  0.2260  0.4260 -2.0125
  119OSM    C9F12569   2.866   5.575   7.009  0.0291  0.3315  0.4311
  119OSM    H9F12570   2.812   5.637   6.936  0.0988 -0.7714 -0.5735
  119OSM   C10F12571   2.925   5.637   7.115  0.8187  0.0748  1.3795
  119OSM   H10F12572   2.920   5.747   7.119 -1.3111  0.0195  0.6309
  119OSM   C11F12573   2.996   5.565   7.231  0.1656 -0.0063  0.4353
  119OSM   H11F12574   3.087   5.626   7.253  0.5127  0.6202 -2.4753
  119OSM   H11G12575   3.042   5.470   7.197  2.8228 -0.0950  3.9872
  119OSM   C12F12576   2.918   5.549   7.363  1.0309 -0.8586 -0.0173
  119OSM   H12F12577   2.852   5.460   7.369  1.3182 -0.9656  1.7343
  119OSM   H12G12578   2.860   5.643   7.379  1.5514 -0.7360  1.1775
  119OSM   C13F12579   3.010   5.558   7.483 -0.1608  0.6091 -0.1685
  119OSM   H13F12580   3.064   5.654   7.471  3.2531 -1.1925 -0.0457
  119OSM   H13G12581   3.097   5.489   7.492  1.3929  2.2162 -2.2475
  119OSM   C14F12582   2.925   5.561   7.612 -0.5160 -0.1870  0.1536
  119OSM   H14F12583   2.886   5.462   7.644  0.2102 -0.5713 -0.1397
  119OSM   H14G12584   2.835   5.624   7.596  0.3946  0.9673 -0.4864
  119OSM   C15F12585   3.001   5.609   7.733 -0.1904 -0.1113  0.3372
  119OSM   H15F12586   2.918   5.658   7.788  1.6452  0.9048  2.2749
  119OSM   H15G12587   3.078   5.682   7.698 -1.0071  0.1719 -0.9140
  119OSM   C16F12588   3.064   5.499   7.831  0.1744 -0.0444  0.3446
  119OSM   H16F12589   3.153   5.441   7.798  0.2250  0.1690  0.1092
  119OSM   H16G12590   2.986   5.428   7.867 -1.7159  1.2836 -1.0219
  119OSM   C17F12591   3.108   5.555   7.974 -0.0698  0.2681 -0.4965
  119OSM   H17F12592   3.192   5.626   7.959  0.6170 -0.5542 -0.5203
  119OSM   H17G12593   3.154   5.484   8.045 -4.1055 -0.8780  1.1100
  119OSM   C18F12594   3.001   5.633   8.046  0.0421  0.8310 -0.0632
  119OSM   H18F12595   3.007   5.623   8.157  2.5126 -2.2019 -0.4355
  119OSM   H18G12596   2.900   5.590   8.029 -0.5658  1.8500  0.8323
  119OSM   H18H12597   3.003   5.743   8.027 -0.3881  0.7478 -0.5913
  120OSM      N12598   6.816   4.008   6.361  0.0124 -0.4776 -0.6196
  120OSM    C1512599   6.770   3.890   6.279  0.2453 -0.1256  0.1119
  120OSM   H15A12600   6.777   3.892   6.171  5.0541 -1.0004  0.3284
  120OSM   H15B12601   6.665   3.876   6.302  0.4675  2.7460  3.1294
  120OSM   H15C12602   6.829   3.807   6.315  0.5418 -0.1988 -0.5287
  120OSM    C1412603   6.953   4.044   6.311  0.6288 -0.4140  0.3913
  120OSM   H14A12604   6.953   4.074   6.208  1.4089  1.8122  1.0001
  120OSM   H14B12605   6.991   3.943   6.310 -0.3099 -0.7602 -0.1628
  120OSM   H14C12606   7.008   4.111   6.376  1.5708 -0.6662 -0.1349
  120OSM    C1312607   6.734   4.126   6.320 -0.3760  0.5074  0.0515
  120OSM   H13A12608   6.630   4.099   6.331  0.4213 -2.5406  0.6564
  120OSM   H13B12609   6.749   4.156   6.218  1.3902 -0.8449 -0.1098
  120OSM   H13C12610   6.746   4.212   6.385 -3.2661  0.3436  0.8761
  120OSM    C1212611   6.827   3.989   6.513  0.7230 -0.1889  0.1712
  120OSM   H12A12612   6.731   3.981   6.561  0.4309  0.1544 -0.3479
  120OSM   H12B12613   6.880   4.079   6.543 -0.3461  0.0398  1.3947
  120OSM    C1112614   6.914   3.873   6.574 -0.5483 -0.8919 -0.3612
  120OSM   H11A12615   6.874   3.775   6.541 -0.5662 -0.6706 -1.0082
  120OSM   H11B12616   6.907   3.882   6.684 -0.3269  0.7153 -0.4638
  120OSM      P12617   7.117   3.742   6.476  0.1654 -0.2181 -0.6160
  120OSM    O1312618   7.051   3.716   6.347 -0.0572 -0.0605  0.1364
  120OSM    O1412619   7.264   3.752   6.469 -0.3014 -0.8550  0.5967
  120OSM    O1112620   7.074   3.634   6.585 -0.6769  0.0885 -0.0346
  120OSM    O1212621   7.050   3.877   6.528  0.2325 -0.1783  0.1306
  120OSM    C1S12622   7.128   3.624   6.717  0.0338 -0.3073 -0.0631
  120OSM    H1S12623   7.180   3.718   6.747 -1.5256  0.6581 -0.2848
  120OSM    H1T12624   7.202   3.541   6.723  1.1104  0.6920  0.8621
  120OSM     NF12625   7.104   3.572   6.947  0.2930  0.0781  0.0159
  120OSM    HNF12626   7.130   3.482   6.981  1.3841  0.0760 -0.7904
  120OSM    C2S12627   7.026   3.602   6.832  0.0138  0.0693  0.1555
  120OSM    H2S12628   6.963   3.693   6.843 -1.0367 -0.7264  0.8228
  120OSM    C3S12629   6.916   3.489   6.793 -0.3859  0.4736  0.6282
  120OSM    H3S12630   6.966   3.392   6.770  2.6054  1.9143  0.8447
  120OSM     O312631   6.845   3.529   6.669  0.1098 -0.1887 -0.0785
  120OSM    HO312632   6.904   3.588   6.622  0.6620 -1.1761 -0.6506
  120OSM    C4S12633   6.821   3.470   6.914  0.4905 -0.5182  0.0494
  120OSM    H4S12634   6.754   3.551   6.945 -0.2223 -1.1376  0.1304
  120OSM    C5S12635   6.790   3.350   6.963 -0.1916 -0.0596 -0.3923
  120OSM    H5S12636   6.847   3.263   6.926  1.2121  0.9086 -0.5215
  120OSM    C6S12637   6.689   3.315   7.072 -0.2065 -0.1159  0.3929
  120OSM    H6S12638   6.637   3.225   7.034  0.5960 -0.5425  0.2821
  120OSM    H6T12639   6.620   3.401   7.086  1.6328  1.6257 -0.9106
  120OSM    C7S12640   6.762   3.273   7.203  0.5322  0.0404 -0.7729
  120OSM    H7S12641   6.820   3.358   7.245 -0.2181  0.3402 -0.3373
  120OSM    H7T12642   6.836   3.195   7.177  0.6237 -0.2383  0.3063
  120OSM    C8S12643   6.661   3.208   7.307 -0.4079  0.7117 -0.0465
  120OSM    H8S12644   6.592   3.145   7.246 -1.4284  1.7767 -0.0071
  120OSM    H8T12645   6.597   3.288   7.349  0.5624  1.4502  0.0133
  120OSM    C9S12646   6.731   3.143   7.424  0.9391 -0.3102  0.1225
  120OSM    H9S12647   6.830   3.189   7.446  1.1437 -1.7764  2.3376
  120OSM    H9T12648   6.756   3.038   7.396  0.8713 -0.1390 -0.5994
  120OSM   C10S12649   6.656   3.142   7.560  0.3725  0.2041  1.0475
  120OSM   H10S12650   6.551   3.107   7.549  0.8647 -0.9295 -0.2047
  120OSM   H10T12651   6.656   3.245   7.601  0.6460 -0.9158  3.9624
  120OSM   C11S12652   6.719   3.045   7.661 -0.4467  0.0583 -0.5903
  120OSM   H11S12653   6.816   3.078   7.706 -0.2785 -1.4440  0.1946
  120OSM   H11T12654   6.745   2.950   7.611  1.2866  0.7069 -0.9674
  120OSM   C12S12655   6.626   3.026   7.784 -0.1623  0.2185 -0.0623
  120OSM   H12S12656   6.664   2.949   7.855  0.3235  0.7938  0.3071
  120OSM   H12T12657   6.523   3.001   7.750  0.1799 -0.7540 -0.3869
  120OSM   C13S12658   6.610   3.159   7.866  0.0150 -0.0406 -0.7760
  120OSM   H13S12659   6.516   3.132   7.919  0.8855 -2.7016 -0.5322
  120OSM   H13T12660   6.597   3.252   7.805  1.3193  0.2855 -0.5753
  120OSM   C14S12661   6.733   3.188   7.950  0.1660  0.4238 -0.6214
  120OSM   H14S12662   6.822   3.199   7.883 -0.2481  2.6916 -0.8295
  120OSM   H14T12663   6.757   3.100   8.014 -0.3244 -0.8023 -2.0722
  120OSM   C15S12664   6.730   3.321   8.034 -0.5321  0.6596 -0.3033
  120OSM   H15S12665   6.625   3.334   8.065 -0.5780  2.0506 -1.0084
  120OSM   H15T12666   6.760   3.401   7.963  1.5202  0.2560  0.0702
  120OSM   C16S12667   6.821   3.322   8.159 -0.6681  0.8702 -0.0944
  120OSM   H16S12668   6.813   3.417   8.215 -2.8192  1.3004 -1.0856
  120OSM   H16T12669   6.930   3.310   8.137 -0.4007 -1.6775  2.2958
  120OSM   C17S12670   6.769   3.210   8.258  0.3124  0.5120 -0.5006
  120OSM   H17S12671   6.794   3.113   8.210  0.2783 -0.0439  0.5870
  120OSM   H17T12672   6.659   3.206   8.272 -0.1031  1.8221 -3.1102
  120OSM   C18S12673   6.834   3.226   8.395 -0.7257 -0.1201 -0.6816
  120OSM   H18S12674   6.808   3.316   8.455 -1.9123 -0.7378 -0.2632
  120OSM   H18T12675   6.945   3.235   8.387 -0.7462  0.3928 -0.4210
  120OSM   H18U12676   6.805   3.141   8.461 -1.6923  0.4468 -0.3756
  120OSM    C1F12677   7.169   3.665   7.009  0.3015  0.1440  0.5675
  120OSM     OF12678   7.133   3.784   6.990  0.5323  0.1573  0.1568
  120OSM    C2F12679   7.283   3.628   7.096 -0.4130  0.2420  0.0354
  120OSM    H2F12680   7.368   3.685   7.053  0.8538 -2.9154 -1.8146
  120OSM    H2G12681   7.316   3.523   7.082  2.8439  1.3262 -0.9992
  120OSM    C3F12682   7.254   3.663   7.241 -0.5068  0.7139  1.0433
  120OSM    H3F12683   7.241   3.773   7.251 -1.6037  0.5571  1.4336
  120OSM    H3G12684   7.347   3.638   7.295  0.0104  0.5714  0.0938
  120OSM    C4F12685   7.155   3.582   7.326 -0.1348  0.3422  0.3215
  120OSM    H4F12686   7.049   3.593   7.295 -0.1182 -0.4294 -0.0185
  120OSM    H4G12687   7.167   3.616   7.431  0.0839  1.1610  0.0300
  120OSM    C5F12688   7.180   3.433   7.323  0.2767 -0.6030  1.1377
  120OSM    H5F12689   7.286   3.402   7.328 -0.1831 -1.9794  2.9129
  120OSM    H5G12690   7.146   3.400   7.223 -2.1562  2.0978  0.9988
  120OSM    C6F12691   7.097   3.346   7.418 -0.1946 -0.3750 -0.0186
  120OSM    H6F12692   7.122   3.238   7.413 -2.3715 -0.7975 -2.2513
  120OSM    H6G12693   6.990   3.362   7.394 -0.7227 -0.9168  1.8579
  120OSM    C7F12694   7.125   3.386   7.568 -0.6547  0.7257  0.4952
  120OSM    H7F12695   7.095   3.489   7.595  0.0063  0.2822  3.0541
  120OSM    H7G12696   7.233   3.361   7.573 -0.5760  0.9674  0.0705
  120OSM    C8F12697   7.044   3.291   7.660 -0.1551 -0.2570  0.2704
  120OSM    H8F12698   7.070   3.185   7.638 -2.7407 -1.0949  1.0385
  120OSM    H8G12699   6.937   3.314   7.642 -0.1166  0.4232  0.8984
  120OSM    C9F12700   7.075   3.335   7.797  0.4591 -0.3704 -0.1778
  120OSM    H9F12701   7.037   3.435   7.822  0.7147  0.1771 -1.8994
  120OSM   C10F12702   7.136   3.259   7.898 -0.4832 -0.0834  0.5059
  120OSM   H10F12703   7.150   3.306   7.996 -2.2658  0.0562  0.7042
  120OSM   C11F12704   7.188   3.115   7.889 -0.2473 -0.0324  0.6391
  120OSM   H11F12705   7.298   3.109   7.877 -0.5372 -2.2735 -1.3621
  120OSM   H11G12706   7.128   3.062   7.811  1.5220 -0.4934 -0.4394
  120OSM   C12F12707   7.148   3.035   8.021  1.3166  0.0457 -0.5351
  120OSM   H12F12708   7.179   2.928   8.014 -1.4767 -0.9441  1.3519
  120OSM   H12G12709   7.038   3.033   8.036  0.9325  2.9429 -2.5916
  120OSM   C13F12710   7.200   3.094   8.149 -0.4395 -0.3832  0.1008
  120OSM   H13F12711   7.166   3.199   8.159  1.2731  0.2557 -0.5036
  120OSM   H13G12712   7.311   3.100   8.144 -0.4740  0.6340  0.5051
  120OSM   C14F12713   7.166   3.009   8.269 -0.0084 -0.5058 -0.1202
  120OSM   H14F12714   7.203   2.906   8.247 -0.1695 -0.2998 -1.4097
  120OSM   H14G12715   7.056   3.022   8.262  0.1115  2.3865  2.4658
  120OSM   C15F12716   7.212   3.066   8.402 -0.0066 -0.4493  0.4631
  120OSM   H15F12717   7.211   3.175   8.380  0.7516 -0.3641  0.8409
  120OSM   H15G12718   7.316   3.032   8.419  0.0638 -0.7410 -0.5278
  120OSM   C16F12719   7.116   3.037   8.518 -0.1882 -0.7890 -1.1023
  120OSM   H16F12720   7.020   3.093   8.519  0.4506  0.3123 -0.8144
  120OSM   H16G12721   7.154   3.091   8.607 -0.6834 -1.1176 -0.6853
  120OSM   C17F12722   7.095   2.896   8.565 -0.0867  0.4102 -0.5095
  120OSM   H17F12723   7.194   2.853   8.592  0.2354  1.1261 -0.5466
  120OSM   H17G12724   7.040   2.838   8.488 -0.6882  2.0056 -1.2906
  120OSM   C18F12725   6.995   2.890   8.678  0.5937 -0.0610  0.1317
  120OSM   H18F12726   7.018   2.971   8.751 -1.7754  0.6862  0.0780
  120OSM   H18G12727   7.004   2.790   8.725 -0.0971  0.2955  1.0369
  120OSM   H18H12728   6.893   2.908   8.638  1.9912  0.3239 -3.4269
  121OSM      N12729   1.599   5.160   6.035  0.6221  0.4592  0.7343
  121OSM    C1512730   1.639   5.012   6.038  0.8095 -0.1955  0.0031
  121OSM   H15A12731   1.574   4.965   6.110 -1.3062  2.1182 -0.3128
  121OSM   H15B12732   1.744   4.999   6.059  1.3252 -0.0167 -2.3783
  121OSM   H15C12733   1.632   4.969   5.940 -1.9792  0.1362  0.0323
  121OSM    C1412734   1.687   5.237   5.940 -0.5657  0.3206  0.3228
  121OSM   H14A12735   1.656   5.340   5.940  0.8054  0.7462  0.8374
  121OSM   H14B12736   1.681   5.201   5.839 -1.4049 -0.8338  0.7820
  121OSM   H14C12737   1.784   5.238   5.989 -0.6625 -0.7225  0.5416
  121OSM    C1312738   1.463   5.181   5.983  0.1373 -0.4689  0.0860
  121OSM   H13A12739   1.449   5.286   5.964 -1.2513 -0.4469  1.1518
  121OSM   H13B12740   1.393   5.142   6.056  1.9332 -1.6172  1.2439
  121OSM   H13C12741   1.447   5.121   5.894 -0.5017  0.3906 -0.3848
  121OSM    C1212742   1.607   5.215   6.170 -0.2550  0.2939  0.2525
  121OSM   H12A12743   1.544   5.161   6.240 -1.5537 -0.6872 -1.6296
  121OSM   H12B12744   1.581   5.320   6.171 -2.3377 -0.1806 -0.4503
  121OSM    C1112745   1.744   5.218   6.241  0.1154 -0.3567  0.2537
  121OSM   H11A12746   1.790   5.116   6.242 -1.1607 -0.9478 -0.5768
  121OSM   H11B12747   1.714   5.234   6.347  0.4533  1.2626  0.1176
  121OSM      P12748   1.828   5.452   6.206  0.0176 -0.0920 -0.2704
  121OSM    O1312749   1.907   5.520   6.094 -0.2950  0.5065 -0.3680
  121OSM    O1412750   1.688   5.495   6.243  0.3219 -0.6335 -0.2349
  121OSM    O1112751   1.914   5.492   6.327  0.2125  0.1072  0.2242
  121OSM    O1212752   1.840   5.301   6.184  0.0633  0.8526 -0.3483
  121OSM    C1S12753   1.980   5.393   6.407  0.2912 -0.4650  0.0716
  121OSM    H1S12754   2.066   5.344   6.358  1.2720  3.7051 -2.5216
  121OSM    H1T12755   1.913   5.308   6.434  1.5642 -1.3792  0.3861
  121OSM     NF12756   2.057   5.335   6.628  0.0753  0.3040 -0.2011
  121OSM    HNF12757   1.980   5.288   6.670  1.3505 -1.3615  0.3079
  121OSM    C2S12758   2.016   5.446   6.546  0.7588  0.9013 -0.0176
  121OSM    H2S12759   2.109   5.507   6.534  1.2669  0.1418  0.0559
  121OSM    C3S12760   1.896   5.533   6.613  1.1477 -0.1917 -0.2325
  121OSM    H3S12761   1.815   5.458   6.615  0.4263  0.5943  0.2056
  121OSM     O312762   1.839   5.634   6.535  0.6516 -0.0811 -0.0972
  121OSM    HO312763   1.880   5.611   6.451  2.3374 -0.4511  0.8008
  121OSM    C4S12764   1.923   5.582   6.748 -0.5636  1.0688 -0.2937
  121OSM    H4S12765   1.860   5.531   6.822 -0.7990  1.4851 -0.2059
  121OSM    C5S12766   1.988   5.692   6.787 -0.2126  0.5833 -0.1120
  121OSM    H5S12767   2.031   5.752   6.706 -0.9308 -0.0909 -0.9929
  121OSM    C6S12768   1.987   5.743   6.935  0.2382 -0.5987  0.6279
  121OSM    H6S12769   1.926   5.836   6.928  1.1312  0.0210  0.9690
  121OSM    H6T12770   2.091   5.763   6.968 -0.7172  2.0046  2.2005
  121OSM    C7S12771   1.933   5.654   7.046  0.0568  0.3390 -0.2286
  121OSM    H7S12772   1.972   5.551   7.039 -0.4747  0.2495 -1.9772
  121OSM    H7T12773   1.822   5.647   7.047  0.0263  0.4869 -1.4170
  121OSM    C8S12774   1.949   5.720   7.188  0.1249  0.5316  0.1925
  121OSM    H8S12775   1.881   5.807   7.180 -1.4528 -0.9225 -3.2817
  121OSM    H8T12776   2.054   5.755   7.192 -0.3016  1.5811  3.1977
  121OSM    C9S12777   1.913   5.620   7.297  0.3485  0.5437  0.1523
  121OSM    H9S12778   1.969   5.525   7.283  2.4387  1.7710 -0.0019
  121OSM    H9T12779   1.804   5.597   7.290  0.1377  2.2655 -3.0111
  121OSM   C10S12780   1.939   5.673   7.439  0.5392  0.3949  0.1870
  121OSM   H10S12781   1.870   5.760   7.451  0.5277  0.3363  0.5364
  121OSM   H10T12782   2.043   5.711   7.454  0.6795 -0.6805  2.0694
  121OSM   C11S12783   1.910   5.579   7.553 -0.1485 -0.5066  0.3941
  121OSM   H11S12784   1.958   5.483   7.522  3.8698  1.1179  1.2534
  121OSM   H11T12785   1.803   5.561   7.573 -0.6120  2.7901  1.1380
  121OSM   C12S12786   1.973   5.630   7.683 -0.2094  0.0856 -0.6596
  121OSM   H12S12787   1.921   5.727   7.700 -1.2715 -0.8552  1.6551
  121OSM   H12T12788   2.081   5.650   7.666  0.4597 -1.7520  1.2236
  121OSM   C13S12789   1.990   5.532   7.797 -0.3020 -0.0997 -0.5055
  121OSM   H13S12790   1.999   5.426   7.765 -2.0865 -0.5444  0.3998
  121OSM   H13T12791   1.891   5.533   7.849 -1.0956  1.4791 -1.9787
  121OSM   C14S12792   2.102   5.564   7.891  0.3147 -0.4872 -0.2349
  121OSM   H14S12793   2.131   5.671   7.879  1.1992 -0.7243 -0.2571
  121OSM   H14T12794   2.194   5.503   7.880  1.0416  0.7145 -0.8260
  121OSM   C15S12795   2.062   5.542   8.044  0.2520 -0.3948  0.0620
  121OSM   H15S12796   2.014   5.442   8.051  1.3959 -0.7882  2.9802
  121OSM   H15T12797   1.982   5.618   8.056  0.0012 -0.7441  0.6520
  121OSM   C16S12798   2.182   5.544   8.138  0.2176  0.3607  0.7825
  121OSM   H16S12799   2.205   5.648   8.168  3.2917  0.7449 -2.5545
  121OSM   H16T12800   2.273   5.489   8.103  0.5723  1.1489  0.4650
  121OSM   C17S12801   2.127   5.494   8.274 -0.8964 -0.8005  0.4931
  121OSM   H17S12802   2.089   5.390   8.267 -1.3138 -0.7110  1.3894
  121OSM   H17T12803   2.037   5.556   8.295 -0.8863 -0.7604  0.4195
  121OSM   C18S12804   2.216   5.519   8.400  0.1339  0.1777 -0.3796
  121OSM   H18S12805   2.160   5.496   8.493 -0.8417  1.2082 -0.7003
  121OSM   H18T12806   2.233   5.628   8.415 -0.6687  0.0751  1.4393
  121OSM   H18U12807   2.315   5.467   8.395 -0.4654 -1.0960  0.5346
  121OSM    C1F12808   2.173   5.267   6.609  0.4589 -0.1412 -0.0260
  121OSM     OF12809   2.247   5.300   6.518  0.2394 -0.2785 -0.0833
  121OSM    C2F12810   2.193   5.144   6.681  0.2898 -0.1012  0.6549
  121OSM    H2F12811   2.250   5.073   6.618 -1.2818 -2.9573  2.3180
  121OSM    H2G12812   2.094   5.092   6.686  0.4161 -0.3120  0.9979
  121OSM    C3F12813   2.249   5.153   6.822 -0.1699 -0.6684  0.3712
  121OSM    H3F12814   2.352   5.194   6.809 -0.4361 -0.5828 -1.4701
  121OSM    H3G12815   2.264   5.048   6.857  2.4198  0.0504  1.5964
  121OSM    C4F12816   2.162   5.236   6.920  0.0048 -0.0608  0.4295
  121OSM    H4F12817   2.057   5.201   6.919  0.2189 -0.7587 -2.3352
  121OSM    H4G12818   2.151   5.340   6.885 -0.3090 -0.1549  0.2471
  121OSM    C5F12819   2.229   5.245   7.059  0.3929  0.9117  0.4926
  121OSM    H5F12820   2.326   5.296   7.042  0.1367  1.0929 -0.4857
  121OSM    H5G12821   2.259   5.143   7.091  1.6028  0.6862 -1.2439
  121OSM    C6F12822   2.150   5.327   7.162  0.1666 -0.3240 -0.6392
  121OSM    H6F12823   2.046   5.289   7.161  0.2847 -0.6191 -2.3260
  121OSM    H6G12824   2.149   5.431   7.123 -0.9317  0.1942  0.7170
  121OSM    C7F12825   2.189   5.319   7.304  0.0728 -0.2847 -0.3053
  121OSM    H7F12826   2.129   5.388   7.368  0.8117  0.4836 -0.4283
  121OSM    H7G12827   2.294   5.355   7.309 -1.0522  3.3957 -1.6466
  121OSM    C8F12828   2.184   5.177   7.367 -0.0127 -0.2670  0.1296
  121OSM    H8F12829   2.253   5.170   7.455  0.5297  2.6721 -0.0223
  121OSM    H8G12830   2.210   5.097   7.295  0.4271 -0.3734  0.3984
  121OSM    C9F12831   2.035   5.161   7.409 -0.7525  0.2387 -0.7753
  121OSM    H9F12832   1.956   5.152   7.334 -0.0112 -2.8912 -1.2506
  121OSM   C10F12833   2.005   5.150   7.545 -0.4060  0.0086  0.8320
  121OSM   H10F12834   1.904   5.115   7.570 -0.4522 -0.5182 -0.0772
  121OSM   C11F12835   2.098   5.160   7.659 -0.5100 -0.0722  0.3608
  121OSM   H11F12836   2.039   5.206   7.742 -2.6806 -1.2702 -0.4945
  121OSM   H11G12837   2.182   5.231   7.643  0.6487 -1.7916 -1.4659
  121OSM   C12F12838   2.157   5.025   7.702  0.6372 -0.5032  0.7333
  121OSM   H12F12839   2.250   5.006   7.644 -1.1259 -0.1886 -2.3434
  121OSM   H12G12840   2.075   4.952   7.683 -2.1212  2.5991  0.2209
  121OSM   C13F12841   2.176   5.010   7.854 -0.0610  0.4146 -0.5410
  121OSM   H13F12842   2.214   4.907   7.871 -0.0331  0.6309  0.7427
  121OSM   H13G12843   2.073   5.029   7.892 -0.2599  0.0083 -0.8640
  121OSM   C14F12844   2.277   5.109   7.908 -0.4085  0.1497 -0.3320
  121OSM   H14F12845   2.240   5.213   7.902  0.4207  0.4147 -0.9411
  121OSM   H14G12846   2.372   5.094   7.852 -0.0010  2.3699 -0.2909
  121OSM   C15F12847   2.310   5.072   8.055  0.2390  0.0752 -0.3038
  121OSM   H15F12848   2.413   5.106   8.080  0.1375 -0.7684  1.3548
  121OSM   H15G12849   2.316   4.962   8.069 -0.6358 -0.5249 -4.1897
  121OSM   C16F12850   2.208   5.128   8.154 -0.3332 -0.0160 -0.0846
  121OSM   H16F12851   2.113   5.072   8.159 -0.8623  0.9521  0.9336
  121OSM   H16G12852   2.188   5.233   8.123  3.3467  0.7656 -0.0178
  121OSM   C17F12853   2.276   5.129   8.295 -0.7810 -0.5267  0.4972
  121OSM   H17F12854   2.215   5.200   8.355 -1.2041  0.7686 -1.4278
  121OSM   H17G12855   2.374   5.180   8.282 -0.4308 -0.6289  2.6022
  121OSM   C18F12856   2.301   4.990   8.355  0.1603 -0.1878  0.5824
  121OSM   H18F12857   2.355   5.000   8.452  3.0597  4.1649 -1.3416
  121OSM   H18G12858   2.368   4.924   8.296 -0.8267  0.7884 -1.6992
  121OSM   H18H12859   2.202   4.939   8.365 -1.0743  1.8172 -0.8895
  122OSM      N12860   1.561   0.475   5.919 -0.5371 -0.3436 -0.0423
  122OSM    C1512861   1.462   0.421   5.824 -0.0359 -0.1828 -0.5484
  122OSM   H15A12862   1.495   0.319   5.811 -0.0913 -0.3185  0.3855
  122OSM   H15B12863   1.471   0.473   5.729 -2.1506 -1.3845 -1.4308
  122OSM   H15C12864   1.362   0.425   5.864  1.0429  3.5528  1.9796
  122OSM    C1412865   1.538   0.422   6.058  0.2918 -0.2061  0.1171
  122OSM   H14A12866   1.605   0.455   6.136 -0.4834 -0.0363  0.7102
  122OSM   H14B12867   1.543   0.314   6.054  0.4775 -0.1353 -2.9835
  122OSM   H14C12868   1.442   0.461   6.086 -0.4581 -1.6608 -0.4021
  122OSM    C1312869   1.697   0.437   5.878 -0.0593 -1.0571 -0.5163
  122OSM   H13A12870   1.729   0.493   5.792 -2.0577 -0.3859 -0.8549
  122OSM   H13B12871   1.697   0.332   5.854  0.2346 -0.6819 -2.1644
  122OSM   H13C12872   1.775   0.448   5.952  0.2289 -1.6188 -0.7313
  122OSM    C1212873   1.544   0.625   5.917  0.2036 -0.0845  1.1256
  122OSM   H12A12874   1.567   0.655   5.816 -0.0694  0.8283  1.3263
  122OSM   H12B12875   1.612   0.675   5.984 -0.7069  3.7573 -0.6911
  122OSM    C1112876   1.406   0.680   5.961 -0.1155 -0.8511  0.6174
  122OSM   H11A12877   1.384   0.649   6.065 -1.0920  1.6190  1.1911
  122OSM   H11B12878   1.323   0.638   5.900 -0.8654  1.7160 -0.2036
  122OSM      P12879   1.501   0.917   6.048  0.0435 -0.3579 -0.0676
  122OSM    O1312880   1.637   0.878   6.015  0.4671 -0.1747  0.2599
  122OSM    O1412881   1.461   1.058   6.020  0.7203  0.4197  0.5875
  122OSM    O1112882   1.454   0.878   6.197 -0.0583 -0.1185  0.0329
  122OSM    O1212883   1.407   0.822   5.959  0.1374  0.0326 -0.6557
  122OSM    C1S12884   1.488   0.973   6.306 -0.4269  0.3044  1.0531
  122OSM    H1S12885   1.446   1.075   6.291  1.2258  0.6758 -1.5225
  122OSM    H1T12886   1.598   0.991   6.308 -0.2319 -0.4368 -0.9678
  122OSM     NF12887   1.527   1.012   6.544 -0.1543  0.0250  0.0553
  122OSM    HNF12888   1.601   0.968   6.594 -1.3771 -0.1226  1.7809
  122OSM    C2S12889   1.455   0.921   6.447  0.1709 -0.2231 -0.4783
  122OSM    H2S12890   1.346   0.943   6.451 -0.1792 -1.9056 -0.7033
  122OSM    C3S12891   1.487   0.768   6.473 -0.2738 -0.0035  0.1069
  122OSM    H3S12892   1.595   0.750   6.492  0.0756  0.5021 -1.3042
  122OSM     O312893   1.459   0.683   6.360  0.4058  0.0669 -0.4195
  122OSM    HO312894   1.438   0.742   6.287  0.9950  2.0681  0.9900
  122OSM    C4S12895   1.424   0.709   6.599  0.6067  0.1552 -0.1167
  122OSM    H4S12896   1.504   0.706   6.674  1.6803 -1.0954 -1.3107
  122OSM    C5S12897   1.296   0.678   6.633  0.1714 -0.1520  0.5147
  122OSM    H5S12898   1.215   0.713   6.568  0.4708  1.0552  0.7781
  122OSM    C6S12899   1.245   0.634   6.762  0.0554 -0.1220 -0.0456
  122OSM    H6S12900   1.261   0.525   6.776  0.8334 -0.1811 -1.3772
  122OSM    H6T12901   1.135   0.645   6.773 -0.1011  0.4733 -2.1186
  122OSM    C7S12902   1.309   0.708   6.883 -0.8717  0.6995  0.3099
  122OSM    H7S12903   1.312   0.816   6.858 -0.1689  0.5863 -0.1077
  122OSM    H7T12904   1.411   0.664   6.882 -0.7783  0.9129  0.4203
  122OSM    C8S12905   1.247   0.688   7.019  0.0801  0.0649  0.5969
  122OSM    H8S12906   1.218   0.581   7.028 -0.0205 -0.1085 -1.5150
  122OSM    H8T12907   1.154   0.749   7.017  0.3039  0.3920  0.1396
  122OSM    C9S12908   1.331   0.752   7.127  1.3998 -0.2989  0.3391
  122OSM    H9S12909   1.371   0.845   7.082  0.3553 -0.5859 -1.2123
  122OSM    H9T12910   1.421   0.691   7.149  1.3929 -0.5585 -0.3578
  122OSM   C10S12911   1.249   0.778   7.248  0.0545 -1.0458  0.0327
  122OSM   H10S12912   1.217   0.676   7.277  2.7326 -2.1051 -0.5268
  122OSM   H10T12913   1.152   0.830   7.233  0.4007 -1.0938 -2.6352
  122OSM   C11S12914   1.331   0.829   7.364  0.2770 -0.4970 -0.4547
  122OSM   H11S12915   1.373   0.929   7.338  0.2571 -0.9563 -2.2722
  122OSM   H11T12916   1.415   0.759   7.381  1.3486  1.1114  1.0867
  122OSM   C12S12917   1.237   0.837   7.489  0.1626  0.4346 -0.3589
  122OSM   H12S12918   1.171   0.748   7.484 -0.4409  0.9559 -1.6755
  122OSM   H12T12919   1.174   0.928   7.484 -0.4658  0.0096 -0.2778
  122OSM   C13S12920   1.325   0.854   7.618  0.0728  0.2990 -0.0733
  122OSM   H13S12921   1.379   0.952   7.625 -2.8968  2.2425 -2.6873
  122OSM   H13T12922   1.409   0.781   7.615 -0.3164 -0.1329 -0.4055
  122OSM   C14S12923   1.255   0.820   7.752 -0.0848 -0.3281  0.1949
  122OSM   H14S12924   1.246   0.709   7.760 -0.5343 -0.3448 -0.5271
  122OSM   H14T12925   1.148   0.849   7.747 -0.4382 -1.5396  0.5396
  122OSM   C15S12926   1.319   0.874   7.883  0.9146 -0.0838  0.1624
  122OSM   H15S12927   1.335   0.983   7.870  1.0274  0.0611  1.4483
  122OSM   H15T12928   1.421   0.837   7.906  1.9008  2.2977 -0.2048
  122OSM   C16S12929   1.231   0.851   7.999  0.3491 -0.5637  0.8645
  122OSM   H16S12930   1.207   0.742   8.004 -0.0287 -0.4023  2.9264
  122OSM   H16T12931   1.136   0.908   7.997  1.4277  1.2540  0.6474
  122OSM   C17S12932   1.302   0.884   8.137 -0.6796 -0.2359 -0.5857
  122OSM   H17S12933   1.357   0.978   8.121 -1.1151  0.0474 -0.4402
  122OSM   H17T12934   1.378   0.806   8.160 -0.2940  0.4153  0.3629
  122OSM   C18S12935   1.214   0.902   8.259 -0.0828 -0.3401 -0.1349
  122OSM   H18S12936   1.129   0.972   8.241 -1.3199 -2.0704 -1.1681
  122OSM   H18T12937   1.279   0.948   8.337  0.6355  2.3930 -2.2295
  122OSM   H18U12938   1.180   0.803   8.296  1.1355 -0.7335 -0.0747
  122OSM    C1F12939   1.505   1.142   6.549 -0.8141 -0.1152 -0.0021
  122OSM     OF12940   1.403   1.193   6.494  0.5007  0.2236  0.7107
  122OSM    C2F12941   1.607   1.228   6.624  0.0961  1.2895  0.2910
  122OSM    H2F12942   1.632   1.300   6.543 -0.7376 -0.3348 -1.4379
  122OSM    H2G12943   1.691   1.159   6.648 -0.4559 -0.1084 -1.7278
  122OSM    C3F12944   1.541   1.294   6.741 -0.2880 -0.2423 -0.6008
  122OSM    H3F12945   1.445   1.333   6.699  0.4299  0.3966 -1.6789
  122OSM    H3G12946   1.596   1.385   6.774 -0.4254 -0.7585  1.0789
  122OSM    C4F12947   1.532   1.195   6.862 -0.3720 -0.4934  0.0507
  122OSM    H4F12948   1.476   1.104   6.831 -2.4279  0.7998 -0.1048
  122OSM    H4G12949   1.479   1.251   6.942  0.2671  0.1317  0.0480
  122OSM    C5F12950   1.666   1.173   6.918  0.2961  0.3633 -0.2936
  122OSM    H5F12951   1.708   1.275   6.933 -0.1299  0.9787 -2.9786
  122OSM    H5G12952   1.728   1.122   6.841  0.8139  0.4138  0.0797
  122OSM    C6F12953   1.688   1.086   7.043  0.7348 -0.1956 -0.3817
  122OSM    H6F12954   1.797   1.087   7.067  0.4521  2.3653  0.9156
  122OSM    H6G12955   1.661   0.981   7.018 -2.5724  0.5071 -0.0308
  122OSM    C7F12956   1.600   1.124   7.161 -0.2393  0.5061 -0.8164
  122OSM    H7F12957   1.490   1.109   7.151 -0.3290  0.2481  0.4891
  122OSM    H7G12958   1.624   1.231   7.179  0.5826  0.0906  0.7116
  122OSM    C8F12959   1.650   1.036   7.284  0.3575  0.5664  0.3563
  122OSM    H8F12960   1.654   0.935   7.239  1.5203  1.8852 -2.6232
  122OSM    H8G12961   1.567   1.032   7.358 -0.2898 -0.1510 -0.3961
  122OSM    C9F12962   1.777   1.089   7.354  0.0622 -0.6318  0.9746
  122OSM    H9F12963   1.869   1.043   7.316 -0.9876 -0.7542 -1.5141
  122OSM   C10F12964   1.778   1.159   7.459 -0.6027  0.5029 -0.3577
  122OSM   H10F12965   1.874   1.206   7.485  1.4224 -3.6656 -0.0124
  122OSM   C11F12966   1.663   1.226   7.530  0.4495 -0.5449  0.5921
  122OSM   H11F12967   1.573   1.204   7.470  1.0917 -0.0270 -0.5790
  122OSM   H11G12968   1.679   1.336   7.535  0.1648 -0.4940  0.3571
  122OSM   C12F12969   1.633   1.188   7.682  0.2112  0.3682  0.2966
  122OSM   H12F12970   1.622   1.078   7.678 -0.7841  0.5056 -1.3158
  122OSM   H12G12971   1.533   1.230   7.707 -0.8076 -1.5040 -0.5210
  122OSM   C13F12972   1.750   1.241   7.771  0.5023  0.1537  0.7010
  122OSM   H13F12973   1.748   1.352   7.770  0.0655  0.1755 -2.2914
  122OSM   H13G12974   1.843   1.194   7.732 -1.5441 -2.1809 -1.5662
  122OSM   C14F12975   1.744   1.178   7.914 -0.1434  0.2033  0.4316
  122OSM   H14F12976   1.833   1.214   7.970  1.5282 -1.0078 -1.3757
  122OSM   H14G12977   1.757   1.068   7.906 -4.1172 -0.2217 -1.0517
  122OSM   C15F12978   1.616   1.210   8.001 -0.4324  0.0911  0.2300
  122OSM   H15F12979   1.530   1.142   7.987 -1.7269  1.8027 -0.3132
  122OSM   H15G12980   1.574   1.303   7.956  2.4950  0.2850 -2.3340
  122OSM   C16F12981   1.647   1.223   8.151 -0.2200  0.3956  0.0274
  122OSM   H16F12982   1.695   1.322   8.168  0.7622 -0.4738  2.4830
  122OSM   H16G12983   1.732   1.156   8.178  1.0617  1.4433 -1.3369
  122OSM   C17F12984   1.530   1.209   8.248 -0.0255  0.3756  0.4737
  122OSM   H17F12985   1.488   1.108   8.267 -0.1634 -0.2228 -2.6846
  122OSM   H17G12986   1.445   1.255   8.193  0.9145 -1.8179 -2.9720
  122OSM   C18F12987   1.533   1.277   8.386 -0.1487  1.3398  0.3510
  122OSM   H18F12988   1.432   1.277   8.432  0.1018  1.0193  0.8959
  122OSM   H18G12989   1.573   1.379   8.363  0.2132  0.8922 -1.0585
  122OSM   H18H12990   1.599   1.217   8.451 -0.8744 -1.2043 -1.1888
  123OSM      N12991   5.358   3.564   6.085  0.2138  0.0261 -0.5466
  123OSM    C1512992   5.506   3.590   6.063 -0.0210 -0.2179 -0.7872
  123OSM   H15A12993   5.563   3.502   6.087 -2.1467 -1.4099  0.1045
  123OSM   H15B12994   5.530   3.671   6.131  0.9188 -0.6291 -0.6266
  123OSM   H15C12995   5.518   3.641   5.969  0.0781  0.8565 -0.2033
  123OSM    C1412996   5.281   3.699   6.082 -0.7200  0.5890 -0.5209
  123OSM   H14A12997   5.297   3.744   5.984  0.9852  3.1733  0.8745
  123OSM   H14B12998   5.328   3.755   6.161 -1.3394  1.6626 -0.9064
  123OSM   H14C12999   5.180   3.681   6.115 -1.5835 -1.0270 -3.8138
  123OSM    C1313000   5.299   3.471   5.990  0.7087  0.0575 -0.5830
  123OSM   H13A13001   5.360   3.384   6.011 -2.1408 -1.8325  0.1455
  123OSM   H13B13002   5.304   3.503   5.887  0.4799 -1.2810 -1.0196
  123OSM   H13C13003   5.197   3.446   6.018  0.9560 -1.4652 -1.0010
  123OSM    C1213004   5.352   3.507   6.226 -0.1399  0.1067  0.2360
  123OSM   H12A13005   5.249   3.488   6.254  0.2632 -1.3485  0.7472
  123OSM   H12B13006   5.389   3.583   6.294  0.9290  0.8595 -1.1729
  123OSM    C1113007   5.421   3.366   6.253 -0.0374 -0.1588 -0.0762
  123OSM   H11A13008   5.382   3.296   6.175  0.1124  0.0451 -0.3340
  123OSM   H11B13009   5.397   3.308   6.345 -1.6703  1.2273  0.3912
  123OSM      P13010   5.643   3.421   6.373  0.1320 -0.2818 -0.4977
  123OSM    O1313011   5.787   3.441   6.335  0.3965 -0.1354 -0.8966
  123OSM    O1413012   5.579   3.536   6.445  0.5053 -0.3032 -0.3089
  123OSM    O1113013   5.630   3.286   6.457  0.1012 -0.2506  0.6041
  123OSM    O1213014   5.561   3.377   6.243  0.4125  0.1946 -0.5279
  123OSM    C1S13015   5.728   3.253   6.554  0.1117  0.4511 -0.6622
  123OSM    H1S13016   5.818   3.316   6.541  0.6348  0.4406  2.6025
  123OSM    H1T13017   5.763   3.148   6.559  0.6711  0.6238 -0.9621
  123OSM     NF13018   5.778   3.286   6.798  0.2262  0.3593  0.3313
  123OSM    HNF13019   5.785   3.206   6.856  2.4030  0.5163  0.3322
  123OSM    C2S13020   5.675   3.285   6.701  0.0886  0.1927 -0.1583
  123OSM    H2S13021   5.624   3.384   6.699 -1.4475 -0.5407  1.4329
  123OSM    C3S13022   5.567   3.178   6.735 -0.2796  0.3146 -0.1310
  123OSM    H3S13023   5.612   3.078   6.750  2.4070  1.1580 -2.0507
  123OSM     O313024   5.482   3.145   6.626 -0.2296  0.3385  0.0912
  123OSM    HO313025   5.522   3.186   6.548 -0.5640 -0.6774 -0.6295
  123OSM    C4S13026   5.488   3.212   6.857  0.2990 -0.9320  0.9628
  123OSM    H4S13027   5.402   3.278   6.841  0.1778 -0.5611  3.0176
  123OSM    C5S13028   5.512   3.156   6.973 -0.5226 -0.0937  0.2219
  123OSM    H5S13029   5.596   3.087   6.991 -0.8875 -0.8607 -0.9432
  123OSM    C6S13030   5.418   3.171   7.093  0.6689  0.3697 -0.2828
  123OSM    H6S13031   5.356   3.079   7.091  1.7016 -0.3294 -1.1373
  123OSM    H6T13032   5.341   3.249   7.080 -0.8187 -0.5540  2.4893
  123OSM    C7S13033   5.481   3.186   7.237  0.4023 -0.8223  0.2166
  123OSM    H7S13034   5.545   3.277   7.242 -1.2153  0.3704 -0.5114
  123OSM    H7T13035   5.552   3.103   7.253  1.9663  0.5901  0.8135
  123OSM    C8S13036   5.370   3.175   7.342 -0.1382  0.2324  0.6769
  123OSM    H8S13037   5.303   3.087   7.333 -0.3527  0.2335  2.0864
  123OSM    H8T13038   5.305   3.265   7.345  2.8235  2.4314  0.6971
  123OSM    C9S13039   5.441   3.172   7.477 -0.2315  0.0110  0.4931
  123OSM    H9S13040   5.499   3.267   7.485 -1.9666  1.0428  0.9641
  123OSM    H9T13041   5.506   3.083   7.493 -1.5621 -1.4621 -1.9141
  123OSM   C10S13042   5.339   3.165   7.594 -1.3404 -0.3615 -0.0075
  123OSM   H10S13043   5.268   3.079   7.588 -0.5715 -1.0364  0.5827
  123OSM   H10T13044   5.271   3.253   7.584  0.6011  1.1839  0.1941
  123OSM   C11S13045   5.411   3.178   7.731  1.1720  0.4129  0.7081
  123OSM   H11S13046   5.475   3.268   7.739 -0.3646  1.5825  0.1367
  123OSM   H11T13047   5.477   3.090   7.724  0.8073  0.1957  0.0199
  123OSM   C12S13048   5.337   3.153   7.871 -0.9270  0.3946 -0.0007
  123OSM   H12S13049   5.247   3.217   7.880 -0.0097  1.7977 -0.6599
  123OSM   H12T13050   5.403   3.176   7.957 -0.3378  0.2603 -0.4117
  123OSM   C13S13051   5.290   3.010   7.887  0.3419 -0.7312  1.0678
  123OSM   H13S13052   5.375   2.941   7.866 -0.8983 -2.2435  0.9684
  123OSM   H13T13053   5.212   3.009   7.808 -0.9834  1.4580  2.2952
  123OSM   C14S13054   5.238   2.970   8.024 -0.2201 -0.4121 -0.2115
  123OSM   H14S13055   5.169   2.884   8.013 -0.8190  0.4986 -4.1949
  123OSM   H14T13056   5.173   3.048   8.070 -1.4475 -1.5648  0.0135
  123OSM   C15S13057   5.339   2.910   8.121 -0.3235 -0.1453  0.1117
  123OSM   H15S13058   5.389   2.818   8.084  1.1779  0.1842  1.2652
  123OSM   H15T13059   5.289   2.883   8.217 -1.4595 -1.6724 -0.8814
  123OSM   C16S13060   5.451   3.005   8.155  0.7294 -0.9011  0.0455
  123OSM   H16S13061   5.416   3.110   8.168  2.0942 -0.3172 -0.9315
  123OSM   H16T13062   5.527   2.997   8.075  1.3970  2.4604  0.2686
  123OSM   C17S13063   5.520   2.979   8.291  0.2563  0.2360  0.6835
  123OSM   H17S13064   5.445   2.987   8.372 -0.4233 -0.3111  0.1250
  123OSM   H17T13065   5.601   3.055   8.295 -0.2463  0.7070  1.8162
  123OSM   C18S13066   5.582   2.845   8.321 -0.4376  0.4408 -0.2304
  123OSM   H18S13067   5.659   2.821   8.244 -1.1238  1.2172 -1.1839
  123OSM   H18T13068   5.499   2.771   8.321  0.6650 -0.8231  1.1381
  123OSM   H18U13069   5.636   2.832   8.417 -0.6670 -1.0044 -0.2765
  123OSM    C1F13070   5.866   3.386   6.808  0.0065 -0.0489 -0.3859
  123OSM     OF13071   5.854   3.488   6.739  0.8228 -0.3461  0.0671
  123OSM    C2F13072   5.988   3.374   6.890  0.4763 -0.1891  0.2672
  123OSM    H2F13073   6.070   3.350   6.819  0.1967 -1.4612  0.3523
  123OSM    H2G13074   5.990   3.285   6.957  0.5384 -1.3746 -1.2808
  123OSM    C3F13075   6.033   3.504   6.951 -0.2004 -0.1951 -0.5817
  123OSM    H3F13076   6.021   3.589   6.880 -0.9587  1.2568  1.2465
  123OSM    H3G13077   6.137   3.501   6.992 -1.9642 -1.0219  4.1297
  123OSM    C4F13078   5.941   3.551   7.075  0.9914  0.3166  0.0363
  123OSM    H4F13079   5.837   3.575   7.042  0.2676 -0.5047  1.6437
  123OSM    H4G13080   5.985   3.642   7.120  0.2275  0.0654  1.3283
  123OSM    C5F13081   5.932   3.450   7.194  0.4955  0.4073  0.1775
  123OSM    H5F13082   6.032   3.430   7.238  0.1031  1.4055  1.5484
  123OSM    H5G13083   5.887   3.357   7.153 -0.8050  1.6531 -1.2991
  123OSM    C6F13084   5.836   3.503   7.304  0.3340 -0.6190  0.2357
  123OSM    H6F13085   5.744   3.529   7.248 -0.1560 -1.3418  0.7137
  123OSM    H6G13086   5.879   3.591   7.357 -0.1182 -0.7912  0.8833
  123OSM    C7F13087   5.795   3.396   7.395 -0.1725 -0.4165  0.3335
  123OSM    H7F13088   5.873   3.321   7.367  0.0169 -0.1507  0.1427
  123OSM    H7G13089   5.690   3.361   7.387 -0.6892  1.1247  0.1709
  123OSM    C8F13090   5.836   3.434   7.540  0.3194  1.2163  0.4463
  123OSM    H8F13091   5.810   3.539   7.566 -0.2278  1.6049 -1.6040
  123OSM    H8G13092   5.947   3.434   7.548  0.2714 -0.9623  1.5725
  123OSM    C9F13093   5.782   3.340   7.638  0.3848  0.1068 -1.0425
  123OSM    H9F13094   5.743   3.248   7.593  0.2823 -0.6455  0.5392
  123OSM   C10F13095   5.761   3.363   7.770 -0.1583 -0.1449  0.3554
  123OSM   H10F13096   5.708   3.289   7.832 -1.6232 -0.4128 -1.1822
  123OSM   C11F13097   5.802   3.501   7.824 -0.2549  0.2855 -0.6176
  123OSM   H11F13098   5.785   3.590   7.760  0.3086  0.1875 -0.9063
  123OSM   H11G13099   5.910   3.498   7.851 -0.7222 -1.1244  1.2223
  123OSM   C12F13100   5.726   3.528   7.958  0.1313 -0.0419  0.0667
  123OSM   H12F13101   5.617   3.507   7.950 -0.0689  0.2228  1.9380
  123OSM   H12G13102   5.744   3.633   7.990  0.5209 -0.0411 -0.1421
  123OSM   C13F13103   5.770   3.437   8.072 -0.4224 -0.4300  0.2823
  123OSM   H13F13104   5.876   3.456   8.101 -0.9794  1.8622  0.9324
  123OSM   H13G13105   5.780   3.330   8.044  3.7198 -0.7972  2.7035
  123OSM   C14F13106   5.684   3.445   8.200 -0.3174  0.2912  1.0819
  123OSM   H14F13107   5.711   3.546   8.237  0.8683 -0.5340  2.4697
  123OSM   H14G13108   5.736   3.375   8.268 -0.4304  0.1984  1.0730
  123OSM   C15F13109   5.538   3.407   8.182 -0.1407 -0.1637 -0.1995
  123OSM   H15F13110   5.535   3.324   8.109 -0.9375  0.8735 -1.3437
  123OSM   H15G13111   5.477   3.484   8.132 -2.3367 -0.5811  1.7255
  123OSM   C16F13112   5.468   3.357   8.312 -0.0374 -0.2404 -0.0965
  123OSM   H16F13113   5.524   3.387   8.402 -1.3425 -1.9212  1.3081
  123OSM   H16G13114   5.463   3.246   8.308 -0.1610 -0.3341  2.3251
  123OSM   C17F13115   5.318   3.385   8.331  0.4053  0.5479 -0.0723
  123OSM   H17F13116   5.303   3.495   8.320  1.1660  0.5403 -1.3151
  123OSM   H17G13117   5.286   3.369   8.436 -0.9766  0.3425 -0.5175
  123OSM   C18F13118   5.224   3.307   8.238  0.0929 -1.2379 -0.1128
  123OSM   H18F13119   5.208   3.204   8.277 -2.2449 -1.7520 -2.2230
  123OSM   H18G13120   5.258   3.316   8.132  0.2819  1.0280  0.1180
  123OSM   H18H13121   5.122   3.350   8.248  0.1918 -0.8525 -0.7288
  124OSM      N13122   5.776   6.481   6.056 -0.2085  1.1590 -0.7138
  124OSM    C1513123   5.734   6.618   6.063 -0.6960 -0.4016 -0.3934
  124OSM   H15A13124   5.812   6.684   6.029 -1.9299  1.1525 -0.3181
  124OSM   H15B13125   5.703   6.651   6.161  1.6970  1.8545 -0.3395
  124OSM   H15C13126   5.655   6.638   5.992 -0.4832  0.6453 -0.3470
  124OSM    C1413127   5.650   6.391   6.045  1.4408  0.1475  0.0351
  124OSM   H14A13128   5.586   6.409   6.130  0.5897  0.2722 -0.6274
  124OSM   H14B13129   5.671   6.285   6.049  0.4626 -0.0854 -0.8309
  124OSM   H14C13130   5.598   6.416   5.954 -0.7833  2.1132  1.7908
  124OSM    C1313131   5.851   6.446   5.934  0.2407  0.0484 -0.0703
  124OSM   H13A13132   5.872   6.340   5.927 -1.8087 -0.3330 -0.8891
  124OSM   H13B13133   5.942   6.503   5.929  0.2836 -0.0056  0.0834
  124OSM   H13C13134   5.786   6.474   5.852 -1.3871 -0.5202  1.0124
  124OSM    C1213135   5.866   6.452   6.179 -0.1212  0.0462  0.0237
  124OSM   H12A13136   5.832   6.515   6.260 -1.2611  0.4829 -0.7885
  124OSM   H12B13137   5.969   6.471   6.150  0.9083 -2.7404  1.6454
  124OSM    C1113138   5.867   6.308   6.232  0.3516 -0.6231 -0.1216
  124OSM   H11A13139   5.763   6.279   6.259  0.2359  0.1462  0.2521
  124OSM   H11B13140   5.913   6.308   6.334 -0.1190  0.2891  0.0948
  124OSM      P13141   5.948   6.067   6.162  0.4771 -0.0226  0.1744
  124OSM    O1313142   5.819   6.006   6.138 -0.3189 -0.5119  0.0528
  124OSM    O1413143   6.063   6.013   6.083 -0.6317  0.0172 -0.6788
  124OSM    O1113144   5.991   6.067   6.322  0.3481  0.4515  0.2125
  124OSM    O1213145   5.939   6.226   6.139  0.5528  0.4582  0.0971
  124OSM    C1S13146   6.127   6.110   6.343  0.4928 -0.2660 -0.2966
  124OSM    H1S13147   6.132   6.215   6.307 -1.1506 -0.1981 -0.3874
  124OSM    H1T13148   6.200   6.053   6.282  1.1797 -1.1926  1.3763
  124OSM     NF13149   6.271   6.203   6.523 -0.3230  0.6630  0.1870
  124OSM    HNF13150   6.363   6.164   6.523 -0.3584  0.5801  0.4900
  124OSM    C2S13151   6.166   6.105   6.491 -0.0164 -0.2999  0.3602
  124OSM    H2S13152   6.079   6.133   6.553  0.0608 -0.6546  0.6261
  124OSM    C3S13153   6.182   5.956   6.531  0.1589  0.8052 -0.3750
  124OSM    H3S13154   6.259   5.898   6.475  0.1012  0.3506  0.0146
  124OSM     O313155   6.050   5.895   6.521  0.5584  0.3733 -0.0162
  124OSM    HO313156   5.999   5.963   6.476 -2.0241 -1.3360  0.2345
  124OSM    C4S13157   6.219   5.946   6.683 -0.6710  0.1341  0.5046
  124OSM    H4S13158   6.319   5.978   6.715  0.3393 -2.2642 -0.1619
  124OSM    C5S13159   6.166   5.870   6.782  0.3750 -0.7016  0.1317
  124OSM    H5S13160   6.077   5.807   6.763  1.0222 -1.3868 -0.6523
  124OSM    C6S13161   6.225   5.848   6.921 -0.0294 -0.4349 -0.0715
  124OSM    H6S13162   6.261   5.743   6.925 -1.3307 -0.8803  0.0866
  124OSM    H6T13163   6.149   5.869   6.999 -1.7772 -0.8644 -1.6139
  124OSM    C7S13164   6.346   5.938   6.964  0.1496 -0.7310  0.1373
  124OSM    H7S13165   6.332   6.044   6.933  1.4809 -0.5701  0.0813
  124OSM    H7T13166   6.431   5.896   6.907  0.5669  0.9744 -0.5106
  124OSM    C8S13167   6.386   5.942   7.113  0.0753 -0.0231 -0.0591
  124OSM    H8S13168   6.301   5.976   7.177 -0.2250 -0.7126 -0.0877
  124OSM    H8T13169   6.470   6.014   7.123 -0.3264  0.7315 -1.9153
  124OSM    C9S13170   6.449   5.807   7.157  0.8274  0.4392  0.4811
  124OSM    H9S13171   6.514   5.776   7.072 -0.3866  1.3378 -0.7878
  124OSM    H9T13172   6.363   5.739   7.174  1.5119 -0.3499  0.7971
  124OSM   C10S13173   6.534   5.809   7.283  0.0934  0.6679  0.0068
  124OSM   H10S13174   6.630   5.858   7.258  1.0063 -1.1962 -0.1919
  124OSM   H10T13175   6.571   5.706   7.302 -0.5626  0.4887  0.3508
  124OSM   C11S13176   6.468   5.851   7.416  0.0639 -0.1711  0.3380
  124OSM   H11S13177   6.407   5.764   7.448  1.4532 -1.1425  0.4038
  124OSM   H11T13178   6.404   5.941   7.400  0.6534  0.1018 -0.5165
  124OSM   C12S13179   6.573   5.878   7.519  0.1053 -0.5748 -0.3825
  124OSM   H12S13180   6.630   5.970   7.494 -0.7825  0.7524  2.2601
  124OSM   H12T13181   6.640   5.794   7.546 -1.8525 -1.8009  0.8444
  124OSM   C13S13182   6.512   5.927   7.653  0.3125 -0.0238  0.0393
  124OSM   H13S13183   6.465   5.837   7.699 -1.4541  0.8289 -0.0946
  124OSM   H13T13184   6.440   6.001   7.613  1.3238  0.0026 -1.7981
  124OSM   C14S13185   6.609   6.008   7.734  0.3177  0.1241 -0.1317
  124OSM   H14S13186   6.644   6.097   7.677  3.2222  0.4398  2.0285
  124OSM   H14T13187   6.698   5.945   7.752  0.6173  0.7766  0.6826
  124OSM   C15S13188   6.559   6.036   7.876  0.0929  0.2392  0.4550
  124OSM   H15S13189   6.461   6.086   7.856  1.1566  1.5237 -1.7528
  124OSM   H15T13190   6.623   6.103   7.937  2.0663 -2.8080  1.8034
  124OSM   C16S13191   6.528   5.906   7.947  0.6170  0.1844 -0.0615
  124OSM   H16S13192   6.431   5.866   7.911  0.2967  0.3667  0.5842
  124OSM   H16T13193   6.504   5.933   8.052 -0.8194 -1.6974  0.1130
  124OSM   C17S13194   6.643   5.807   7.949 -0.1013  0.5850  0.4891
  124OSM   H17S13195   6.739   5.860   7.967  1.0417 -1.3828  0.3469
  124OSM   H17T13196   6.653   5.751   7.853  2.3562  2.1126 -0.1635
  124OSM   C18S13197   6.620   5.707   8.061  0.8177  0.2509  0.2167
  124OSM   H18S13198   6.524   5.651   8.058  1.2579 -0.6633  2.3202
  124OSM   H18T13199   6.626   5.770   8.152 -2.4460  0.4018  0.3996
  124OSM   H18U13200   6.699   5.629   8.062  1.2095  0.5785 -2.0951
  124OSM    C1F13201   6.250   6.333   6.525  0.1340  0.1413  0.1593
  124OSM     OF13202   6.142   6.385   6.504  0.0349 -0.0613 -0.5230
  124OSM    C2F13203   6.378   6.410   6.537 -0.7632 -0.3544  0.4856
  124OSM    H2F13204   6.396   6.464   6.441  0.8117 -1.2467  0.2657
  124OSM    H2G13205   6.462   6.343   6.564 -1.8344 -1.9006  0.0122
  124OSM    C3F13206   6.358   6.512   6.651  0.0410  0.3965  0.7247
  124OSM    H3F13207   6.258   6.561   6.646  0.2819  0.8675  0.4712
  124OSM    H3G13208   6.436   6.590   6.640 -0.2080  0.4193 -1.0350
  124OSM    C4F13209   6.364   6.438   6.791 -0.0107 -0.6722 -0.4221
  124OSM    H4F13210   6.292   6.353   6.789 -1.2578  0.3487  0.3544
  124OSM    H4G13211   6.323   6.504   6.870  1.0298  1.5545 -1.6755
  124OSM    C5F13212   6.496   6.400   6.848  0.2491 -0.4811  0.2712
  124OSM    H5F13213   6.556   6.494   6.846  0.3051 -0.5264 -0.3013
  124OSM    H5G13214   6.545   6.329   6.777  0.8797  0.3676 -0.1475
  124OSM    C6F13215   6.494   6.340   6.992  0.3756 -0.7691  0.2469
  124OSM    H6F13216   6.599   6.317   7.021  0.9192  0.9777 -0.2789
  124OSM    H6G13217   6.431   6.248   6.995  0.6859 -0.9809  0.2691
  124OSM    C7F13218   6.440   6.446   7.102  0.1043 -0.2304 -0.5645
  124OSM    H7F13219   6.334   6.469   7.076  0.9421  1.0033 -3.0022
  124OSM    H7G13220   6.496   6.541   7.099  0.4656 -0.4545 -0.9515
  124OSM    C8F13221   6.438   6.410   7.251  0.0278 -0.6301 -0.9352
  124OSM    H8F13222   6.543   6.397   7.284 -0.5388 -1.1031  0.7354
  124OSM    H8G13223   6.381   6.315   7.259 -0.8628 -0.0144  0.2522
  124OSM    C9F13224   6.391   6.520   7.343 -0.7797  0.5165  0.0455
  124OSM    H9F13225   6.313   6.582   7.296 -3.6388 -2.7417  0.3280
  124OSM   C10F13226   6.438   6.543   7.467  0.2182  0.7413 -0.3436
  124OSM   H10F13227   6.388   6.623   7.523 -1.0990 -1.4288  1.6994
  124OSM   C11F13228   6.545   6.457   7.532 -0.3885  0.0522 -0.0589
  124OSM   H11F13229   6.643   6.466   7.481 -0.6070 -0.2273 -0.5307
  124OSM   H11G13230   6.519   6.351   7.510 -1.9274  0.7239 -1.5760
  124OSM   C12F13231   6.563   6.481   7.685 -0.6372 -0.4162  0.3839
  124OSM   H12F13232   6.606   6.583   7.687  2.4824 -1.6675  1.4925
  124OSM   H12G13233   6.640   6.410   7.724 -0.3015 -0.6162 -0.6332
  124OSM   C13F13234   6.434   6.489   7.772  0.1042 -0.0627 -0.7843
  124OSM   H13F13235   6.364   6.408   7.742 -0.7954 -0.1783  1.4960
  124OSM   H13G13236   6.373   6.580   7.749 -0.0912 -0.2704 -1.0871
  124OSM   C14F13237   6.462   6.488   7.916  0.3618 -0.2619 -0.3642
  124OSM   H14F13238   6.367   6.514   7.967 -0.0544 -4.7287  1.3564
  124OSM   H14G13239   6.524   6.578   7.937 -0.0449 -0.6924  2.9301
  124OSM   C15F13240   6.522   6.370   7.983 -0.1013 -0.5536  0.4894
  124OSM   H15F13241   6.631   6.387   7.993 -0.0720  0.4595 -1.2882
  124OSM   H15G13242   6.507   6.294   7.903  1.1108  0.4478 -0.7166
  124OSM   C16F13243   6.456   6.351   8.118  0.2296 -0.6490  0.0799
  124OSM   H16F13244   6.518   6.270   8.162  2.3087  0.5627 -0.5356
  124OSM   H16G13245   6.353   6.313   8.100 -0.5301  0.6338  1.6643
  124OSM   C17F13246   6.459   6.469   8.213  0.1721 -0.0526 -0.0536
  124OSM   H17F13247   6.402   6.554   8.170 -1.3674 -2.2841 -2.6434
  124OSM   H17G13248   6.562   6.505   8.233  1.4377 -4.3508  1.7609
  124OSM   C18F13249   6.396   6.431   8.346  0.5388 -0.2902  0.1134
  124OSM   H18F13250   6.324   6.348   8.361 -0.2841  0.3083 -0.5318
  124OSM   H18G13251   6.360   6.517   8.405 -0.8532 -0.8854  0.1447
  124OSM   H18H13252   6.486   6.387   8.395  1.1985 -0.7562 -1.4634
  125OSM      N13253   3.164   5.059   5.914 -0.2041 -0.7955  0.4302
  125OSM    C1513254   3.226   4.930   5.879  0.5366  0.4360  0.1097
  125OSM   H15A13255   3.256   4.887   5.973  0.9231 -1.0324 -0.6730
  125OSM   H15B13256   3.310   4.954   5.816  0.5366 -1.6157 -0.7219
  125OSM   H15C13257   3.168   4.853   5.829  0.5617 -0.7688  1.8953
  125OSM    C1413258   3.173   5.147   5.797  0.5211  0.5469  0.5871
  125OSM   H14A13259   3.123   5.109   5.709  1.7737  1.4663 -0.5579
  125OSM   H14B13260   3.277   5.170   5.778  0.8731 -0.5835  1.1370
  125OSM   H14C13261   3.122   5.240   5.819 -1.4813 -0.2877 -0.4194
  125OSM    C1313262   3.017   5.031   5.960  0.3390  0.0621  0.5168
  125OSM   H13A13263   2.971   5.119   6.002  1.2958  0.4293  0.8105
  125OSM   H13B13264   3.008   4.944   6.023 -0.5429 -0.4423 -0.2855
  125OSM   H13C13265   2.957   5.001   5.876  1.0026 -0.9843  0.3961
  125OSM    C1213266   3.243   5.121   6.032  0.8598 -0.2134 -0.4802
  125OSM   H12A13267   3.208   5.222   6.051  2.0375 -0.1718  1.7181
  125OSM   H12B13268   3.349   5.123   6.008  0.6246 -0.6799 -1.5768
  125OSM    C1113269   3.232   5.048   6.167  0.3789  0.0785 -1.2751
  125OSM   H11A13270   3.124   5.038   6.191  0.3034  0.1015 -1.6000
  125OSM   H11B13271   3.267   5.102   6.258 -3.0370  0.3489 -0.0525
  125OSM      P13272   3.453   4.912   6.177 -0.1103 -0.3974  0.1836
  125OSM    O1313273   3.506   4.782   6.133 -0.9931  0.4882 -0.0267
  125OSM    O1413274   3.521   5.025   6.108  0.0149  0.5185  0.0676
  125OSM    O1113275   3.471   4.931   6.336 -0.3479 -0.5507  0.3422
  125OSM    O1213276   3.300   4.922   6.160 -0.0829  0.0010  0.0340
  125OSM    C1S13277   3.378   4.871   6.433 -0.2292 -0.5874  0.3069
  125OSM    H1S13278   3.402   4.764   6.451 -1.1960 -0.7114  0.8594
  125OSM    H1T13279   3.272   4.887   6.402  0.7906  1.7828 -2.1697
  125OSM     NF13280   3.304   4.880   6.669 -0.5261  0.0707 -0.3393
  125OSM    HNF13281   3.206   4.898   6.671 -0.0398  3.0200 -0.3649
  125OSM    C2S13282   3.382   4.952   6.572 -0.3589 -0.2528  0.1988
  125OSM    H2S13283   3.491   4.949   6.594 -0.2206  0.3795 -0.3692
  125OSM    C3S13284   3.340   5.097   6.550  0.2047 -0.7129 -0.6832
  125OSM    H3S13285   3.238   5.098   6.507 -1.6169  1.1480  3.5071
  125OSM     O313286   3.423   5.166   6.455 -0.2424 -0.3224  0.5930
  125OSM    HO313287   3.476   5.093   6.423 -0.3531  0.8389 -2.4314
  125OSM    C4S13288   3.340   5.160   6.687  0.2904 -0.8976  0.5392
  125OSM    H4S13289   3.256   5.130   6.750 -0.7956 -0.8510 -0.8682
  125OSM    C5S13290   3.435   5.242   6.734 -0.5701 -0.2957 -0.4512
  125OSM    H5S13291   3.525   5.273   6.678 -1.3215  3.1076  0.0974
  125OSM    C6S13292   3.425   5.308   6.867 -0.1497  0.3065  0.1184
  125OSM    H6S13293   3.324   5.354   6.877  0.3954  1.4367  0.5121
  125OSM    H6T13294   3.497   5.392   6.873  0.1134  0.0148  1.2066
  125OSM    C7S13295   3.446   5.218   6.989  0.2363 -0.2120 -0.1908
  125OSM    H7S13296   3.555   5.205   7.002  0.4723  0.8536 -1.0657
  125OSM    H7T13297   3.396   5.118   6.992 -1.8104  0.7748 -0.1183
  125OSM    C8S13298   3.401   5.287   7.117  0.6222  0.9730  0.2942
  125OSM    H8S13299   3.302   5.333   7.098 -0.4310 -0.5244  2.0503
  125OSM    H8T13300   3.476   5.362   7.150 -0.3222  1.2671  1.8062
  125OSM    C9S13301   3.377   5.183   7.224 -0.4432  0.5151 -0.2499
  125OSM    H9S13302   3.470   5.122   7.228  0.5586  2.0052 -0.7125
  125OSM    H9T13303   3.294   5.115   7.194 -0.5122 -0.3922  1.8484
  125OSM   C10S13304   3.345   5.240   7.365 -0.3936  0.1038 -0.1157
  125OSM   H10S13305   3.239   5.273   7.374 -0.8317 -1.7790  2.4483
  125OSM   H10T13306   3.414   5.325   7.384 -0.0542 -0.1873 -0.0472
  125OSM   C11S13307   3.378   5.142   7.474  0.1797 -0.3842 -1.2757
  125OSM   H11S13308   3.486   5.117   7.483  0.7010  2.1529  0.0661
  125OSM   H11T13309   3.320   5.048   7.468 -0.9800  0.2560 -0.2295
  125OSM   C12S13310   3.336   5.193   7.612 -0.0337  0.2945  0.4129
  125OSM   H12S13311   3.242   5.251   7.601  0.2748  0.6780 -0.2226
  125OSM   H12T13312   3.408   5.267   7.651  0.3491  0.2073 -0.1197
  125OSM   C13S13313   3.325   5.087   7.718 -0.7244  0.0572 -0.4738
  125OSM   H13S13314   3.401   5.007   7.704 -0.3096  0.3007  0.3749
  125OSM   H13T13315   3.227   5.037   7.698  0.3313 -1.9342 -0.7915
  125OSM   C14S13316   3.323   5.147   7.852  0.3225  0.3933 -0.3676
  125OSM   H14S13317   3.253   5.232   7.866  0.0030  0.0663  0.0076
  125OSM   H14T13318   3.424   5.187   7.876  0.4921  0.4762 -1.1905
  125OSM   C15S13319   3.280   5.050   7.961  0.4371 -0.4198  0.4686
  125OSM   H15S13320   3.349   4.966   7.981  1.9545  0.8890  0.8338
  125OSM   H15T13321   3.193   4.996   7.917  0.2949  0.1043  0.1045
  125OSM   C16S13322   3.227   5.103   8.097  0.3273 -0.8099 -0.2028
  125OSM   H16S13323   3.149   5.177   8.066  0.0855 -1.1784 -0.4844
  125OSM   H16T13324   3.304   5.153   8.160 -2.2260 -0.3848  2.7004
  125OSM   C17S13325   3.157   4.997   8.181 -0.1378  0.9072 -0.3150
  125OSM   H17S13326   3.224   4.910   8.201 -0.1244  1.1518  0.7120
  125OSM   H17T13327   3.073   4.964   8.117 -0.6451 -0.7815  1.1595
  125OSM   C18S13328   3.116   5.055   8.312  0.3581 -0.5799 -0.6201
  125OSM   H18S13329   3.054   4.985   8.371 -0.8604  0.5670 -0.5176
  125OSM   H18T13330   3.062   5.146   8.278  1.2277 -1.1427 -3.6809
  125OSM   H18U13331   3.198   5.080   8.383 -0.1452 -0.1576 -0.1874
  125OSM    C1F13332   3.352   4.770   6.727 -0.0080 -0.1470  0.2664
  125OSM     OF13333   3.458   4.724   6.696  0.3522  0.3922  0.2466
  125OSM    C2F13334   3.274   4.716   6.834 -0.4543 -0.1175  0.5709
  125OSM    H2F13335   3.320   4.616   6.849 -1.1674 -0.6959 -0.9700
  125OSM    H2G13336   3.171   4.697   6.795  0.5258 -0.4994 -1.8661
  125OSM    C3F13337   3.271   4.786   6.974 -0.1279 -0.4187 -0.4196
  125OSM    H3F13338   3.219   4.883   6.985  1.8083  0.4377  1.4486
  125OSM    H3G13339   3.365   4.795   7.032 -0.9705 -0.6786  0.9974
  125OSM    C4F13340   3.186   4.700   7.071  0.9704  0.9110 -0.3672
  125OSM    H4F13341   3.221   4.595   7.071  0.5428  0.7400  1.4955
  125OSM    H4G13342   3.077   4.698   7.052  0.5794 -0.9880  1.7631
  125OSM    C5F13343   3.208   4.741   7.217 -0.6167 -0.3204 -0.1078
  125OSM    H5F13344   3.205   4.852   7.225  0.7917 -0.1669 -1.4467
  125OSM    H5G13345   3.306   4.694   7.239 -0.5696 -0.1914 -0.0379
  125OSM    C6F13346   3.121   4.675   7.320  0.3443  0.3245 -0.4644
  125OSM    H6F13347   3.124   4.564   7.316 -1.8328  0.2693 -1.2443
  125OSM    H6G13348   3.013   4.690   7.296  0.2577  0.1223 -0.1963
  125OSM    C7F13349   3.137   4.727   7.465 -0.3664 -0.1035 -0.9068
  125OSM    H7F13350   3.100   4.832   7.467  0.9962  0.3623  0.4948
  125OSM    H7G13351   3.242   4.748   7.491 -0.7531  0.3599  0.3135
  125OSM    C8F13352   3.046   4.647   7.560 -0.1495  0.0288  0.1291
  125OSM    H8F13353   3.087   4.545   7.578 -0.3927 -0.1298 -0.1890
  125OSM    H8G13354   2.941   4.642   7.523  0.0387 -0.5889 -0.3373
  125OSM    C9F13355   3.053   4.712   7.697  0.1559  0.5299 -0.2281
  125OSM    H9F13356   2.957   4.763   7.715  0.5527  1.3792 -0.5099
  125OSM   C10F13357   3.146   4.707   7.799 -0.3331  0.9118 -0.2638
  125OSM   H10F13358   3.129   4.762   7.893 -1.7714 -1.2548  0.7648
  125OSM   C11F13359   3.282   4.642   7.788  0.1762  0.8798 -0.0288
  125OSM   H11F13360   3.358   4.722   7.799 -1.5676  2.6433 -0.5329
  125OSM   H11G13361   3.304   4.594   7.691  0.8593  0.7594  0.1851
  125OSM   C12F13362   3.304   4.527   7.895 -0.8601 -0.0523  0.3022
  125OSM   H12F13363   3.396   4.465   7.894 -0.8363 -0.0110 -0.3843
  125OSM   H12G13364   3.228   4.449   7.874 -0.2300 -0.7844  0.7355
  125OSM   C13F13365   3.301   4.564   8.044  0.5083 -0.6581 -0.2030
  125OSM   H13F13366   3.201   4.601   8.073  0.2727 -1.1212 -0.4269
  125OSM   H13G13367   3.374   4.648   8.053  1.3431 -1.3838 -0.0876
  125OSM   C14F13368   3.344   4.441   8.126 -0.5767 -0.8577 -0.1593
  125OSM   H14F13369   3.447   4.419   8.091 -0.7439 -1.3393 -0.3541
  125OSM   H14G13370   3.275   4.356   8.105 -2.9935  0.9980  0.0049
  125OSM   C15F13371   3.356   4.463   8.273 -0.3174  0.5458  0.1322
  125OSM   H15F13372   3.434   4.541   8.281 -1.6425  2.0137 -0.9883
  125OSM   H15G13373   3.397   4.371   8.320  1.0672 -1.3550 -4.4694
  125OSM   C16F13374   3.236   4.512   8.341 -0.0506  0.6488 -0.4902
  125OSM   H16F13375   3.154   4.441   8.318 -0.2203  0.5130  0.4956
  125OSM   H16G13376   3.193   4.604   8.295 -1.8618 -0.3037 -0.7604
  125OSM   C17F13377   3.228   4.537   8.490  0.6021  0.1290  0.5405
  125OSM   H17F13378   3.293   4.625   8.509  0.1026  1.1566 -2.2733
  125OSM   H17G13379   3.264   4.457   8.558 -3.5862 -0.9754  1.5897
  125OSM   C18F13380   3.090   4.568   8.541 -0.4454  0.6182  0.6184
  125OSM   H18F13381   3.054   4.669   8.511 -1.0824  0.0305 -0.6671
  125OSM   H18G13382   3.079   4.549   8.650 -0.8542  1.1663  0.6758
  125OSM   H18H13383   3.023   4.501   8.483  0.0317  0.7828 -0.1334
  126OSM      N13384   0.059   2.248   6.583 -0.3475 -0.1179  0.0630
  126OSM    C1513385   0.183   2.201   6.666  0.5075  0.5792  0.0842
  126OSM   H15A13386   0.217   2.289   6.719  0.3766  1.5488 -1.4270
  126OSM   H15B13387   0.265   2.174   6.602  0.8881  1.6612  0.1197
  126OSM   H15C13388   0.162   2.123   6.739  1.6841  0.6580  0.5246
  126OSM    C1413389   0.108   2.340   6.483 -0.3840 -0.0447  0.1079
  126OSM   H14A13390   0.145   2.434   6.521 -1.9737  0.4866  0.3734
  126OSM   H14B13391   0.029   2.366   6.414 -0.1739  1.2309  0.3484
  126OSM   H14C13392   0.191   2.303   6.423 -0.4958  1.7851 -1.2314
  126OSM    C1313393  -0.003   2.135   6.503 -0.1497 -0.0245 -0.0829
  126OSM   H13A13394  -0.074   2.072   6.556 -0.3488 -0.6154 -1.0528
  126OSM   H13B13395   0.071   2.066   6.467  0.5624  0.1072  1.0940
  126OSM   H13C13396  -0.065   2.173   6.423  0.6272  0.4482 -0.4640
  126OSM    C1213397  -0.042   2.319   6.666  0.3213 -0.2585 -0.0642
  126OSM   H12A13398  -0.062   2.244   6.741  2.2118  2.0726  2.8968
  126OSM   H12B13399  -0.132   2.336   6.610 -0.4664 -2.5095  0.4896
  126OSM    C1113400   0.012   2.447   6.726 -0.0699 -1.0442  0.7423
  126OSM   H11A13401   0.120   2.440   6.751  0.4800 -0.0704 -1.2943
  126OSM   H11B13402  -0.037   2.477   6.822 -1.3920  1.1142 -0.5611
  126OSM      P13403  -0.140   2.633   6.605  0.2384  0.0707  0.1571
  126OSM    O1313404  -0.104   2.755   6.537 -0.1844 -0.5468  0.1158
  126OSM    O1413405  -0.225   2.539   6.524 -0.8706  0.2555 -0.7364
  126OSM    O1113406  -0.210   2.667   6.744  0.1822 -0.3297 -0.3685
  126OSM    O1213407  -0.002   2.559   6.641  0.4207 -0.6120  0.2750
  126OSM    C1S13408  -0.303   2.577   6.805 -0.0322 -0.2936 -0.1349
  126OSM    H1S13409  -0.265   2.473   6.793  2.0836  0.4306  0.0428
  126OSM    H1T13410  -0.401   2.581   6.755  0.9295 -2.1172 -2.2455
  126OSM     NF13411  -0.390   2.469   7.013  0.4149 -0.0057  0.1180
  126OSM    HNF13412  -0.489   2.466   7.021  0.3051 -0.0312 -1.1049
  126OSM    C2S13413  -0.332   2.591   6.963 -0.3502  0.5294 -0.1008
  126OSM    H2S13414  -0.232   2.606   7.009 -0.8486  0.3162  1.0579
  126OSM    C3S13415  -0.407   2.724   6.994  0.3133 -0.3594 -0.5419
  126OSM    H3S13416  -0.511   2.699   6.965 -0.4783 -0.2253  2.0541
  126OSM     O313417  -0.361   2.829   6.909  0.1341  0.0120 -0.1112
  126OSM    HO313418  -0.336   2.790   6.825 -1.9365 -2.4980  0.3867
  126OSM    C4S13419  -0.395   2.744   7.143 -0.6813  0.1473  0.3012
  126OSM    H4S13420  -0.471   2.690   7.202  1.3925  1.4131  4.3245
  126OSM    C5S13421  -0.303   2.819   7.207  0.5995  0.5258  0.0528
  126OSM    H5S13422  -0.234   2.870   7.138  1.7998 -2.3490 -0.9520
  126OSM    C6S13423  -0.296   2.837   7.354 -0.0561  0.9201 -0.2020
  126OSM    H6S13424  -0.340   2.936   7.379  1.0629  1.7619 -1.5094
  126OSM    H6T13425  -0.189   2.854   7.377  0.6699  1.4675 -3.7191
  126OSM    C7S13426  -0.349   2.718   7.449 -0.3742  0.0191  0.2467
  126OSM    H7S13427  -0.290   2.633   7.408  1.1321  0.8407  0.6596
  126OSM    H7T13428  -0.458   2.710   7.432 -1.0619  0.6848  3.9136
  126OSM    C8S13429  -0.334   2.752   7.597  0.0591 -0.5822  0.0728
  126OSM    H8S13430  -0.398   2.841   7.614  1.7712  0.9038 -1.1288
  126OSM    H8T13431  -0.229   2.772   7.626 -0.1684  0.1078  0.4177
  126OSM    C9S13432  -0.398   2.645   7.683  0.7453  0.0869  0.1640
  126OSM    H9S13433  -0.355   2.545   7.660  0.1621 -0.4877  1.5247
  126OSM    H9T13434  -0.506   2.633   7.663  0.8761 -2.2057  0.6870
  126OSM   C10S13435  -0.389   2.688   7.832  0.7880 -0.0417  0.1108
  126OSM   H10S13436  -0.425   2.793   7.836  0.4351 -0.1044 -1.0966
  126OSM   H10T13437  -0.285   2.676   7.868  0.9155 -0.4777 -0.3966
  126OSM   C11S13438  -0.482   2.596   7.915  0.1502 -0.2064  0.2627
  126OSM   H11S13439  -0.456   2.495   7.878 -0.3838 -0.4202  0.4737
  126OSM   H11T13440  -0.591   2.608   7.899  0.6792  1.0975 -2.6628
  126OSM   C12S13441  -0.450   2.593   8.065  0.3149  0.3862  0.5718
  126OSM   H12S13442  -0.467   2.694   8.110 -3.1104  1.1042 -2.1086
  126OSM   H12T13443  -0.340   2.582   8.079  0.1170 -0.9491  1.1875
  126OSM   C13S13444  -0.538   2.494   8.148  0.4090  0.1926 -0.2139
  126OSM   H13S13445  -0.521   2.386   8.129 -3.1094 -0.5516  0.5225
  126OSM   H13T13446  -0.646   2.514   8.136  0.0279  0.6482  3.3185
  126OSM   C14S13447  -0.502   2.507   8.302 -0.0269  0.1460  0.1133
  126OSM   H14S13448  -0.520   2.609   8.342 -0.6069  0.7576 -1.6597
  126OSM   H14T13449  -0.397   2.475   8.321 -0.3940 -1.9633 -1.2879
  126OSM   C15S13450  -0.591   2.421   8.396 -0.0405  0.7111 -0.9069
  126OSM   H15S13451  -0.581   2.317   8.358  2.3732  0.2833  0.8204
  126OSM   H15T13452  -0.699   2.447   8.394  0.2874  2.6531  2.5576
  126OSM   C16S13453  -0.549   2.425   8.541  0.6652  0.4062  0.1683
  126OSM   H16S13454  -0.533   2.528   8.580 -2.3443  0.8621  0.3478
  126OSM   H16T13455  -0.446   2.388   8.556 -0.2692 -0.8643  3.9529
  126OSM   C17S13456  -0.631   2.331   8.635  0.5654  0.2994 -0.7857
  126OSM   H17S13457  -0.725   2.388   8.648 -1.7060 -2.7936 -2.9821
  126OSM   H17T13458  -0.573   2.320   8.729 -1.7771 -0.6320  0.5832
  126OSM   C18S13459  -0.668   2.189   8.585  0.9336 -0.0780  0.1441
  126OSM   H18S13460  -0.750   2.198   8.511 -0.5106 -3.9918  1.1682
  126OSM   H18T13461  -0.708   2.124   8.666  0.4308 -0.5129 -0.4444
  126OSM   H18U13462  -0.586   2.138   8.530 -0.5324 -1.6848 -0.5844
  126OSM    C1F13463  -0.319   2.349   7.020  0.1775 -0.1328 -0.0465
  126OSM     OF13464  -0.198   2.337   7.042  0.6273 -0.0539  0.1069
  126OSM    C2F13465  -0.399   2.232   6.997 -0.3163  0.3440  0.0725
  126OSM    H2F13466  -0.415   2.227   6.888  4.2111  2.4436 -0.8264
  126OSM    H2G13467  -0.502   2.245   7.035 -1.1684 -1.5866 -1.4968
  126OSM    C3F13468  -0.344   2.098   7.060  0.3167  0.5741 -0.4770
  126OSM    H3F13469  -0.238   2.087   7.031  1.1136  1.7140  1.8847
  126OSM    H3G13470  -0.406   2.016   7.018  0.1114  0.4855 -0.0087
  126OSM    C4F13471  -0.338   2.085   7.214  0.2021 -0.5622 -0.0512
  126OSM    H4F13472  -0.437   2.112   7.255  0.3737  1.0803 -0.6961
  126OSM    H4G13473  -0.263   2.159   7.250  1.1482 -0.0641 -2.9000
  126OSM    C5F13474  -0.295   1.946   7.246  0.0825  0.4726  0.0319
  126OSM    H5F13475  -0.196   1.913   7.207 -0.5874 -2.6212  0.8462
  126OSM    H5G13476  -0.364   1.868   7.209  0.5005  1.2801 -2.5282
  126OSM    C6F13477  -0.293   1.930   7.402 -0.1382  0.1201  0.1416
  126OSM    H6F13478  -0.381   1.971   7.456 -0.5294  0.8672 -1.0400
  126OSM    H6G13479  -0.208   1.991   7.439  0.3118 -1.6122  2.0283
  126OSM    C7F13480  -0.269   1.781   7.456  0.8590  0.2429  0.3453
  126OSM    H7F13481  -0.193   1.744   7.383  0.0927 -0.8151  0.0816
  126OSM    H7G13482  -0.365   1.732   7.430  0.5268  1.0811 -0.0233
  126OSM    C8F13483  -0.229   1.782   7.606 -0.6287  0.2387  0.7882
  126OSM    H8F13484  -0.161   1.868   7.623  0.5998 -0.6445  0.4644
  126OSM    H8G13485  -0.177   1.686   7.629 -0.6024  0.0597 -0.0039
  126OSM    C9F13486  -0.351   1.809   7.689  0.3677 -0.2523 -0.1645
  126OSM    H9F13487  -0.448   1.843   7.650 -0.3085 -0.5018  1.2511
  126OSM   C10F13488  -0.348   1.799   7.825 -0.3275  0.3741  0.3996
  126OSM   H10F13489  -0.442   1.821   7.877  0.4762  0.5761  1.8060
  126OSM   C11F13490  -0.225   1.769   7.911 -1.0009 -0.5908  0.3425
  126OSM   H11F13491  -0.173   1.864   7.935  0.7295 -1.4200  0.0015
  126OSM   H11G13492  -0.148   1.718   7.849  1.1861  0.9809  1.7022
  126OSM   C12F13493  -0.252   1.676   8.030 -0.0510 -0.2736  1.0710
  126OSM   H12F13494  -0.295   1.582   7.989 -0.2054  0.3811 -0.3116
  126OSM   H12G13495  -0.333   1.728   8.085 -0.5958 -2.5604  2.4835
  126OSM   C13F13496  -0.137   1.666   8.120  0.0573 -0.4962 -0.1759
  126OSM   H13F13497  -0.109   1.771   8.145 -0.2654 -0.4325 -0.0781
  126OSM   H13G13498  -0.048   1.615   8.075  0.2476  3.4867 -4.7463
  126OSM   C14F13499  -0.164   1.594   8.257  0.3019  0.1664 -0.4580
  126OSM   H14F13500  -0.198   1.491   8.236 -1.3772 -0.0357  2.8486
  126OSM   H14G13501  -0.248   1.651   8.302 -0.4966 -1.5614  0.2859
  126OSM   C15F13502  -0.038   1.588   8.353  0.2868 -0.4053  0.7167
  126OSM   H15F13503  -0.009   1.690   8.387 -0.3172  1.1799 -3.1839
  126OSM   H15G13504   0.033   1.538   8.283  0.0065  1.4476 -0.9266
  126OSM   C16F13505  -0.074   1.495   8.470 -0.2361  0.2558 -0.5028
  126OSM   H16F13506  -0.095   1.393   8.431 -1.0387 -0.3655  1.4836
  126OSM   H16G13507  -0.168   1.535   8.515  0.9192  0.8751  1.4060
  126OSM   C17F13508   0.026   1.498   8.583 -0.8077  0.7368  0.0386
  126OSM   H17F13509   0.051   1.603   8.611 -0.6230  1.1284 -1.5817
  126OSM   H17G13510   0.118   1.448   8.547 -2.0503 -1.9471  0.4598
  126OSM   C18F13511  -0.018   1.417   8.706 -0.0176 -0.2547  0.0323
  126OSM   H18F13512   0.027   1.457   8.800 -1.3129 -1.8209  1.3480
  126OSM   H18G13513   0.016   1.313   8.691 -0.6689 -0.4369 -0.1796
  126OSM   H18H13514  -0.127   1.423   8.726 -0.2950  1.0703 -1.7677
  127OSM      N13515   4.856   2.912   6.205  0.3770 -0.0205  0.2010
  127OSM    C1513516   4.849   2.898   6.056 -0.2325 -0.3325  0.2080
  127OSM   H15A13517   4.751   2.928   6.022  0.0447 -0.5034 -0.7629
  127OSM   H15B13518   4.867   2.799   6.018  1.2429  0.3926 -1.0854
  127OSM   H15C13519   4.931   2.956   6.014  0.5004 -0.9963  0.7115
  127OSM    C1413520   4.797   2.787   6.265 -0.5470 -0.4413 -0.6069
  127OSM   H14A13521   4.842   2.694   6.234  1.9154  0.0131  1.4375
  127OSM   H14B13522   4.695   2.770   6.233 -0.9760  2.0153 -0.6326
  127OSM   H14C13523   4.809   2.799   6.372 -2.3134  1.0231 -0.5296
  127OSM    C1313524   5.000   2.918   6.254 -0.2281 -0.3574 -0.1244
  127OSM   H13A13525   5.064   2.841   6.213  1.7937  0.1150  2.0665
  127OSM   H13B13526   5.002   2.910   6.361  0.0712 -3.2267 -0.3001
  127OSM   H13C13527   5.044   3.012   6.227  1.2397 -1.7376 -2.7831
  127OSM    C1213528   4.786   3.043   6.246 -0.5405  0.1716 -0.5678
  127OSM   H12A13529   4.682   3.034   6.219 -0.1300 -0.3558 -2.0430
  127OSM   H12B13530   4.833   3.125   6.193  2.3824 -0.9546  0.2111
  127OSM    C1113531   4.794   3.076   6.390 -0.2916  0.2460 -0.9104
  127OSM   H11A13532   4.895   3.082   6.435 -1.0846 -1.1554  1.1557
  127OSM   H11B13533   4.752   2.982   6.432  1.1916 -1.1742 -2.5277
  127OSM      P13534   4.571   3.202   6.448  0.2057 -0.1066  0.1787
  127OSM    O1313535   4.527   3.339   6.401  0.6117 -0.0458 -0.3635
  127OSM    O1413536   4.515   3.089   6.372 -0.6051  0.2135 -0.1117
  127OSM    O1113537   4.534   3.196   6.600 -0.2060  0.0366 -0.0257
  127OSM    O1213538   4.729   3.197   6.424 -0.0676  0.5002 -0.1571
  127OSM    C1S13539   4.607   3.122   6.696 -0.7086 -0.1825  0.8264
  127OSM    H1S13540   4.710   3.098   6.660  0.3854  2.7725  1.8845
  127OSM    H1T13541   4.551   3.028   6.719 -0.8795 -0.0269  1.0435
  127OSM     NF13542   4.696   3.112   6.915 -0.0491 -0.0144  0.0988
  127OSM    HNF13543   4.661   3.094   7.006 -1.3123  1.5517 -0.0567
  127OSM    C2S13544   4.629   3.199   6.825  0.4647  0.1514  0.8782
  127OSM    H2S13545   4.694   3.287   6.804  0.8141 -0.3762 -0.2890
  127OSM    C3S13546   4.500   3.254   6.894 -0.0766  1.2010  0.8921
  127OSM    H3S13547   4.449   3.165   6.937  0.2082  0.7122  0.2283
  127OSM     O313548   4.406   3.315   6.814 -0.0576 -0.1110 -0.2326
  127OSM    HO313549   4.440   3.308   6.725  1.1867 -1.6726  0.3236
  127OSM    C4S13550   4.521   3.343   7.013 -0.3776  0.1668 -0.5543
  127OSM    H4S13551   4.497   3.285   7.103  1.2114  1.4277  0.7094
  127OSM    C5S13552   4.548   3.476   7.027 -0.2402 -0.3885  0.2377
  127OSM    H5S13553   4.564   3.537   6.938  0.3832  0.0520  0.6469
  127OSM    C6S13554   4.571   3.541   7.157 -0.4577 -0.0963 -0.7845
  127OSM    H6S13555   4.531   3.644   7.148 -0.6114 -0.0710  0.1166
  127OSM    H6T13556   4.680   3.556   7.161 -0.0669 -2.7934 -0.1448
  127OSM    C7S13557   4.526   3.476   7.284 -0.1464 -0.0654 -0.4921
  127OSM    H7S13558   4.547   3.367   7.291 -1.3824 -0.2373  0.7325
  127OSM    H7T13559   4.420   3.504   7.304 -0.2251 -0.6002 -0.1346
  127OSM    C8S13560   4.616   3.536   7.391 -0.4431  0.2184 -0.0034
  127OSM    H8S13561   4.598   3.645   7.399  0.1795  0.4527 -1.7001
  127OSM    H8T13562   4.720   3.519   7.358  0.2472  2.7572  0.7670
  127OSM    C9S13563   4.589   3.471   7.526  0.0322 -0.8129  0.7006
  127OSM    H9S13564   4.594   3.361   7.512  0.6860 -0.5685 -1.2084
  127OSM    H9T13565   4.484   3.500   7.548  0.2253  2.1924 -1.9648
  127OSM   C10S13566   4.691   3.506   7.629  0.0963 -0.7433  0.2169
  127OSM   H10S13567   4.704   3.616   7.614  0.0675 -0.9233 -1.1919
  127OSM   H10T13568   4.788   3.457   7.608 -0.2263 -0.7342 -1.3180
  127OSM   C11S13569   4.636   3.504   7.775 -0.2676 -0.1288 -0.2251
  127OSM   H11S13570   4.617   3.399   7.807  0.1625 -0.1913 -0.1784
  127OSM   H11T13571   4.542   3.561   7.789  0.0869  0.4412 -0.1900
  127OSM   C12S13572   4.739   3.566   7.874  0.1095 -0.2354  0.6573
  127OSM   H12S13573   4.763   3.672   7.849 -2.9046  0.0922 -1.1866
  127OSM   H12T13574   4.838   3.516   7.873  1.3294  2.0958  0.2528
  127OSM   C13S13575   4.683   3.567   8.015  0.6755  0.3541 -0.7185
  127OSM   H13S13576   4.686   3.463   8.053 -2.6538  0.2021 -0.7108
  127OSM   H13T13577   4.573   3.584   8.023  0.9359  1.6615  0.0715
  127OSM   C14S13578   4.763   3.666   8.115  0.1217 -0.0726 -0.2928
  127OSM   H14S13579   4.730   3.770   8.091  2.3149  0.7370  0.0618
  127OSM   H14T13580   4.871   3.648   8.098 -0.1191 -0.1722 -1.8183
  127OSM   C15S13581   4.737   3.638   8.260  0.6609  0.1035  0.1788
  127OSM   H15S13582   4.632   3.609   8.281  0.4537  1.1194  0.5539
  127OSM   H15T13583   4.751   3.731   8.319 -1.3349 -0.2423  1.2624
  127OSM   C16S13584   4.845   3.538   8.312  0.5605 -0.0670 -0.9989
  127OSM   H16S13585   4.948   3.582   8.311  0.0791  1.1314  0.2088
  127OSM   H16T13586   4.849   3.453   8.242 -1.6012  0.0060 -1.2342
  127OSM   C17S13587   4.804   3.487   8.448 -0.5354  0.4787  0.1256
  127OSM   H17S13588   4.712   3.425   8.445  1.2587 -2.1804 -3.3918
  127OSM   H17T13589   4.782   3.579   8.506  2.6326 -0.7935  3.4638
  127OSM   C18S13590   4.913   3.401   8.508  0.5626 -0.3054 -0.0221
  127OSM   H18S13591   4.918   3.301   8.460  1.3447 -0.6663  0.7829
  127OSM   H18T13592   4.885   3.398   8.616 -1.0138 -2.4537 -0.4584
  127OSM   H18U13593   5.016   3.443   8.507  0.2640  0.4392 -0.0297
  127OSM    C1F13594   4.823   3.062   6.901  0.3407  0.1379  0.1794
  127OSM     OF13595   4.897   3.100   6.811 -0.0798 -1.1541 -0.1467
  127OSM    C2F13596   4.873   2.986   7.021  0.0985  0.0008 -0.0399
  127OSM    H2F13597   4.806   2.898   7.036 -1.7315  1.5950  1.4707
  127OSM    H2G13598   4.869   3.048   7.113 -1.7535  0.2796 -0.2928
  127OSM    C3F13599   5.020   2.933   7.011 -0.0033 -0.4613  0.7082
  127OSM    H3F13600   5.087   3.019   7.029 -2.5760  1.9652 -0.7760
  127OSM    H3G13601   5.024   2.893   6.908 -0.8445 -0.0071  0.4925
  127OSM    C4F13602   5.058   2.822   7.113 -0.9034  0.0212  0.3387
  127OSM    H4F13603   5.166   2.797   7.104 -1.1329 -0.7071 -0.4798
  127OSM    H4G13604   5.007   2.729   7.079 -2.2261  0.6647  0.5698
  127OSM    C5F13605   5.030   2.853   7.264  1.0887 -1.0013  1.1205
  127OSM    H5F13606   4.920   2.866   7.271  1.1476  0.2822 -0.1543
  127OSM    H5G13607   5.072   2.954   7.285 -0.8728 -0.4888  2.7338
  127OSM    C6F13608   5.068   2.744   7.359  0.1298 -0.1946 -0.4148
  127OSM    H6F13609   5.168   2.707   7.326  1.4313  3.9377 -1.3533
  127OSM    H6G13610   4.995   2.660   7.358  2.2286 -2.0684 -0.5073
  127OSM    C7F13611   5.061   2.800   7.501  0.3245 -0.1096  0.2998
  127OSM    H7F13612   4.961   2.845   7.514  0.3162  0.5185 -1.6576
  127OSM    H7G13613   5.137   2.880   7.486  0.6754 -0.3812  0.6339
  127OSM    C8F13614   5.091   2.703   7.618 -0.4931 -0.4569 -0.1190
  127OSM    H8F13615   5.108   2.760   7.712  1.5092  1.3559 -1.5206
  127OSM    H8G13616   5.192   2.661   7.597 -0.5326  0.1351 -1.5418
  127OSM    C9F13617   4.972   2.605   7.612 -0.2469 -0.1319 -0.0006
  127OSM    H9F13618   4.931   2.587   7.512 -0.0573 -0.3450 -0.0403
  127OSM   C10F13619   4.907   2.554   7.717  0.1239 -0.9115 -0.7057
  127OSM   H10F13620   4.815   2.498   7.696 -0.5152  0.7193 -2.4773
  127OSM   C11F13621   4.937   2.587   7.862  0.0380 -0.0272  0.2219
  127OSM   H11F13622   4.853   2.569   7.932  0.5998  0.7552  1.1040
  127OSM   H11G13623   4.960   2.695   7.865  1.0857 -0.2330 -0.2028
  127OSM   C12F13624   5.059   2.516   7.931  0.5199  0.0917 -0.2707
  127OSM   H12F13625   5.154   2.530   7.875  0.0580  0.0371 -1.0798
  127OSM   H12G13626   5.047   2.406   7.919  0.4155  0.0885 -0.1420
  127OSM   C13F13627   5.060   2.548   8.078  0.2228 -0.1747  0.4412
  127OSM   H13F13628   4.985   2.495   8.140 -1.3442  0.9490 -0.4544
  127OSM   H13G13629   5.047   2.658   8.091 -1.2018 -0.2705 -0.1402
  127OSM   C14F13630   5.197   2.509   8.135  0.7083  0.4845  0.4722
  127OSM   H14F13631   5.283   2.532   8.068 -1.6027  0.0894 -2.7695
  127OSM   H14G13632   5.203   2.399   8.140  0.1472  0.4557  0.4829
  127OSM   C15F13633   5.218   2.586   8.266  0.2799  0.2026 -0.2334
  127OSM   H15F13634   5.167   2.684   8.254  2.6007  1.4648 -0.1527
  127OSM   H15G13635   5.322   2.624   8.277  0.1021  0.9534 -1.0700
  127OSM   C16F13636   5.161   2.507   8.390 -0.3481 -0.5297  0.1994
  127OSM   H16F13637   5.063   2.463   8.362 -1.4407  0.9190  1.6934
  127OSM   H16G13638   5.132   2.582   8.466 -1.5335  0.4437 -1.1683
  127OSM   C17F13639   5.265   2.410   8.448 -0.1479  0.0183 -0.1783
  127OSM   H17F13640   5.337   2.472   8.506  1.9383 -1.3409 -1.2607
  127OSM   H17G13641   5.321   2.365   8.363  3.9062  0.1093  2.3231
  127OSM   C18F13642   5.204   2.295   8.527 -0.4460 -0.3930  0.2536
  127OSM   H18F13643   5.111   2.272   8.471  0.0870 -1.4282 -0.2147
  127OSM   H18G13644   5.175   2.330   8.628  0.8363  2.8036 -0.4516
  127OSM   H18H13645   5.277   2.211   8.520 -1.0729 -0.8657 -0.7564
  128OSM      N13646   4.648   0.718   6.009  0.1898  0.2757 -0.3458
  128OSM    C1513647   4.673   0.863   6.037 -0.3978  0.2312  0.4879
  128OSM   H15A13648   4.587   0.918   6.002 -0.7970 -0.3225  0.5882
  128OSM   H15B13649   4.760   0.903   5.987 -0.3905 -0.8050 -0.3388
  128OSM   H15C13650   4.679   0.876   6.144 -5.2302  2.7899  0.6209
  128OSM    C1413651   4.622   0.706   5.866  1.1779 -0.2887  0.4357
  128OSM   H14A13652   4.603   0.601   5.848 -0.0286  0.0505 -0.4121
  128OSM   H14B13653   4.714   0.721   5.810  1.8455  1.4058  1.9561
  128OSM   H14C13654   4.555   0.782   5.828  1.4826  0.4765  1.3957
  128OSM    C1313655   4.771   0.634   6.037  0.0887 -0.1792 -0.3731
  128OSM   H13A13656   4.857   0.686   5.998  0.5230  0.3932  1.3054
  128OSM   H13B13657   4.756   0.541   5.984 -0.8955 -0.1653 -0.1230
  128OSM   H13C13658   4.786   0.602   6.140  0.0517 -2.3611 -1.0130
  128OSM    C1213659   4.534   0.665   6.093  0.4184  0.0590  0.7561
  128OSM   H12A13660   4.510   0.560   6.083  1.0000  0.0506 -0.7036
  128OSM   H12B13661   4.441   0.717   6.072 -0.7142 -1.3831  2.1191
  128OSM    C1113662   4.544   0.686   6.254 -0.0599  0.4074  0.1868
  128OSM   H11A13663   4.648   0.649   6.272  0.7209  2.3725 -0.1285
  128OSM   H11B13664   4.473   0.616   6.302  0.9165 -0.4760  0.3689
  128OSM      P13665   4.388   0.877   6.326 -0.0159 -0.5881  0.1179
  128OSM    O1313666   4.396   1.003   6.399 -0.1586  0.0944  0.5259
  128OSM    O1413667   4.318   0.886   6.191 -0.0491  0.0967  0.2737
  128OSM    O1113668   4.311   0.778   6.420 -0.5405 -0.3429 -0.7520
  128OSM    O1213669   4.537   0.813   6.314 -0.0293 -0.1047 -0.7401
  128OSM    C1S13670   4.371   0.715   6.539 -0.5936  0.1084 -0.2576
  128OSM    H1S13671   4.482   0.707   6.538 -0.3166  3.0411  0.4083
  128OSM    H1T13672   4.330   0.612   6.535 -0.2372  0.0172 -1.8822
  128OSM     NF13673   4.387   0.717   6.785  0.0159 -0.3025  0.0245
  128OSM    HNF13674   4.326   0.688   6.859  0.0192 -1.8267 -0.5585
  128OSM    C2S13675   4.321   0.788   6.672  0.3592  0.0096 -0.4656
  128OSM    H2S13676   4.356   0.893   6.668  1.7768 -0.4288 -0.0231
  128OSM    C3S13677   4.162   0.800   6.680  0.9031  0.4567 -0.7102
  128OSM    H3S13678   4.132   0.699   6.716  1.1543  0.7517  0.3465
  128OSM     O313679   4.099   0.837   6.555 -0.1019  0.5370 -0.3809
  128OSM    HO313680   4.176   0.829   6.499  1.1089  0.5095  1.2701
  128OSM    C4S13681   4.120   0.903   6.794  0.3768  0.8842 -0.0769
  128OSM    H4S13682   4.141   1.009   6.770  0.1896  0.8503 -0.4033
  128OSM    C5S13683   4.032   0.871   6.892 -0.2061  0.3732 -0.4118
  128OSM    H5S13684   3.986   0.771   6.895  0.8981 -0.1316 -0.1006
  128OSM    C6S13685   3.984   0.969   6.994 -0.3790  0.2051  0.0826
  128OSM    H6S13686   4.059   0.967   7.076  0.0212 -1.2483 -0.3135
  128OSM    H6T13687   3.882   0.940   7.029  0.6531 -1.8081  1.4960
  128OSM    C7S13688   3.965   1.110   6.943 -0.1146 -0.9303 -0.5588
  128OSM    H7S13689   3.894   1.099   6.858 -0.1004  2.5768 -1.0949
  128OSM    H7T13690   4.062   1.149   6.904  0.0794 -1.1137 -0.2657
  128OSM    C8S13691   3.893   1.205   7.043  0.3401 -0.0377 -0.2293
  128OSM    H8S13692   3.804   1.158   7.088 -0.0692  1.0442  0.0993
  128OSM    H8T13693   3.868   1.296   6.984  0.1076 -0.0900 -0.2121
  128OSM    C9S13694   3.989   1.247   7.156 -1.0032 -0.0245 -0.6220
  128OSM    H9S13695   4.082   1.293   7.118 -0.4162  0.4053  1.2719
  128OSM    H9T13696   4.021   1.158   7.214 -1.4747 -0.8895 -1.6705
  128OSM   C10S13697   3.926   1.350   7.256  0.5088  0.0625 -0.1738
  128OSM   H10S13698   3.841   1.317   7.319  0.6987 -1.1447 -0.5400
  128OSM   H10T13699   3.896   1.437   7.194 -1.7126 -0.0119  0.7649
  128OSM   C11S13700   4.029   1.418   7.350  0.2920  0.0825 -0.4264
  128OSM   H11S13701   3.983   1.517   7.374 -0.6632 -0.2618 -0.8299
  128OSM   H11T13702   4.121   1.440   7.293  0.6691 -0.6500 -0.1030
  128OSM   C12S13703   4.057   1.336   7.476 -0.3011  0.2241  0.3517
  128OSM   H12S13704   4.096   1.238   7.442  1.6378  1.2841 -0.5523
  128OSM   H12T13705   3.954   1.318   7.513 -0.9442  0.7269 -1.1534
  128OSM   C13S13706   4.145   1.403   7.583  0.0229  0.1558  0.4889
  128OSM   H13S13707   4.093   1.500   7.593 -2.5176 -0.9812 -1.0843
  128OSM   H13T13708   4.249   1.423   7.548 -0.3741  2.0214  0.3105
  128OSM   C14S13709   4.149   1.329   7.716  0.1714  0.3655 -0.2620
  128OSM   H14S13710   4.188   1.227   7.699  1.9639  1.2683 -1.7242
  128OSM   H14T13711   4.051   1.295   7.755 -0.0419  2.6497  1.3081
  128OSM   C15S13712   4.225   1.401   7.826 -0.2747 -0.1722 -0.1647
  128OSM   H15S13713   4.190   1.503   7.851 -1.0969 -0.3069 -0.7294
  128OSM   H15T13714   4.329   1.416   7.789  0.0868 -1.9120  0.1110
  128OSM   C16S13715   4.234   1.338   7.965  0.1065 -0.5369  0.5019
  128OSM   H16S13716   4.297   1.399   8.034 -1.3878 -1.1561  2.4556
  128OSM   H16T13717   4.295   1.248   7.945  1.9137  0.8730 -0.5133
  128OSM   C17S13718   4.095   1.308   8.030 -0.4586  0.2516 -0.1614
  128OSM   H17S13719   4.098   1.235   8.113  0.3984  3.2794  2.5770
  128OSM   H17T13720   4.030   1.250   7.961 -0.8605  0.2139  0.2488
  128OSM   C18S13721   4.014   1.436   8.070  0.3110  0.4563 -0.1900
  128OSM   H18S13722   3.909   1.423   8.105  0.4152  1.6817  0.5990
  128OSM   H18T13723   3.998   1.492   7.975 -2.2947  0.5917  0.2965
  128OSM   H18U13724   4.075   1.494   8.143  3.8412 -2.2533 -0.8682
  128OSM    C1F13725   4.521   0.708   6.803  0.5503  0.1002  0.1236
  128OSM     OF13726   4.599   0.784   6.744 -0.8807 -0.1283 -0.8632
  128OSM    C2F13727   4.577   0.610   6.896 -0.0489  0.3339 -1.0196
  128OSM    H2F13728   4.588   0.513   6.843  0.8560 -0.5981  0.8543
  128OSM    H2G13729   4.505   0.601   6.980  0.1193  1.2645 -0.7685
  128OSM    C3F13730   4.721   0.646   6.947  0.9164 -0.0399  0.2739
  128OSM    H3F13731   4.714   0.741   7.004 -1.4577  0.0047 -0.0046
  128OSM    H3G13732   4.795   0.647   6.864  0.0320 -1.8786 -0.5534
  128OSM    C4F13733   4.773   0.525   7.037 -0.2249  0.0742 -0.0503
  128OSM    H4F13734   4.802   0.447   6.964  1.1388  1.0093 -0.5226
  128OSM    H4G13735   4.690   0.494   7.104 -0.6228  0.3794 -0.3962
  128OSM    C5F13736   4.887   0.559   7.136 -0.1741 -0.8575 -0.5825
  128OSM    H5F13737   4.966   0.620   7.087 -1.8997  0.4593 -1.7969
  128OSM    H5G13738   4.936   0.468   7.177 -0.3480 -0.0411  1.5349
  128OSM    C6F13739   4.841   0.645   7.253  0.4890 -0.4079  1.0548
  128OSM    H6F13740   4.776   0.580   7.316 -0.0871  0.0033  0.8814
  128OSM    H6G13741   4.784   0.735   7.224 -1.3213 -1.1033  2.3782
  128OSM    C7F13742   4.960   0.691   7.333  0.9983  0.2765  0.1391
  128OSM    H7F13743   5.033   0.728   7.258  2.2685 -1.7337  0.3380
  128OSM    H7G13744   5.012   0.608   7.387  1.6474  0.7378  0.2303
  128OSM    C8F13745   4.940   0.801   7.436 -0.5864 -0.1310  0.2745
  128OSM    H8F13746   4.878   0.754   7.515 -1.2405  0.0211 -0.1458
  128OSM    H8G13747   4.870   0.871   7.385  1.5009 -0.1227 -2.6710
  128OSM    C9F13748   5.067   0.858   7.481 -1.4890  0.1408 -0.1267
  128OSM    H9F13749   5.140   0.881   7.402 -0.2486 -2.2606  0.2944
  128OSM   C10F13750   5.092   0.893   7.606  0.4972 -0.3762  0.0625
  128OSM   H10F13751   5.196   0.920   7.628 -0.2779  4.2609 -1.5698
  128OSM   C11F13752   4.996   0.871   7.724  0.0315 -0.4029  0.4984
  128OSM   H11F13753   5.010   0.764   7.750  1.1474  0.0350  1.7695
  128OSM   H11G13754   4.890   0.887   7.697  0.7118  0.7625 -1.6132
  128OSM   C12F13755   5.025   0.963   7.843 -0.0666 -0.7365 -0.4013
  128OSM   H12F13756   5.028   1.068   7.808 -0.8333 -0.8118 -0.7101
  128OSM   H12G13757   5.128   0.946   7.879  0.9542  0.7239 -2.4933
  128OSM   C13F13758   4.919   0.951   7.945 -0.4199  0.6777 -0.1467
  128OSM   H13F13759   4.879   0.847   7.943 -1.7728  1.1966 -0.9418
  128OSM   H13G13760   4.831   1.010   7.911 -0.8362  0.3840  0.4076
  128OSM   C14F13761   4.955   1.005   8.080  0.6000  1.5164 -0.1435
  128OSM   H14F13762   4.991   1.111   8.079 -0.2313  1.8028 -1.6719
  128OSM   H14G13763   5.039   0.945   8.118 -0.5334  0.4159  0.6449
  128OSM   C15F13764   4.845   0.987   8.182  0.4344  0.3843  0.1544
  128OSM   H15F13765   4.771   1.065   8.153 -1.0552 -1.3181 -0.6843
  128OSM   H15G13766   4.884   0.993   8.286 -1.4319  3.0303  0.7546
  128OSM   C16F13767   4.759   0.866   8.172  0.4698 -0.2608 -0.6992
  128OSM   H16F13768   4.822   0.775   8.169  1.8044  0.6889 -2.6820
  128OSM   H16G13769   4.707   0.859   8.074 -0.8951 -1.0670  0.0641
  128OSM   C17F13770   4.644   0.848   8.283 -0.1347  0.5557  0.2451
  128OSM   H17F13771   4.576   0.935   8.279  0.5936  1.0836 -0.6549
  128OSM   H17G13772   4.694   0.847   8.382 -2.7794 -0.7503  1.6271
  128OSM   C18F13773   4.559   0.714   8.286 -0.0765 -0.5939 -0.2066
  128OSM   H18F13774   4.632   0.633   8.308 -0.7266 -0.6858  1.7192
  128OSM   H18G13775   4.505   0.694   8.191 -1.7569 -1.2742  0.8771
  128OSM   H18H13776   4.485   0.704   8.367 -1.2153 -0.2576 -1.1921
  129OSM      N13777   3.093   2.501   6.066 -0.3957  0.4335 -0.2589
  129OSM    C1513778   3.073   2.354   6.085  0.8462 -0.0051  0.3391
  129OSM   H15A13779   3.092   2.303   5.992  2.1206 -0.6891  0.9781
  129OSM   H15B13780   2.969   2.328   6.095  0.7797  0.1070 -0.0295
  129OSM   H15C13781   3.136   2.303   6.156  0.6247 -1.5257 -0.5320
  129OSM    C1413782   3.240   2.522   6.058 -0.7090 -0.5158  0.0654
  129OSM   H14A13783   3.276   2.484   5.964  0.4208  1.5344 -0.3676
  129OSM   H14B13784   3.292   2.472   6.138  0.3581  0.1175 -0.2233
  129OSM   H14C13785   3.278   2.623   6.062  1.2191 -1.1825 -0.5710
  129OSM    C1313786   3.020   2.538   5.940  0.1244 -0.1356 -0.1106
  129OSM   H13A13787   3.035   2.465   5.862 -0.0259 -1.1569  0.7962
  129OSM   H13B13788   3.051   2.633   5.898 -1.4836  0.4867  0.0426
  129OSM   H13C13789   2.914   2.557   5.953  0.1518  0.3763 -0.5915
  129OSM    C1213790   3.048   2.571   6.189 -0.6045  0.3244  0.1096
  129OSM   H12A13791   3.087   2.672   6.184  2.5932 -0.8165  0.4533
  129OSM   H12B13792   3.098   2.528   6.275  1.0432  1.4551 -0.2685
  129OSM    C1113793   2.901   2.568   6.229  0.3601 -0.2702  0.4732
  129OSM   H11A13794   2.894   2.618   6.328  1.2373  3.7619 -1.4017
  129OSM   H11B13795   2.871   2.461   6.235  0.0945 -0.2099  0.2411
  129OSM      P13796   2.814   2.794   6.121 -0.2620  0.0863  0.0468
  129OSM    O1313797   2.946   2.858   6.144 -0.6574  0.1584 -0.1488
  129OSM    O1413798   2.747   2.819   5.990 -0.5698  0.6216  0.2997
  129OSM    O1113799   2.712   2.834   6.230  0.4294  0.4397  0.2287
  129OSM    O1213800   2.821   2.637   6.138  0.4793 -0.4830  1.2479
  129OSM    C1S13801   2.619   2.757   6.305 -0.0023 -0.0018  0.4311
  129OSM    H1S13802   2.623   2.650   6.276  1.1001 -0.2912  1.5835
  129OSM    H1T13803   2.514   2.791   6.292  0.5585  1.5145 -0.2747
  129OSM     NF13804   2.567   2.664   6.522  0.2190 -0.1178 -0.6452
  129OSM    HNF13805   2.485   2.693   6.570  0.7933 -0.9897  0.9120
  129OSM    C2S13806   2.638   2.765   6.454  0.0725  0.0719  0.1691
  129OSM    H2S13807   2.747   2.752   6.472 -0.1268 -0.7447  0.8019
  129OSM    C3S13808   2.598   2.909   6.495 -0.4379  0.9347 -0.4108
  129OSM    H3S13809   2.491   2.929   6.475 -0.8096 -0.4973  0.1114
  129OSM     O313810   2.668   3.008   6.418 -0.1717  0.0150 -0.1608
  129OSM    HO313811   2.725   2.949   6.367  0.2632  0.7719 -0.5590
  129OSM    C4S13812   2.620   2.920   6.643  0.6947 -0.4016  0.5630
  129OSM    H4S13813   2.525   2.907   6.696 -0.3941 -3.9955 -2.0363
  129OSM    C5S13814   2.737   2.953   6.701  0.3731  0.3166 -0.0714
  129OSM    H5S13815   2.815   2.977   6.628  1.6780  0.9345  1.5007
  129OSM    C6S13816   2.757   2.958   6.853 -0.1957  0.2234  0.4858
  129OSM    H6S13817   2.683   2.898   6.910  2.2065 -2.0322  1.3778
  129OSM    H6T13818   2.762   3.061   6.894 -1.0759  0.1858  0.6910
  129OSM    C7S13819   2.891   2.887   6.891 -0.0763  0.2555  0.1067
  129OSM    H7S13820   2.969   2.955   6.852 -1.2818  1.8918  0.5107
  129OSM    H7T13821   2.910   2.790   6.839 -0.6341 -0.4168  1.1324
  129OSM    C8S13822   2.912   2.885   7.041 -0.2030  0.2228 -0.3902
  129OSM    H8S13823   2.835   2.821   7.088 -0.5848  1.4177  0.6352
  129OSM    H8T13824   2.911   2.988   7.082 -1.1221  0.8931 -2.0166
  129OSM    C9S13825   3.046   2.816   7.083  0.0646 -0.1588 -0.4515
  129OSM    H9S13826   3.126   2.877   7.035 -0.6397 -1.0246 -2.8238
  129OSM    H9T13827   3.052   2.724   7.020 -0.0531 -0.6653  0.2767
  129OSM   C10S13828   3.074   2.795   7.227  0.4646  0.1098  0.8367
  129OSM   H10S13829   3.171   2.742   7.234 -0.9235 -3.0064 -2.0790
  129OSM   H10T13830   2.998   2.725   7.270 -0.3032  0.5798  0.2498
  129OSM   C11S13831   3.090   2.918   7.315  0.3639 -0.8344  0.0399
  129OSM   H11S13832   2.992   2.949   7.357  0.0649  1.1550 -2.0600
  129OSM   H11T13833   3.139   3.000   7.259 -1.9810  0.0943 -0.7306
  129OSM   C12S13834   3.171   2.886   7.441 -0.3782 -0.5460  0.5589
  129OSM   H12S13835   3.267   2.842   7.405 -1.8239 -3.1370 -0.2790
  129OSM   H12T13836   3.105   2.823   7.504 -2.7029  1.8759  0.6544
  129OSM   C13S13837   3.213   3.006   7.528 -0.3544  0.2771  0.1216
  129OSM   H13S13838   3.270   3.073   7.460  0.6670  0.0012  0.7007
  129OSM   H13T13839   3.282   2.973   7.608 -1.7707 -2.9819  0.0637
  129OSM   C14S13840   3.089   3.071   7.582  0.4338  0.3137 -0.2497
  129OSM   H14S13841   3.034   2.987   7.631  1.1248  0.0320  0.0386
  129OSM   H14T13842   3.034   3.104   7.491  1.3372  1.4454 -0.3923
  129OSM   C15S13843   3.106   3.191   7.672 -0.7960  0.0896  0.2101
  129OSM   H15S13844   3.010   3.237   7.705 -0.4308 -0.7255  2.4894
  129OSM   H15T13845   3.166   3.264   7.614 -2.8207  1.5072 -0.1984
  129OSM   C16S13846   3.188   3.158   7.796  0.1457  0.0216 -0.4598
  129OSM   H16S13847   3.297   3.173   7.784  0.4230 -0.3484  1.4616
  129OSM   H16T13848   3.178   3.051   7.827  0.6830  0.4226  1.1304
  129OSM   C17S13849   3.145   3.232   7.917 -0.0900 -0.6096 -0.1357
  129OSM   H17S13850   3.048   3.189   7.950 -0.3031  0.1292  0.2071
  129OSM   H17T13851   3.132   3.339   7.890  1.8796 -0.4517 -0.5554
  129OSM   C18S13852   3.249   3.212   8.030 -1.0065  0.3543 -0.2884
  129OSM   H18S13853   3.220   3.116   8.077  0.0928 -0.7370 -1.7736
  129OSM   H18T13854   3.236   3.297   8.101  0.5435 -0.0778  0.5390
  129OSM   H18U13855   3.353   3.209   7.991 -1.8521  0.7271 -2.6164
  129OSM    C1F13856   2.594   2.534   6.518 -0.1436  0.5829  0.7001
  129OSM     OF13857   2.697   2.500   6.458  0.4623 -0.2247  0.1200
  129OSM    C2F13858   2.497   2.435   6.581  0.2082  0.6382 -0.3141
  129OSM    H2F13859   2.423   2.396   6.507  1.3211  0.5941 -1.4286
  129OSM    H2G13860   2.439   2.493   6.655 -0.1926  1.6732 -1.4283
  129OSM    C3F13861   2.556   2.320   6.665  0.0098 -0.5777 -0.9342
  129OSM    H3F13862   2.614   2.254   6.596  2.4625 -0.3282  0.8127
  129OSM    H3G13863   2.474   2.265   6.716  0.0668  0.3163  0.1452
  129OSM    C4F13864   2.666   2.362   6.764  0.1111 -0.6478  0.0804
  129OSM    H4F13865   2.740   2.422   6.707  2.8111 -2.6394  1.3689
  129OSM    H4G13866   2.719   2.275   6.810 -1.8125 -0.9014  1.8853
  129OSM    C5F13867   2.619   2.463   6.873 -0.4733 -0.0641 -0.4164
  129OSM    H5F13868   2.544   2.419   6.942 -0.7783  1.7889  0.4923
  129OSM    H5G13869   2.564   2.545   6.822  1.4717  0.7445 -1.2722
  129OSM    C6F13870   2.732   2.522   6.957 -0.2441 -0.6736 -0.0025
  129OSM    H6F13871   2.700   2.614   7.012  1.3602 -1.6274  2.6172
  129OSM    H6G13872   2.807   2.568   6.890  0.4492  0.3158  1.4304
  129OSM    C7F13873   2.812   2.419   7.041 -0.6900 -0.6186  0.0640
  129OSM    H7F13874   2.877   2.485   7.102 -2.1372  0.2078  0.7419
  129OSM    H7G13875   2.880   2.367   6.970  0.7166  1.3021 -0.0379
  129OSM    C8F13876   2.738   2.333   7.144 -0.5047  0.1084  0.4777
  129OSM    H8F13877   2.806   2.260   7.193 -0.6222 -2.1516 -2.5666
  129OSM    H8G13878   2.649   2.282   7.102 -2.2154  1.5913  2.1951
  129OSM    C9F13879   2.680   2.429   7.245 -0.1264  0.2256 -0.0564
  129OSM    H9F13880   2.591   2.485   7.213  0.7708  0.9359 -1.3838
  129OSM   C10F13881   2.733   2.455   7.363  0.3634 -1.3164  0.5509
  129OSM   H10F13882   2.692   2.540   7.419  3.0753  0.6447 -0.3497
  129OSM   C11F13883   2.859   2.401   7.416 -0.4228 -0.4137 -0.1673
  129OSM   H11F13884   2.943   2.464   7.381  1.3890 -1.5817  1.9909
  129OSM   H11G13885   2.889   2.303   7.373  2.0805 -0.4318  1.5649
  129OSM   C12F13886   2.881   2.387   7.570 -0.7988 -0.5891 -0.8447
  129OSM   H12F13887   2.985   2.353   7.591 -1.2411 -0.9237  0.8074
  129OSM   H12G13888   2.828   2.297   7.605  1.3804 -0.9530  1.7008
  129OSM   C13F13889   2.877   2.513   7.657  0.2184  0.2696  0.5336
  129OSM   H13F13890   2.780   2.566   7.665 -0.5428 -0.9779 -0.1353
  129OSM   H13G13891   2.954   2.583   7.619 -0.0217  0.4027  0.2901
  129OSM   C14F13892   2.904   2.487   7.800 -0.5410 -0.0067 -0.5313
  129OSM   H14F13893   2.913   2.585   7.852 -1.8058 -0.2743  0.2277
  129OSM   H14G13894   2.996   2.430   7.825 -0.1287  0.4977 -0.8891
  129OSM   C15F13895   2.784   2.421   7.871 -0.0698  0.8301  0.1592
  129OSM   H15F13896   2.764   2.317   7.838  0.4563  0.5507  0.7129
  129OSM   H15G13897   2.694   2.479   7.842  0.4997  1.2553 -0.7820
  129OSM   C16F13898   2.785   2.423   8.028 -0.2571 -0.5634  0.6285
  129OSM   H16F13899   2.796   2.528   8.060 -1.1925  0.3714 -1.9790
  129OSM   H16G13900   2.866   2.362   8.075  0.3182  1.7163  2.6527
  129OSM   C17F13901   2.646   2.384   8.082 -0.5293  0.4050 -0.1005
  129OSM   H17F13902   2.610   2.296   8.024  1.1805  0.1683 -0.8288
  129OSM   H17G13903   2.565   2.457   8.058 -2.2869 -1.0379  1.3391
  129OSM   C18F13904   2.635   2.360   8.228  0.3395  0.2152 -0.0260
  129OSM   H18F13905   2.615   2.458   8.278  2.5894 -0.8937  3.1840
  129OSM   H18G13906   2.734   2.329   8.268  0.4018 -1.1007 -1.1491
  129OSM   H18H13907   2.546   2.304   8.263  1.3699 -1.4325  0.0109
  130OSM      N13908   3.736   5.917   5.952  0.4516 -0.2516  0.3780
  130OSM    C1513909   3.749   5.769   5.940 -0.1280 -0.4750  0.3572
  130OSM   H15A13910   3.829   5.739   5.874 -2.6098 -4.3676 -1.0434
  130OSM   H15B13911   3.651   5.731   5.914 -0.6251  1.7658 -1.1280
  130OSM   H15C13912   3.781   5.722   6.032 -1.1303 -1.1954  0.3413
  130OSM    C1413913   3.668   5.963   5.823  0.1509  0.2396  0.4561
  130OSM   H14A13914   3.664   6.071   5.823  3.1923  0.3962  0.3612
  130OSM   H14B13915   3.566   5.931   5.836  0.5456 -1.8612 -1.2754
  130OSM   H14C13916   3.727   5.932   5.738  0.6020  2.6614 -0.1540
  130OSM    C1313917   3.658   5.961   6.064  0.0614 -0.1983 -0.2698
  130OSM   H13A13918   3.721   5.950   6.151  0.6978  1.8127 -0.4413
  130OSM   H13B13919   3.571   5.899   6.075 -0.2720 -0.2237 -2.8415
  130OSM   H13C13920   3.630   6.065   6.059 -0.9492 -0.4072  0.9142
  130OSM    C1213921   3.875   5.979   5.963  0.2717  0.0968 -0.6975
  130OSM   H12A13922   3.864   6.082   5.993  0.1215 -0.2112  0.3432
  130OSM   H12B13923   3.927   5.968   5.869  1.5096 -1.5539  0.1553
  130OSM    C1113924   3.978   5.926   6.073 -0.2900 -0.0841 -0.6272
  130OSM   H11A13925   4.078   5.958   6.036  0.0565 -1.4643 -0.8951
  130OSM   H11B13926   3.984   5.815   6.077 -0.5333 -0.0877 -0.3830
  130OSM      P13927   3.972   6.138   6.225  0.0252 -0.1429  0.1798
  130OSM    O1313928   4.110   6.168   6.196  0.2696  0.0611 -0.3668
  130OSM    O1413929   3.873   6.219   6.148  0.1874 -0.0815  0.0712
  130OSM    O1113930   3.936   6.163   6.379 -0.5273 -0.4118 -0.4387
  130OSM    O1213931   3.941   5.980   6.202  0.5218 -0.4912  0.0749
  130OSM    C1S13932   3.938   6.047   6.463 -0.0719  0.0643  0.2823
  130OSM    H1S13933   4.029   5.987   6.443  0.6861  0.3025  2.7305
  130OSM    H1T13934   3.851   5.983   6.438 -0.3839  0.3641  0.5767
  130OSM     NF13935   3.970   5.992   6.705 -0.0272 -0.0337  0.5528
  130OSM    HNF13936   3.898   5.961   6.766 -0.8104  0.6067 -0.0451
  130OSM    C2S13937   3.933   6.096   6.611  0.3616  0.2108 -0.0742
  130OSM    H2S13938   4.017   6.168   6.622  0.7117 -0.4765  1.9327
  130OSM    C3S13939   3.800   6.170   6.641  0.6794  0.5893  0.5359
  130OSM    H3S13940   3.706   6.111   6.635  0.7111  0.7815 -2.0242
  130OSM     O313941   3.784   6.274   6.548 -0.1970  0.1771  0.3642
  130OSM    HO313942   3.846   6.248   6.479  0.4242  2.5173  0.0065
  130OSM    C4S13943   3.807   6.225   6.782 -0.2633 -0.5506 -0.3092
  130OSM    H4S13944   3.765   6.159   6.860 -1.5258  0.4611 -0.1107
  130OSM    C5S13945   3.849   6.349   6.825 -0.5116  0.0628  0.0940
  130OSM    H5S13946   3.901   6.415   6.754 -0.1589 -1.4357 -1.0625
  130OSM    C6S13947   3.860   6.391   6.975  0.5743 -0.0546 -0.2884
  130OSM    H6S13948   3.894   6.496   6.981 -1.4943  0.7655 -2.2811
  130OSM    H6T13949   3.939   6.331   7.025  0.6517  0.2818 -0.0045
  130OSM    C7S13950   3.719   6.374   7.042 -0.1099  0.4813  0.3692
  130OSM    H7S13951   3.694   6.266   7.050 -1.2792  0.6165 -1.3328
  130OSM    H7T13952   3.647   6.422   6.973  1.2269 -0.2643 -1.5826
  130OSM    C8S13953   3.726   6.443   7.180 -0.1008 -0.0902 -0.4299
  130OSM    H8S13954   3.749   6.550   7.159 -1.4118  0.8151  2.4608
  130OSM    H8T13955   3.807   6.394   7.237  0.1323 -1.3473 -1.7941
  130OSM    C9S13956   3.584   6.431   7.241 -0.5668  0.7123  0.4819
  130OSM    H9S13957   3.549   6.329   7.216 -1.0916  0.5285  1.9005
  130OSM    H9T13958   3.512   6.484   7.176 -1.4052 -0.1073  0.7423
  130OSM   C10S13959   3.558   6.454   7.389  0.6312  0.1273  0.9248
  130OSM   H10S13960   3.453   6.483   7.410  1.1516  4.1675 -1.3685
  130OSM   H10T13961   3.622   6.532   7.435 -0.2966 -0.6587  3.6632
  130OSM   C11S13962   3.620   6.343   7.482  0.4085  0.6482 -0.0882
  130OSM   H11S13963   3.727   6.316   7.468  0.3955  0.6706 -0.2304
  130OSM   H11T13964   3.556   6.258   7.448  1.3094  0.2370 -0.7589
  130OSM   C12S13965   3.595   6.387   7.623  0.2025  0.1464  0.2002
  130OSM   H12S13966   3.497   6.439   7.623  0.4879  0.8008 -3.2377
  130OSM   H12T13967   3.665   6.468   7.655 -0.2989  1.0146 -0.8729
  130OSM   C13S13968   3.612   6.285   7.732  0.2295 -0.6821 -0.1002
  130OSM   H13S13969   3.714   6.242   7.725  0.1279 -0.6376 -2.3214
  130OSM   H13T13970   3.545   6.198   7.716 -0.0222 -0.6608  0.7834
  130OSM   C14S13971   3.581   6.340   7.869 -0.1907 -0.5543 -0.1238
  130OSM   H14S13972   3.479   6.384   7.867 -1.2445 -2.7530  2.5547
  130OSM   H14T13973   3.648   6.428   7.880  0.9804 -1.3645 -0.6455
  130OSM   C15S13974   3.586   6.247   7.987 -0.3432 -0.1999  0.5847
  130OSM   H15S13975   3.581   6.313   8.076  1.3252  0.7961 -0.0405
  130OSM   H15T13976   3.677   6.183   7.990  1.2531  2.1039  2.7861
  130OSM   C16S13977   3.454   6.172   7.988  0.0075 -0.3861 -0.3335
  130OSM   H16S13978   3.447   6.099   7.904  1.1720 -0.8917  0.0066
  130OSM   H16T13979   3.378   6.253   7.987  1.0205  0.5754 -2.0188
  130OSM   C17S13980   3.422   6.083   8.113 -0.2046 -0.0725  0.3313
  130OSM   H17S13981   3.417   6.140   8.209  2.8262  2.0774 -0.7201
  130OSM   H17T13982   3.505   6.009   8.109 -1.0210 -0.9455 -1.0127
  130OSM   C18S13983   3.292   6.004   8.091  0.4214 -0.2142 -0.4399
  130OSM   H18S13984   3.295   5.957   7.990 -1.0792 -1.6655  0.1600
  130OSM   H18T13985   3.205   6.072   8.085  0.3788 -0.3502 -1.3800
  130OSM   H18U13986   3.290   5.917   8.160  0.4964  0.4323  0.3852
  130OSM    C1F13987   4.092   5.936   6.707 -0.0209  0.2531  1.4606
  130OSM     OF13988   4.179   5.969   6.628  0.1871 -0.1013  0.7764
  130OSM    C2F13989   4.103   5.811   6.795 -0.0215  0.5973 -0.1828
  130OSM    H2F13990   4.110   5.709   6.753  0.2125  0.4170  0.2946
  130OSM    H2G13991   4.013   5.813   6.860 -0.1680 -1.8702 -0.2550
  130OSM    C3F13992   4.228   5.825   6.892  0.4677 -0.2631  0.1080
  130OSM    H3F13993   4.206   5.897   6.973  0.7113 -2.1856  1.9422
  130OSM    H3G13994   4.310   5.853   6.822  0.5789 -1.2793 -0.1834
  130OSM    C4F13995   4.257   5.682   6.950 -0.3258  0.1266 -0.4620
  130OSM    H4F13996   4.363   5.671   6.981 -0.4579 -0.7329 -0.3032
  130OSM    H4G13997   4.249   5.614   6.862  2.1626 -1.9024  0.8175
  130OSM    C5F13998   4.156   5.643   7.062  0.5388  0.9702  0.4750
  130OSM    H5F13999   4.173   5.533   7.062 -0.8559  0.7073 -2.4714
  130OSM    H5G14000   4.053   5.661   7.024 -0.0668  1.2773  2.2326
  130OSM    C6F14001   4.178   5.713   7.192  0.8482  0.4002  0.4277
  130OSM    H6F14002   4.156   5.820   7.174  0.6581  0.4341  0.8515
  130OSM    H6G14003   4.287   5.706   7.211  1.4818 -0.2356 -3.1687
  130OSM    C7F14004   4.087   5.670   7.306  0.6076  0.0349  0.9083
  130OSM    H7F14005   4.095   5.559   7.308  1.3431  0.0608  0.0651
  130OSM    H7G14006   3.985   5.705   7.282  1.6218  0.9875 -2.3078
  130OSM    C8F14007   4.124   5.733   7.439  0.1077 -0.3284 -0.3604
  130OSM    H8F14008   4.121   5.842   7.422 -1.6824 -0.0180  1.7411
  130OSM    H8G14009   4.224   5.694   7.469 -0.5006  0.6115  3.0340
  130OSM    C9F14010   4.013   5.701   7.541  0.6593  0.2760 -0.3501
  130OSM    H9F14011   3.914   5.746   7.523 -0.4589 -2.2722 -0.7879
  130OSM   C10F14012   4.031   5.636   7.661 -0.3998 -0.0580  1.0325
  130OSM   H10F14013   3.937   5.624   7.718 -0.5167 -0.4865  0.7487
  130OSM   C11F14014   4.146   5.571   7.727 -0.3477 -0.3317 -0.3873
  130OSM   H11F14015   4.193   5.647   7.792  3.6026 -0.5465 -2.7845
  130OSM   H11G14016   4.219   5.559   7.644 -2.0327  0.9581 -2.1003
  130OSM   C12F14017   4.124   5.445   7.814  0.0203 -0.6690  0.3572
  130OSM   H12F14018   4.222   5.401   7.844  1.6124  2.1085 -0.6433
  130OSM   H12G14019   4.060   5.372   7.759 -0.2737 -0.0842 -0.0811
  130OSM   C13F14020   4.044   5.479   7.935  0.4905  0.0492 -0.8724
  130OSM   H13F14021   4.036   5.382   7.990 -1.0369  0.8479  0.3540
  130OSM   H13G14022   3.944   5.521   7.914 -0.3184 -1.3136  0.1743
  130OSM   C14F14023   4.101   5.586   8.037 -0.4847 -0.6407  1.1142
  130OSM   H14F14024   4.046   5.682   8.034  0.4993 -0.1266 -0.5664
  130OSM   H14G14025   4.204   5.618   8.012 -0.0204 -1.6208  1.7572
  130OSM   C15F14026   4.104   5.539   8.180 -0.1543 -0.0082 -0.5850
  130OSM   H15F14027   4.144   5.622   8.244  0.5282 -0.6647 -0.1431
  130OSM   H15G14028   4.169   5.449   8.174 -2.0246 -1.4733  0.7954
  130OSM   C16F14029   3.960   5.516   8.234 -0.3219  0.9101 -0.2745
  130OSM   H16F14030   3.911   5.427   8.189  0.2026 -0.6648  2.1835
  130OSM   H16G14031   3.899   5.601   8.195 -0.2410  1.1447  0.1125
  130OSM   C17F14032   3.954   5.497   8.384 -0.0028  0.4546 -0.2364
  130OSM   H17F14033   4.004   5.566   8.456  0.3970 -0.1977  0.1174
  130OSM   H17G14034   4.014   5.407   8.409 -0.5327  1.0036  3.2160
  130OSM   C18F14035   3.806   5.470   8.436 -0.1927  0.3292 -0.1879
  130OSM   H18F14036   3.758   5.375   8.406 -0.5806  0.5294 -0.1959
  130OSM   H18G14037   3.743   5.558   8.411 -2.2276 -0.9528  0.3761
  130OSM   H18H14038   3.812   5.486   8.546 -0.7668 -2.0888  0.2307
  131OSM      N14039   3.415   3.639   6.105 -0.2611  0.0269 -0.3417
  131OSM    C1514040   3.282   3.652   6.044 -0.8157  0.2539 -0.0659
  131OSM   H15A14041   3.294   3.684   5.941 -1.3300 -0.4275 -0.3437
  131OSM   H15B14042   3.212   3.720   6.089 -0.1273  1.8917 -1.4159
  131OSM   H15C14043   3.235   3.555   6.037  0.0916 -0.2454  0.6656
  131OSM    C1414044   3.496   3.550   6.010 -0.3478 -0.1433  0.0889
  131OSM   H14A14045   3.524   3.603   5.920 -2.7614 -0.1392 -0.6824
  131OSM   H14B14046   3.444   3.457   5.991  0.6375 -1.1582  2.1460
  131OSM   H14C14047   3.580   3.518   6.071 -0.1998 -0.5023 -0.2989
  131OSM    C1314048   3.480   3.769   6.115  0.6220  0.2481  0.0642
  131OSM   H13A14049   3.481   3.815   6.017 -0.5755  1.7767  0.7419
  131OSM   H13B14050   3.577   3.767   6.162  0.2295  0.5041  0.8856
  131OSM   H13C14051   3.417   3.834   6.174  1.2453  0.6625  0.2789
  131OSM    C1214052   3.395   3.574   6.249 -0.1463 -0.2687  0.8977
  131OSM   H12A14053   3.351   3.476   6.239  0.9781 -0.4956 -2.4996
  131OSM   H12B14054   3.329   3.639   6.305  0.6233  1.2916  0.0349
  131OSM    C1114055   3.518   3.555   6.344 -0.3137 -0.0729 -0.0821
  131OSM   H11A14056   3.487   3.549   6.451 -0.2003 -2.3434 -0.1521
  131OSM   H11B14057   3.562   3.657   6.350 -0.2045 -0.0545 -1.0896
  131OSM      P14058   3.591   3.303   6.306  0.0741  0.0783 -0.0435
  131OSM    O1314059   3.445   3.281   6.315 -0.5580  0.6462  0.2421
  131OSM    O1414060   3.660   3.230   6.201 -0.2101 -0.1603  0.2586
  131OSM    O1114061   3.643   3.256   6.451  0.0425 -0.4313 -0.7623
  131OSM    O1214062   3.619   3.460   6.304  0.4159  0.4896 -0.3028
  131OSM    C1S14063   3.764   3.300   6.520 -0.9817  0.1044 -0.0517
  131OSM    H1S14064   3.828   3.357   6.450 -1.0772 -0.1371 -0.3389
  131OSM    H1T14065   3.816   3.205   6.545 -0.5392  0.4160  0.2135
  131OSM     NF14066   3.859   3.427   6.703  0.2646 -0.6866 -0.1769
  131OSM    HNF14067   3.927   3.369   6.746  0.8374  1.3034  1.7079
  131OSM    C2S14068   3.738   3.374   6.646 -0.0865 -0.4205  0.7112
  131OSM    H2S14069   3.669   3.458   6.622 -0.8455 -0.0915  3.8256
  131OSM    C3S14070   3.655   3.285   6.746 -0.2690  0.5486  0.2837
  131OSM    H3S14071   3.716   3.193   6.760 -1.4245 -0.3584 -0.5173
  131OSM     O314072   3.531   3.241   6.690 -0.0960  0.3929 -0.6995
  131OSM    HO314073   3.540   3.257   6.595  1.9122  0.7631 -0.4638
  131OSM    C4S14074   3.627   3.370   6.877 -0.7760 -0.0217 -0.3151
  131OSM    H4S14075   3.610   3.477   6.859 -2.0480 -0.4138 -1.4875
  131OSM    C5S14076   3.638   3.336   7.009  0.7457  0.7249  0.3038
  131OSM    H5S14077   3.668   3.233   7.033 -1.0185  0.2350  0.4664
  131OSM    C6S14078   3.618   3.420   7.131 -0.5685 -0.0685  0.0260
  131OSM    H6S14079   3.536   3.377   7.193 -0.0995 -0.9969  0.0217
  131OSM    H6T14080   3.583   3.522   7.105 -0.1356 -0.6312 -2.9032
  131OSM    C7S14081   3.731   3.425   7.233 -0.2228 -0.4930  0.5726
  131OSM    H7S14082   3.822   3.482   7.204  0.0742 -1.6734 -0.9074
  131OSM    H7T14083   3.763   3.321   7.255 -0.1346 -0.6376 -0.2079
  131OSM    C8S14084   3.697   3.492   7.373 -0.0802 -0.2197  0.9399
  131OSM    H8S14085   3.614   3.431   7.414 -0.0098 -1.1493 -0.2499
  131OSM    H8T14086   3.657   3.594   7.355 -1.2532 -0.6116  1.2484
  131OSM    C9S14087   3.817   3.492   7.462  1.3536 -0.6276  0.9447
  131OSM    H9S14088   3.835   3.597   7.494 -0.3222  0.1627 -0.5977
  131OSM    H9T14089   3.902   3.476   7.391  1.7699 -0.6147  1.4328
  131OSM   C10S14090   3.807   3.396   7.572 -0.2280 -0.2465  0.1677
  131OSM   H10S14091   3.813   3.292   7.534 -0.4952  0.0037 -0.5726
  131OSM   H10T14092   3.702   3.395   7.608 -0.4881 -0.6413 -0.5879
  131OSM   C11S14093   3.905   3.434   7.681  0.0326 -0.1319  0.8677
  131OSM   H11S14094   3.869   3.528   7.728 -0.7223  0.3744 -0.7064
  131OSM   H11T14095   4.010   3.453   7.649 -0.8278  0.3657 -1.7224
  131OSM   C12S14096   3.902   3.327   7.786 -0.2014  0.0956  0.3576
  131OSM   H12S14097   3.947   3.236   7.741 -0.0368  0.1806  0.3489
  131OSM   H12T14098   3.798   3.301   7.816 -0.8655  0.1759 -1.7886
  131OSM   C13S14099   3.992   3.357   7.916  0.0591 -0.2117  0.3737
  131OSM   H13S14100   4.100   3.353   7.888 -0.6974 -0.5145 -2.6806
  131OSM   H13T14101   3.976   3.269   7.982  1.6822  0.6322  1.9258
  131OSM   C14S14102   3.972   3.493   7.979 -0.2581 -0.2964 -0.2044
  131OSM   H14S14103   3.863   3.496   8.003 -0.4434 -1.2364 -0.8578
  131OSM   H14T14104   3.992   3.568   7.900  0.8085  0.0857  0.4328
  131OSM   C15S14105   4.058   3.512   8.107 -0.4222 -0.4736 -0.6424
  131OSM   H15S14106   4.089   3.617   8.125  4.5613 -2.0521  0.7389
  131OSM   H15T14107   4.155   3.459   8.095 -1.4907 -2.5792 -0.3402
  131OSM   C16S14108   3.995   3.441   8.220  0.6091 -0.1956 -0.7349
  131OSM   H16S14109   3.981   3.334   8.193 -2.0858 -0.4249  1.3771
  131OSM   H16T14110   3.900   3.486   8.256 -1.0964 -0.5646 -4.5485
  131OSM   C17S14111   4.094   3.440   8.341  0.5166 -0.9257  0.3672
  131OSM   H17S14112   4.122   3.545   8.365  0.7333 -0.8230 -0.3113
  131OSM   H17T14113   4.183   3.390   8.296 -0.2816 -0.8860 -1.2829
  131OSM   C18S14114   4.041   3.357   8.461 -0.4580 -0.0320 -1.0381
  131OSM   H18S14115   4.015   3.259   8.417 -1.9670 -1.0879  2.1185
  131OSM   H18T14116   3.949   3.399   8.505  0.9378  3.0945 -0.9355
  131OSM   H18U14117   4.118   3.343   8.540 -2.6594 -1.6694  0.8620
  131OSM    C1F14118   3.922   3.541   6.657  0.1575  0.4168  0.1820
  131OSM     OF14119   3.849   3.630   6.614  0.0691 -0.0112 -0.4267
  131OSM    C2F14120   4.080   3.541   6.671 -0.1464  0.2392  0.5185
  131OSM    H2F14121   4.124   3.542   6.569 -0.1117 -3.5944  0.4023
  131OSM    H2G14122   4.113   3.441   6.708  3.6736  1.0827 -0.3504
  131OSM    C3F14123   4.127   3.662   6.758  0.0739  0.1510 -0.3578
  131OSM    H3F14124   4.096   3.757   6.710 -2.3118 -0.2229  0.3832
  131OSM    H3G14125   4.238   3.657   6.759  0.0200 -1.4328 -0.0620
  131OSM    C4F14126   4.079   3.665   6.908 -0.1271  0.4256 -0.2963
  131OSM    H4F14127   4.083   3.557   6.936  0.0962  0.0035 -1.8799
  131OSM    H4G14128   3.971   3.691   6.902 -0.5516 -1.3705 -0.7362
  131OSM    C5F14129   4.156   3.758   6.999 -0.5118  0.4728  0.3932
  131OSM    H5F14130   4.162   3.853   6.942  0.8058  1.5798  2.3169
  131OSM    H5G14131   4.255   3.709   7.010 -1.0506 -0.6883  0.1403
  131OSM    C6F14132   4.100   3.769   7.139 -0.1129 -0.4140 -0.4263
  131OSM    H6F14133   4.011   3.703   7.143 -1.2544  1.1025 -0.3861
  131OSM    H6G14134   4.073   3.874   7.163  0.6593 -0.8010  2.3549
  131OSM    C7F14135   4.191   3.711   7.251 -0.1616  0.0270 -0.4445
  131OSM    H7F14136   4.279   3.776   7.268 -0.1515 -0.5144  1.7542
  131OSM    H7G14137   4.227   3.610   7.223  1.6860  0.7701 -0.7680
  131OSM    C8F14138   4.118   3.703   7.385  0.3390  0.5829 -0.0320
  131OSM    H8F14139   4.022   3.650   7.366 -0.4588  1.7534  0.6926
  131OSM    H8G14140   4.078   3.801   7.420 -1.2126  0.4151 -1.2683
  131OSM    C9F14141   4.200   3.630   7.490 -0.1156  0.3588 -0.3388
  131OSM    H9F14142   4.222   3.527   7.456  2.5816  1.3881 -1.8658
  131OSM   C10F14143   4.242   3.677   7.612 -0.5180  0.8977 -1.1183
  131OSM   H10F14144   4.303   3.612   7.677 -0.9693  0.3227 -1.2637
  131OSM   C11F14145   4.213   3.814   7.665  0.0791 -0.2827 -0.1046
  131OSM   H11F14146   4.134   3.877   7.620  2.0646  3.4573  1.3745
  131OSM   H11G14147   4.301   3.877   7.644  0.4709 -0.6406  0.4269
  131OSM   C12F14148   4.189   3.807   7.815 -0.9675 -0.1682  0.3743
  131OSM   H12F14149   4.123   3.723   7.845  0.3884 -1.2745  0.2846
  131OSM   H12G14150   4.131   3.900   7.837 -1.6827 -0.5786  0.2289
  131OSM   C13F14151   4.312   3.814   7.910  0.2706 -0.8267 -0.1907
  131OSM   H13F14152   4.355   3.916   7.897  2.4493 -1.9632 -2.1924
  131OSM   H13G14153   4.395   3.747   7.882 -0.2917 -0.3706 -3.1337
  131OSM   C14F14154   4.281   3.787   8.053 -0.4395  0.5140  0.1469
  131OSM   H14F14155   4.289   3.676   8.060 -1.5903  0.5580  2.8152
  131OSM   H14G14156   4.179   3.818   8.083 -0.6580 -1.3930  1.4385
  131OSM   C15F14157   4.374   3.848   8.152 -0.2060  0.2274  0.4432
  131OSM   H15F14158   4.374   3.959   8.154 -1.0665  0.2264  0.7037
  131OSM   H15G14159   4.478   3.817   8.126  0.0736  1.9836 -0.5903
  131OSM   C16F14160   4.355   3.801   8.296  0.0134 -0.2182 -0.2571
  131OSM   H16F14161   4.363   3.692   8.311  2.0216 -0.0544 -0.0487
  131OSM   H16G14162   4.251   3.834   8.319 -0.3363 -1.4977  0.0143
  131OSM   C17F14163   4.439   3.873   8.402  0.6355  0.0564  0.0093
  131OSM   H17F14164   4.393   3.971   8.423  2.6296  0.4855  2.5804
  131OSM   H17G14165   4.546   3.892   8.376  0.6606  1.5242  1.1512
  131OSM   C18F14166   4.437   3.811   8.542  0.3982  0.5532  0.4289
  131OSM   H18F14167   4.447   3.701   8.553 -0.8685  0.1597 -1.9633
  131OSM   H18G14168   4.336   3.820   8.588  1.0387  2.8432  1.4239
  131OSM   H18H14169   4.516   3.854   8.606 -0.9109  1.5257  1.4238
  132OSM      N14170   6.342   1.250   6.209 -0.6973 -0.4419 -0.7231
  132OSM    C1514171   6.436   1.173   6.287  0.7277  0.0708  0.5310
  132OSM   H15A14172   6.458   1.075   6.246  1.8743  0.3824  0.3773
  132OSM   H15B14173   6.400   1.168   6.389 -0.2780  0.4090  0.1945
  132OSM   H15C14174   6.530   1.226   6.291  1.6630 -1.5262  0.3608
  132OSM    C1414175   6.294   1.374   6.284 -0.1963  0.3326  0.0075
  132OSM   H14A14176   6.220   1.430   6.229 -1.9376 -1.2071  0.7381
  132OSM   H14B14177   6.371   1.450   6.297  0.6000 -0.4780  0.0776
  132OSM   H14C14178   6.260   1.348   6.383  1.4415 -0.7252  0.3123
  132OSM    C1314179   6.410   1.301   6.087  0.5489 -0.2864 -1.2582
  132OSM   H13A14180   6.502   1.344   6.123  0.7968 -2.2174  0.5579
  132OSM   H13B14181   6.357   1.371   6.025 -1.2071 -0.3051  0.1810
  132OSM   H13C14182   6.441   1.211   6.036  3.6800 -0.5782  0.9938
  132OSM    C1214183   6.217   1.177   6.159 -0.5290 -0.5501  0.2767
  132OSM   H12A14184   6.156   1.253   6.113  2.8394  1.8881 -0.3143
  132OSM   H12B14185   6.160   1.134   6.241 -1.1572  0.1701  0.2249
  132OSM    C1114186   6.243   1.052   6.072  0.0002  0.5032  0.0281
  132OSM   H11A14187   6.291   1.076   5.974  0.4925 -0.0944  0.1214
  132OSM   H11B14188   6.147   1.010   6.036 -0.0400  0.1249  0.5642
  132OSM      P14189   6.238   0.838   6.218  0.0657  0.1519  0.2676
  132OSM    O1314190   6.153   0.771   6.116 -0.4912 -0.6555 -0.2542
  132OSM    O1414191   6.317   0.753   6.308 -0.1009  0.2273 -0.2704
  132OSM    O1114192   6.146   0.926   6.310 -0.2241  0.4433 -0.0688
  132OSM    O1214193   6.322   0.954   6.147 -0.0644 -0.7603 -1.3109
  132OSM    C1S14194   6.055   0.876   6.404 -0.1021  0.1348  0.0526
  132OSM    H1S14195   6.069   0.766   6.405  2.0965  0.3643 -1.0544
  132OSM    H1T14196   5.952   0.891   6.366  0.0006  1.8911  0.4268
  132OSM     NF14197   5.995   0.869   6.639 -0.8657  0.6468 -0.2083
  132OSM    HNF14198   5.904   0.903   6.661 -1.5373 -1.7180  0.7237
  132OSM    C2S14199   6.070   0.945   6.538 -0.1122 -0.1352 -0.0007
  132OSM    H2S14200   6.178   0.954   6.562  0.2853 -1.5760 -1.1671
  132OSM    C3S14201   6.013   1.092   6.528 -0.1446 -0.0427  0.5578
  132OSM    H3S14202   5.918   1.100   6.471  0.7660  1.3357 -0.7871
  132OSM     O314203   6.113   1.173   6.464  0.1668  0.4586  0.0582
  132OSM    HO314204   6.158   1.103   6.417 -0.2075 -0.2992  0.8037
  132OSM    C4S14205   5.997   1.145   6.666 -0.3266 -0.5238 -0.2048
  132OSM    H4S14206   6.096   1.166   6.709 -0.9051  1.7700  0.0747
  132OSM    C5S14207   5.884   1.179   6.728 -0.0571 -0.1148 -0.1715
  132OSM    H5S14208   5.789   1.160   6.677  0.4347  2.0692 -1.9995
  132OSM    C6S14209   5.885   1.232   6.866  0.1513 -0.3203  0.3656
  132OSM    H6S14210   5.852   1.338   6.863  0.3116 -0.3261 -1.6672
  132OSM    H6T14211   5.981   1.221   6.920 -1.2822 -2.8390  2.5621
  132OSM    C7S14212   5.767   1.174   6.955 -0.4308  0.3254  0.1770
  132OSM    H7S14213   5.766   1.063   6.960 -1.3137  0.3013 -0.5508
  132OSM    H7T14214   5.674   1.193   6.897  0.0218 -1.7273 -1.2928
  132OSM    C8S14215   5.764   1.233   7.093  0.0016  0.0222  0.1226
  132OSM    H8S14216   5.772   1.342   7.077  1.1742 -0.1425 -0.4684
  132OSM    H8T14217   5.856   1.200   7.146  0.7173  0.2630 -0.9700
  132OSM    C9S14218   5.639   1.179   7.173 -0.3502  0.1635 -0.0498
  132OSM    H9S14219   5.647   1.068   7.173  0.0766  0.1690  2.2110
  132OSM    H9T14220   5.556   1.209   7.106  0.6635 -0.3421 -1.5445
  132OSM   C10S14221   5.641   1.249   7.311 -0.0878  0.1374  0.3627
  132OSM   H10S14222   5.644   1.357   7.286  0.3181 -0.1039 -0.6757
  132OSM   H10T14223   5.737   1.223   7.359 -0.6317 -0.5626  1.0872
  132OSM   C11S14224   5.536   1.202   7.408 -0.2385 -0.3140 -0.2502
  132OSM   H11S14225   5.538   1.091   7.418  1.9192 -0.3242 -0.5143
  132OSM   H11T14226   5.431   1.225   7.381 -0.8049 -0.3425  1.8794
  132OSM   C12S14227   5.546   1.249   7.554  0.3369  0.5117 -0.3506
  132OSM   H12S14228   5.500   1.344   7.587 -0.9839 -0.1826 -0.1514
  132OSM   H12T14229   5.652   1.271   7.578  1.0639 -2.6582 -0.3431
  132OSM   C13S14230   5.496   1.136   7.645  0.0096  0.2752 -0.0025
  132OSM   H13S14231   5.565   1.050   7.633  0.2970  0.5157 -0.0612
  132OSM   H13T14232   5.393   1.096   7.630 -0.4752  1.3245  0.4428
  132OSM   C14S14233   5.505   1.173   7.792  0.4639 -0.5668  1.4824
  132OSM   H14S14234   5.439   1.260   7.813  0.3798 -0.4955  0.9183
  132OSM   H14T14235   5.601   1.225   7.811  0.5213 -0.5019  1.0106
  132OSM   C15S14236   5.493   1.069   7.899  0.3516 -0.7716 -0.3917
  132OSM   H15S14237   5.581   1.001   7.902  0.9721  0.0894  1.8227
  132OSM   H15T14238   5.405   1.003   7.882 -0.9040  0.5951  0.6046
  132OSM   C16S14239   5.482   1.132   8.037 -0.8698  0.0001 -0.3383
  132OSM   H16S14240   5.411   1.216   8.047 -2.9421 -1.7796  0.3238
  132OSM   H16T14241   5.581   1.183   8.049 -1.2941  0.7616 -0.0534
  132OSM   C17S14242   5.456   1.033   8.147 -0.4331 -0.5569  1.0215
  132OSM   H17S14243   5.510   1.069   8.237 -2.5051  0.9168  1.7232
  132OSM   H17T14244   5.504   0.938   8.116 -0.8200 -0.8949  1.4538
  132OSM   C18S14245   5.309   1.000   8.185  0.0285 -0.1626  0.1131
  132OSM   H18S14246   5.261   1.075   8.252 -2.6817 -3.4820  2.0722
  132OSM   H18T14247   5.295   0.907   8.244 -0.1300  0.1683  0.6015
  132OSM   H18U14248   5.245   0.981   8.096  1.1154  1.1815 -0.9779
  132OSM    C1F14249   6.048   0.765   6.705  0.2438 -0.1065 -0.0939
  132OSM     OF14250   6.156   0.720   6.678 -0.3557  0.2435  0.6958
  132OSM    C2F14251   5.968   0.709   6.821 -0.1767 -0.2020 -0.3229
  132OSM    H2F14252   6.008   0.610   6.853  1.2048  0.0027 -1.3376
  132OSM    H2G14253   5.867   0.691   6.780  0.2414  1.3534 -2.1228
  132OSM    C3F14254   5.966   0.800   6.945  0.4449  0.2940 -0.4632
  132OSM    H3F14255   5.934   0.899   6.908 -1.5686  0.6206  1.9749
  132OSM    H3G14256   6.071   0.808   6.981 -1.1895  0.0495  4.7221
  132OSM    C4F14257   5.881   0.757   7.068 -0.0169  0.2048  0.0049
  132OSM    H4F14258   5.901   0.650   7.088  0.1627  0.2878  0.2714
  132OSM    H4G14259   5.772   0.768   7.047  0.4225  1.7133 -1.6460
  132OSM    C5F14260   5.915   0.848   7.184  0.9854 -0.0366  0.1254
  132OSM    H5F14261   5.910   0.958   7.171 -0.2973 -0.0028  0.8207
  132OSM    H5G14262   6.014   0.822   7.227  1.8280 -0.7907 -2.2447
  132OSM    C6F14263   5.803   0.804   7.289  0.5180 -0.0078 -0.0133
  132OSM    H6F14264   5.819   0.702   7.330  1.7788  0.6688  1.2622
  132OSM    H6G14265   5.709   0.809   7.231  1.4407 -0.9855 -1.6406
  132OSM    C7F14266   5.808   0.897   7.406  0.0791  0.7214  0.5151
  132OSM    H7F14267   5.722   0.887   7.476 -0.8087  0.6572 -0.5846
  132OSM    H7G14268   5.810   1.004   7.377  0.9740 -0.4306 -4.0854
  132OSM    C8F14269   5.932   0.871   7.498  0.4798  0.0191  0.0162
  132OSM    H8F14270   6.028   0.872   7.443  1.3507  0.8157  1.5270
  132OSM    H8G14271   5.919   0.770   7.542  0.3521  0.2460  0.5047
  132OSM    C9F14272   5.926   0.979   7.603 -0.7170 -0.1450  0.1688
  132OSM    H9F14273   5.957   1.082   7.581  0.8167 -0.8517 -1.0912
  132OSM   C10F14274   5.878   0.964   7.727  0.0282  0.7815  0.7864
  132OSM   H10F14275   5.873   1.046   7.800  3.3179  0.4099  1.4977
  132OSM   C11F14276   5.812   0.841   7.780 -0.5562  0.0337 -0.0900
  132OSM   H11F14277   5.846   0.746   7.734  0.6589 -0.3891  1.6127
  132OSM   H11G14278   5.702   0.833   7.766 -0.6609  1.8667 -0.5406
  132OSM   C12F14279   5.811   0.836   7.937  0.9129 -0.3498  0.1227
  132OSM   H12F14280   5.797   0.937   7.981 -0.8104 -0.3254 -0.4531
  132OSM   H12G14281   5.906   0.798   7.981  1.2932  0.5572  0.1070
  132OSM   C13F14282   5.704   0.737   7.993 -0.0793 -0.7983 -0.0437
  132OSM   H13F14283   5.723   0.633   7.960 -0.5248 -0.5229 -1.2085
  132OSM   H13G14284   5.605   0.780   7.965 -0.0335 -0.3760  0.4244
  132OSM   C14F14285   5.719   0.735   8.146  0.4805  0.1773  0.3298
  132OSM   H14F14286   5.741   0.835   8.188 -0.7117  0.6288 -0.0933
  132OSM   H14G14287   5.810   0.672   8.156  0.6545 -0.1631 -2.7393
  132OSM   C15F14288   5.601   0.681   8.220 -0.1158  0.0369  0.0965
  132OSM   H15F14289   5.585   0.573   8.200  1.4928 -0.3058  0.6503
  132OSM   H15G14290   5.509   0.739   8.194  0.0548 -0.0726 -0.7312
  132OSM   C16F14291   5.631   0.691   8.371  0.1029 -0.4070  0.0455
  132OSM   H16F14292   5.656   0.799   8.385 -0.4191 -0.4540  1.4676
  132OSM   H16G14293   5.725   0.641   8.404 -0.2276 -0.3245  1.1282
  132OSM   C17F14294   5.516   0.653   8.464  0.2141  0.1658  0.5314
  132OSM   H17F14295   5.414   0.685   8.435 -0.5987 -0.7860  2.2296
  132OSM   H17G14296   5.538   0.701   8.562  0.6613  2.4053 -0.6346
  132OSM   C18F14297   5.516   0.503   8.498  0.4146 -0.0266 -0.5260
  132OSM   H18F14298   5.524   0.454   8.399  3.3063  1.8767 -1.2967
  132OSM   H18G14299   5.423   0.473   8.552  0.3151  1.4164  0.1323
  132OSM   H18H14300   5.594   0.475   8.571  0.7450  2.0625 -0.0517
  133SAPE     N14301   1.324   5.024  10.730 -0.0317 -0.0749 -0.4319
  133SAPE   HN114302   1.274   5.056  10.815  3.5907 -1.0139  2.2024
  133SAPE   HN214303   1.273   5.003  10.642  0.1366  2.0723 -1.0806
  133SAPE   HN314304   1.374   4.936  10.754  0.8000  0.5323  0.1184
  133SAPE   C1214305   1.423   5.127  10.697  0.4081  0.5499 -0.1140
  133SAPE  H12A14306   1.361   5.208  10.653  0.1496  0.8877  0.8572
  133SAPE  H12B14307   1.489   5.098  10.612  0.2266 -0.9205  0.2350
  133SAPE   C1114308   1.527   5.183  10.805 -0.1980  0.0985 -0.5162
  133SAPE  H11A14309   1.473   5.226  10.892  2.0847  2.2965 -0.1512
  133SAPE  H11B14310   1.575   5.277  10.770  0.3236  0.6543  1.6638
  133SAPE     P14311   1.759   5.060  10.771 -0.1717  0.2389 -0.1958
  133SAPE   O1314312   1.815   5.192  10.741  0.1502 -0.4473  0.4693
  133SAPE   O1414313   1.835   4.961  10.850  0.2530 -0.2565 -0.1386
  133SAPE   O1214314   1.619   5.076  10.842  0.3628 -0.2041  0.2679
  133SAPE   O1114315   1.740   4.985  10.636  0.3073 -0.4159 -0.0524
  133SAPE    C114316   1.839   4.979  10.535  0.0155 -0.0974 -1.1199
  133SAPE    HA14317   1.940   5.023  10.548  1.1429 -2.3426 -2.0131
  133SAPE    HB14318   1.848   4.870  10.520  0.4311  0.0276 -1.8075
  133SAPE    C214319   1.803   5.026  10.387  0.0982 -0.7521  0.9944
  133SAPE    HS14320   1.734   5.111  10.402 -0.3575 -0.9105 -0.1748
  133SAPE   O2114321   1.738   4.912  10.324 -0.2787 -0.5844  0.1361
  133SAPE   C2114322   1.640   4.944  10.238 -0.1117 -0.1885 -0.2692
  133SAPE   O2214323   1.611   5.055  10.211 -0.2168 -0.5352 -0.1130
  133SAPE   C2214324   1.571   4.816  10.198 -0.1646 -0.0029  0.4144
  133SAPE   H2R14325   1.647   4.740  10.169  0.5112  0.7879  0.1051
  133SAPE   H2S14326   1.515   4.776  10.286 -1.2425 -0.9974 -0.6974
  133SAPE    C314327   1.923   5.077  10.302  0.1648  0.4203 -0.2249
  133SAPE    HX14328   2.010   5.008  10.309 -0.5268 -0.5238 -0.6888
  133SAPE    HY14329   1.954   5.173  10.347  3.0966 -1.7171  2.5359
  133SAPE   O3114330   1.888   5.091  10.164  0.7861  0.2223 -0.2933
  133SAPE   C3114331   1.859   5.216  10.121  0.3309 -0.0577  0.6074
  133SAPE   O3214332   1.858   5.315  10.189  0.6654  0.4447 -0.3614
  133SAPE   C3214333   1.830   5.206   9.973  0.6864  0.8256  0.1673
  133SAPE   H2X14334   1.737   5.145   9.972  1.3000 -0.1211  0.1229
  133SAPE   H2Y14335   1.910   5.142   9.930  0.9549  0.5556  1.0530
  133SAPE   C2314336   1.476   4.846  10.081 -0.0813 -0.3043 -0.1548
  133SAPE   H3R14337   1.511   4.916  10.002  0.4735 -0.8208 -0.3723
  133SAPE   H3S14338   1.399   4.902  10.138 -1.0486  0.6624 -2.3155
  133SAPE   C2414339   1.413   4.726  10.033 -0.0753 -0.0053  0.0281
  133SAPE   H4R14340   1.310   4.759  10.005 -0.7207  0.2881  2.5803
  133SAPE   H4S14341   1.390   4.664  10.122  1.4601 -0.7371 -0.0774
  133SAPE   C2514342   1.485   4.637   9.927  0.2939 -0.1642  0.5446
  133SAPE   H5R14343   1.481   4.528   9.945  2.6411 -0.4368 -0.4598
  133SAPE   C2614344   1.555   4.685   9.821  0.2261  1.2400  0.3378
  133SAPE   H6R14345   1.605   4.605   9.764 -0.3933  0.4496  0.8887
  133SAPE   C2714346   1.584   4.825   9.769  0.4938  0.2193 -0.5723
  133SAPE   H7R14347   1.525   4.904   9.821  1.8367 -0.6861  2.4309
  133SAPE   H7S14348   1.554   4.822   9.662 -0.2746  0.2280 -0.3570
  133SAPE   C2814349   1.727   4.878   9.781  0.0862  0.2792 -0.4775
  133SAPE   H8R14350   1.775   4.846   9.875 -2.0039  0.2937  0.6170
  133SAPE   C2914351   1.783   4.949   9.685  0.8669  0.0505  0.4457
  133SAPE   H9R14352   1.888   4.981   9.691  0.4808  1.6496 -1.1378
  133SAPE  C21014353   1.721   4.992   9.556 -0.0075 -0.1150 -0.7191
  133SAPE  H10R14354   1.739   5.101   9.548 -3.6723  0.9283  3.4717
  133SAPE  H10S14355   1.610   4.991   9.567 -0.0910 -3.8415 -1.3445
  133SAPE  C21114356   1.772   4.913   9.442 -0.3468 -0.0242  0.7846
  133SAPE  H11R14357   1.834   4.827   9.470  0.5725  1.0522  2.0860
  133SAPE  C21214358   1.763   4.943   9.311  0.1203  0.4124  0.3519
  133SAPE  H12R14359   1.802   4.872   9.238 -0.0031 -0.7603  1.3994
  133SAPE  C21314360   1.690   5.072   9.268  0.1353 -0.5402 -0.7198
  133SAPE  H13R14361   1.761   5.155   9.246  0.9197 -0.9860  0.0837
  133SAPE  H13S14362   1.625   5.103   9.353  0.5608 -1.0300 -0.2065
  133SAPE  C21414363   1.591   5.060   9.154  0.2611 -0.1186  0.0803
  133SAPE  H14R14364   1.504   4.996   9.176  0.3015 -0.5374 -0.9519
  133SAPE  C21514365   1.616   5.104   9.024  0.4694  0.1784  0.0439
  133SAPE  H15R14366   1.539   5.092   8.947  1.3822 -1.5059 -0.6356
  133SAPE  C21614367   1.737   5.172   8.974 -0.1852  0.3760  0.6786
  133SAPE  H16R14368   1.809   5.186   9.057  0.1359  1.9213  0.1422
  133SAPE  H16S14369   1.708   5.274   8.942  1.5972  0.2953 -1.3939
  133SAPE  C21714370   1.818   5.107   8.864  0.5226  0.5331 -0.2582
  133SAPE  H17R14371   1.766   5.088   8.767 -0.9839 -1.5987  0.9232
  133SAPE  H17S14372   1.833   5.003   8.898 -0.7782  1.2272  2.5883
  133SAPE  C21814373   1.958   5.166   8.828 -0.3248  1.2426 -0.0456
  133SAPE  H18R14374   2.001   5.101   8.749  0.2978 -0.0763  1.3392
  133SAPE  H18S14375   2.017   5.153   8.922 -0.6308  1.5399  0.1870
  133SAPE  C21914376   1.957   5.308   8.773  0.2037  0.6248 -0.5259
  133SAPE  H19R14377   2.063   5.335   8.756  0.6276 -2.0674 -2.5523
  133SAPE  H19S14378   1.912   5.367   8.856 -0.9627  0.1540 -0.8145
  133SAPE  C22014379   1.864   5.323   8.650  0.2016 -0.1489 -0.0899
  133SAPE  H20R14380   1.911   5.301   8.551  1.6611 -1.0560  0.7950
  133SAPE  H20S14381   1.827   5.428   8.645  1.4044  0.3170  0.7235
  133SAPE  H20T14382   1.771   5.263   8.660 -0.6039  1.2278  0.9553
  133SAPE   C3314383   1.801   5.332   9.889 -0.3710 -0.1766 -0.3762
  133SAPE   H3X14384   1.893   5.394   9.899  0.0895 -0.8190 -0.5461
  133SAPE   H3Y14385   1.715   5.378   9.941 -0.7319 -0.9352 -0.2968
  133SAPE   C3414386   1.779   5.302   9.735 -0.0852 -0.1738  0.2522
  133SAPE   H4X14387   1.686   5.243   9.722  0.3280 -0.2846 -2.5002
  133SAPE   H4Y14388   1.867   5.245   9.698 -0.1491 -0.4314  0.4999
  133SAPE   C3514389   1.758   5.431   9.649 -0.4103 -0.3043 -0.0844
  133SAPE   H5X14390   1.847   5.494   9.669 -0.6856 -0.4090  1.5132
  133SAPE   H5Y14391   1.676   5.479   9.706  0.4674  0.8627  0.2081
  133SAPE   C3614392   1.744   5.404   9.502  0.5056 -0.4616 -0.5646
  133SAPE   H6X14393   1.669   5.324   9.486  1.2817 -1.2868 -0.1466
  133SAPE   H6Y14394   1.841   5.360   9.472  0.2757 -0.0233 -1.9657
  133SAPE   C3714395   1.711   5.528   9.411  0.1113  0.3728 -0.1369
  133SAPE   H7X14396   1.789   5.605   9.429  0.5884 -0.1921  0.2662
  133SAPE   H7Y14397   1.613   5.570   9.440  0.7904 -0.3415  3.4700
  133SAPE   C3814398   1.713   5.491   9.267 -0.3564  0.4456 -0.2262
  133SAPE   H8X14399   1.629   5.423   9.243  0.8955 -1.8993  1.8908
  133SAPE   H8Y14400   1.804   5.435   9.238  0.9346  1.8748  0.9935
  133SAPE   C3914401   1.697   5.614   9.177  0.1314 -0.0926 -0.0735
  133SAPE   H9X14402   1.776   5.685   9.210 -0.0203 -0.0358  0.1680
  133SAPE   H9Y14403   1.596   5.661   9.176 -0.1007 -0.6084 -1.1294
  133SAPE  C31014404   1.728   5.594   9.023 -0.2647  0.2593  0.1734
  133SAPE  H10X14405   1.656   5.515   8.991 -2.9909  2.2833  1.1480
  133SAPE  H10Y14406   1.836   5.565   9.019 -0.8305 -1.9987  0.5282
  133SAPE  C31114407   1.704   5.720   8.940 -0.1844 -0.2758  0.0475
  133SAPE  H11X14408   1.769   5.803   8.975 -1.7710  0.7726  0.5900
  133SAPE  H11Y14409   1.597   5.751   8.936 -0.2879 -0.8774 -5.1877
  133SAPE  C31214410   1.737   5.718   8.793  0.6847 -0.6496  0.3372
  133SAPE  H12X14411   1.678   5.792   8.735 -0.2732 -1.2568  0.5409
  133SAPE  H12Y14412   1.706   5.617   8.758 -2.1888  0.0323  0.7848
  133SAPE  C31314413   1.886   5.742   8.752 -0.5254 -0.4033 -0.4215
  133SAPE  H13X14414   1.940   5.665   8.811  0.6105  0.2127 -0.6375
  133SAPE  H13Y14415   1.922   5.838   8.795  3.5499 -1.3678 -1.4426
  133SAPE  C31414416   1.920   5.715   8.602  0.5587 -0.3989 -0.2028
  133SAPE  H14X14417   1.849   5.636   8.572  0.2406 -0.0338 -0.4104
  133SAPE  H14Y14418   2.017   5.662   8.591  0.3448 -0.9568  0.5653
  133SAPE  C31514419   1.922   5.849   8.522 -0.2486  0.8274 -0.3797
  133SAPE  H15X14420   1.955   5.928   8.592  0.8195 -0.4799  0.5984
  133SAPE  H15Y14421   1.815   5.871   8.502 -0.1969 -0.5924 -2.4469
  133SAPE  C31614422   2.010   5.837   8.399  0.0124  0.2754 -0.1341
  133SAPE  H16X14423   1.991   5.750   8.333  0.8133  1.9643 -2.6698
  133SAPE  H16Y14424   2.116   5.830   8.434  0.6903 -0.4822 -2.2769
  133SAPE  C31714425   2.003   5.961   8.305  0.5108  0.2060 -0.2961
  133SAPE  H17X14426   2.099   5.998   8.264 -0.5368  2.7561 -0.5598
  133SAPE  H17Y14427   1.976   6.046   8.372 -0.5738 -0.8869  0.6731
  133SAPE  C31814428   1.887   5.945   8.207 -0.1401  0.2611 -0.1681
  133SAPE  H18X14429   1.915   5.861   8.140  0.8428 -1.6327  2.5257
  133SAPE  H18Y14430   1.884   6.030   8.135  1.4712 -2.3721 -3.4614
  133SAPE  H18Z14431   1.793   5.941   8.266  1.1687  1.6900  2.1026
  134SAPE     N14432   4.383   5.097  11.000  0.0648  0.6517  0.5366
  134SAPE   HN114433   4.297   5.154  10.983 -1.1767 -1.8491 -1.9376
  134SAPE   HN214434   4.396   5.018  10.934  0.6134  0.6702  0.6188
  134SAPE   HN314435   4.384   5.053  11.094  1.3656  1.6773  1.0158
  134SAPE   C1214436   4.501   5.188  11.012  0.1058 -0.1324  0.0090
  134SAPE  H12A14437   4.584   5.126  11.051 -1.4393 -2.4156 -0.2093
  134SAPE  H12B14438   4.474   5.266  11.087 -2.5052 -0.9042 -0.0894
  134SAPE   C1114439   4.527   5.259  10.879  0.2303 -0.0644  1.5440
  134SAPE  H11A14440   4.599   5.342  10.895  3.5077 -2.3717 -0.5205
  134SAPE  H11B14441   4.434   5.316  10.860  0.2489  0.4724  2.9862
  134SAPE     P14442   4.713   5.156  10.733 -0.4708  0.6241 -0.1504
  134SAPE   O1314443   4.796   5.214  10.841  0.0564 -0.0129 -0.7728
  134SAPE   O1414444   4.742   5.012  10.690 -0.1542 -0.3295  0.1880
  134SAPE   O1214445   4.563   5.160  10.779  0.1608  0.3807  0.1994
  134SAPE   O1114446   4.719   5.261  10.614  0.2860  0.5741 -0.2410
  134SAPE    C114447   4.635   5.233  10.502  0.7860  0.1206  0.7030
  134SAPE    HA14448   4.585   5.134  10.493  1.6511 -0.2004 -0.7336
  134SAPE    HB14449   4.547   5.300  10.490 -0.2121 -1.2444  0.2864
  134SAPE    C214450   4.713   5.236  10.366 -0.6647  0.1845  0.5045
  134SAPE    HS14451   4.815   5.193  10.381 -0.7218  1.6569  5.9403
  134SAPE   O2114452   4.719   5.373  10.310  0.2679 -0.1248  0.4593
  134SAPE   C2114453   4.825   5.402  10.238 -0.0252  0.4665 -0.5445
  134SAPE   O2214454   4.924   5.333  10.226  0.0977 -0.1270 -0.9282
  134SAPE   C2214455   4.811   5.541  10.171 -0.2172 -0.0109 -0.5065
  134SAPE   H2R14456   4.733   5.592  10.232 -0.3335 -1.2587  0.4044
  134SAPE   H2S14457   4.907   5.595  10.182 -0.8131  0.5167  2.3156
  134SAPE    C314458   4.643   5.146  10.265 -0.1025  0.2339 -0.4697
  134SAPE    HX14459   4.536   5.154  10.292 -0.3141 -1.6487 -0.6925
  134SAPE    HY14460   4.665   5.038  10.279 -0.9881 -0.0481 -1.1818
  134SAPE   O3114461   4.658   5.177  10.124  0.8821 -0.4387 -0.0723
  134SAPE   C3114462   4.755   5.117  10.067 -0.3068  0.6836 -0.5381
  134SAPE   O3214463   4.827   5.028  10.116 -0.2467  0.2553 -0.0453
  134SAPE   C3214464   4.772   5.176   9.928 -0.0510 -0.1301  0.3195
  134SAPE   H2X14465   4.883   5.174   9.921  0.1939  1.9450  3.0756
  134SAPE   H2Y14466   4.726   5.277   9.929 -1.2449 -0.6606  0.0716
  134SAPE   C2314467   4.766   5.540  10.019  0.3388  0.4386  0.1765
  134SAPE   H3R14468   4.668   5.488  10.009 -0.1795  1.2403  1.0795
  134SAPE   H3S14469   4.842   5.472   9.974 -0.6990 -0.6772  0.0731
  134SAPE   C2414470   4.768   5.675   9.950  0.1187  0.7174 -0.0964
  134SAPE   H4R14471   4.872   5.701   9.922  0.2272  2.0633  1.4820
  134SAPE   H4S14472   4.728   5.762  10.007  0.0441  2.9127 -3.3317
  134SAPE   C2514473   4.687   5.673   9.821  0.0125  0.2029  0.0832
  134SAPE   H5R14474   4.579   5.669   9.845 -0.0241 -2.5130 -0.3448
  134SAPE   C2614475   4.726   5.664   9.693 -1.1084  0.1863 -0.3969
  134SAPE   H6R14476   4.652   5.677   9.613  1.0818  3.0602 -2.0551
  134SAPE   C2714477   4.870   5.646   9.648 -0.2652  0.4540  0.8856
  134SAPE   H7R14478   4.948   5.661   9.725  1.7442 -1.8877 -0.6199
  134SAPE   H7S14479   4.882   5.726   9.572 -0.5319 -0.1609  0.1869
  134SAPE   C2814480   4.896   5.505   9.577 -0.0744 -0.1510 -0.2453
  134SAPE   H8R14481   4.910   5.419   9.644  1.5607 -0.4180 -0.9197
  134SAPE   C2914482   4.900   5.480   9.442 -0.0198  0.1466  0.3174
  134SAPE   H9R14483   4.928   5.379   9.409 -0.1060  0.5791 -1.1383
  134SAPE  C21014484   4.896   5.574   9.326  0.1425  0.0224  0.3160
  134SAPE  H10R14485   4.815   5.644   9.354 -0.0200 -1.1239  2.8018
  134SAPE  H10S14486   4.844   5.513   9.248  1.6161  0.5295 -1.0808
  134SAPE  C21114487   5.021   5.646   9.290 -0.3581 -0.4932  1.2309
  134SAPE  H11R14488   5.041   5.732   9.356  2.6969  0.7373 -1.1765
  134SAPE  C21214489   5.102   5.625   9.189 -0.6653  0.3546 -0.1197
  134SAPE  H12R14490   5.182   5.700   9.184  1.4625 -1.8222  0.0032
  134SAPE  C21314491   5.104   5.522   9.080  0.3687  0.3668  0.1300
  134SAPE  H13R14492   5.058   5.423   9.096  1.9038  0.1243  3.4604
  134SAPE  H13S14493   5.209   5.493   9.060  0.0866 -0.6561  0.1337
  134SAPE  C21414494   5.056   5.579   8.953  0.0583 -0.0390 -0.2334
  134SAPE  H14R14495   5.039   5.687   8.956  2.6448  0.3881  1.7062
  134SAPE  C21514496   5.027   5.509   8.838 -0.4277  0.1215 -0.0020
  134SAPE  H15R14497   4.981   5.564   8.755 -0.1895  2.5224  1.4199
  134SAPE  C21614498   5.038   5.359   8.813  0.2174 -0.6377  0.6774
  134SAPE  H16R14499   5.048   5.302   8.908 -1.5422 -2.2890 -0.0860
  134SAPE  H16S14500   5.134   5.342   8.760  1.2968  1.3926  1.9099
  134SAPE  C21714501   4.921   5.297   8.736  0.3069 -0.0594 -0.3195
  134SAPE  H17R14502   4.957   5.193   8.722  2.4783  0.6591 -0.2735
  134SAPE  H17S14503   4.909   5.348   8.638  0.7161 -1.0905 -0.9121
  134SAPE  C21814504   4.790   5.295   8.813 -0.0324 -0.0797  0.1836
  134SAPE  H18R14505   4.774   5.395   8.860  1.8055  0.5739 -0.5486
  134SAPE  H18S14506   4.789   5.225   8.899  1.8066 -1.2273 -0.7028
  134SAPE  C21914507   4.666   5.261   8.724 -0.3142  0.1955  0.0766
  134SAPE  H19R14508   4.659   5.324   8.633  1.0437  0.3532  0.0753
  134SAPE  H19S14509   4.570   5.283   8.776 -1.5180  0.7588 -2.2838
  134SAPE  C22014510   4.664   5.114   8.686  0.0119 -0.4337  0.2553
  134SAPE  H20R14511   4.737   5.099   8.603 -0.8228 -1.7256 -0.2635
  134SAPE  H20S14512   4.562   5.091   8.649 -0.9986  0.9632  2.0714
  134SAPE  H20T14513   4.685   5.046   8.771  1.2456  1.4415  1.5035
  134SAPE   C3314514   4.713   5.101   9.801 -0.0034 -0.3349 -0.9378
  134SAPE   H3X14515   4.602   5.107   9.794 -0.0125 -0.0074 -0.5639
  134SAPE   H3Y14516   4.745   4.995   9.811 -3.4867 -1.5072 -1.5863
  134SAPE   C3414517   4.779   5.155   9.668  0.4514 -0.8543  0.2556
  134SAPE   H4X14518   4.885   5.182   9.688 -0.5057  3.6816 -0.1345
  134SAPE   H4Y14519   4.721   5.242   9.630  0.7808 -1.6477 -2.1361
  134SAPE   C3514520   4.790   5.047   9.563  0.2177  0.4161 -0.7270
  134SAPE   H5X14521   4.689   5.014   9.528  0.4191 -2.2368  1.0112
  134SAPE   H5Y14522   4.848   4.964   9.609  0.3520 -0.8829 -3.1433
  134SAPE   C3614523   4.869   5.095   9.443  1.6008  0.4389  0.0504
  134SAPE   H6X14524   4.976   5.111   9.472  1.5974 -0.0832  0.3536
  134SAPE   H6Y14525   4.831   5.185   9.390 -1.4794 -2.2691 -2.4966
  134SAPE   C3714526   4.858   4.981   9.335  0.2941 -0.8967  0.2607
  134SAPE   H7X14527   4.751   4.954   9.323  0.5776 -1.9624  0.1166
  134SAPE   H7Y14528   4.904   4.888   9.375  1.0040 -0.2858  0.8797
  134SAPE   C3814529   4.912   5.016   9.201 -0.7675 -0.4446 -0.5857
  134SAPE   H8X14530   5.023   5.023   9.205 -0.8026  1.2086 -1.7574
  134SAPE   H8Y14531   4.877   5.119   9.178  0.2418  0.6970  2.7946
  134SAPE   C3914532   4.860   4.921   9.097 -0.3128 -0.2017 -0.1522
  134SAPE   H9X14533   4.768   4.966   9.053  1.5410  1.8268 -2.0515
  134SAPE   H9Y14534   4.840   4.821   9.141 -0.9839 -0.5429 -1.2151
  134SAPE  C31014535   4.965   4.923   8.980 -0.0305 -0.2320  0.2403
  134SAPE  H10X14536   5.067   4.920   9.025 -0.0065 -0.0474  0.1950
  134SAPE  H10Y14537   4.956   5.023   8.932  0.8282 -0.2988 -0.0608
  134SAPE  C31114538   4.946   4.808   8.881  0.4106  0.7246  0.0569
  134SAPE  H11X14539   4.855   4.805   8.818 -0.5476 -0.0698  1.4475
  134SAPE  H11Y14540   4.935   4.710   8.932 -1.7665  0.5901 -0.6132
  134SAPE  C31214541   5.073   4.798   8.797  0.1168  1.1717  0.1327
  134SAPE  H12X14542   5.070   4.698   8.749 -2.5343  1.0650  0.4236
  134SAPE  H12Y14543   5.170   4.803   8.850  2.6099 -1.5871 -3.9089
  134SAPE  C31314544   5.079   4.901   8.680 -0.0507 -1.0679  0.0357
  134SAPE  H13X14545   5.080   4.997   8.736 -0.0469 -1.5027  0.7827
  134SAPE  H13Y14546   4.991   4.910   8.613  0.3757 -1.5094 -0.5818
  134SAPE  C31414547   5.211   4.901   8.602  0.4890  0.0969  0.0890
  134SAPE  H14X14548   5.224   4.800   8.558  1.3729 -0.4797  1.6564
  134SAPE  H14Y14549   5.294   4.927   8.670 -0.0493  0.8692  0.4642
  134SAPE  C31514550   5.218   4.993   8.480 -0.5296 -0.2615 -0.4390
  134SAPE  H15X14551   5.204   5.094   8.523  2.1584 -1.4664  3.6434
  134SAPE  H15Y14552   5.136   4.968   8.410  1.1692 -3.6194 -1.3286
  134SAPE  C31614553   5.349   4.976   8.404 -0.4712  0.1900 -0.4153
  134SAPE  H16X14554   5.368   4.870   8.379  2.5030  0.9278 -1.5414
  134SAPE  H16Y14555   5.440   4.995   8.465  0.0999  0.5452 -1.3549
  134SAPE  C31714556   5.358   5.051   8.280 -0.1870  0.1246  0.2707
  134SAPE  H17X14557   5.364   5.156   8.316 -2.9652  0.2121  0.6005
  134SAPE  H17Y14558   5.269   5.039   8.214  1.4397 -0.0437 -1.9532
  134SAPE  C31814559   5.475   5.020   8.197  0.2002  0.1436  0.4085
  134SAPE  H18X14560   5.459   5.073   8.101 -1.6961  2.2728  1.8543
  134SAPE  H18Y14561   5.469   4.912   8.170  2.9159  0.4970 -1.9331
  134SAPE  H18Z14562   5.568   5.046   8.252  0.0326  1.0714  0.2590
  135SAPE     N14563   4.319   4.357  10.793 -0.3826 -0.3696  0.0924
  135SAPE   HN114564   4.231   4.338  10.846  0.0748  1.0489  1.3891
  135SAPE   HN214565   4.403   4.308  10.830  0.5656 -0.0958 -1.6742
  135SAPE   HN314566   4.328   4.460  10.797 -3.0848 -0.1019  0.0377
  135SAPE   C1214567   4.296   4.316  10.654  0.0304  0.1694 -0.1648
  135SAPE  H12A14568   4.365   4.233  10.624  0.9429  0.2450  1.6530
  135SAPE  H12B14569   4.313   4.404  10.588  1.1300 -0.2320 -0.4384
  135SAPE   C1114570   4.151   4.268  10.646  0.5437 -0.1309 -0.4252
  135SAPE  H11A14571   4.116   4.240  10.544  1.4404  1.4131 -1.1705
  135SAPE  H11B14572   4.091   4.360  10.663  0.5805  0.1081 -1.5526
  135SAPE     P14573   4.161   4.014  10.703 -0.1765 -0.0924 -0.1921
  135SAPE   O1314574   4.309   4.014  10.708 -0.6427 -0.1953  0.7724
  135SAPE   O1414575   4.096   3.924  10.800 -0.1368  0.1360 -0.3206
  135SAPE   O1214576   4.123   4.165  10.737  0.1173  0.3405  0.3751
  135SAPE   O1114577   4.105   3.983  10.552  0.1078 -0.2241  0.3441
  135SAPE    C114578   3.959   4.023  10.519 -0.1680 -0.0536  0.3626
  135SAPE    HA14579   3.919   4.116  10.564 -0.4103 -1.0703  2.3098
  135SAPE    HB14580   3.949   4.030  10.408  0.1661  1.7822  0.4331
  135SAPE    C214581   3.864   3.912  10.566  0.0043  0.3975  0.3896
  135SAPE    HS14582   3.880   3.886  10.673 -0.7573 -0.6349  0.2657
  135SAPE   O2114583   3.884   3.798  10.488  0.3683  0.3614 -0.2068
  135SAPE   C2114584   3.828   3.680  10.518  0.0212 -0.4005 -0.0864
  135SAPE   O2214585   3.747   3.657  10.607  0.4426 -0.6134 -0.1531
  135SAPE   C2214586   3.877   3.564  10.428 -0.2348  0.1468  0.1629
  135SAPE   H2R14587   3.986   3.552  10.447  0.0815  0.1964 -1.5404
  135SAPE   H2S14588   3.820   3.480  10.474  1.8723 -1.0421  0.6736
  135SAPE    C314589   3.721   3.955  10.557  0.3101 -0.3019 -0.0806
  135SAPE    HX14590   3.701   4.051  10.610  0.8182  0.7418 -1.7306
  135SAPE    HY14591   3.647   3.881  10.594 -1.2230  1.3278  0.1985
  135SAPE   O3114592   3.694   3.992  10.416  1.2305  0.1451  0.0879
  135SAPE   C3114593   3.628   3.903  10.349 -0.6300  0.7301 -1.1121
  135SAPE   O3214594   3.585   3.799  10.395 -0.3491 -0.1168  0.1047
  135SAPE   C3214595   3.611   3.944  10.206  0.3548 -0.7724  0.1702
  135SAPE   H2X14596   3.708   3.921  10.158  0.6271  3.5671 -1.6578
  135SAPE   H2Y14597   3.590   4.051  10.184 -0.5053 -1.1433 -0.8556
  135SAPE   C2314598   3.845   3.574  10.277 -0.0220 -0.1372 -0.2614
  135SAPE   H3R14599   3.738   3.569  10.250  0.0504  0.4464 -0.6600
  135SAPE   H3S14600   3.875   3.475  10.237 -0.6390 -0.0309 -1.0015
  135SAPE   C2414601   3.939   3.666  10.198  0.2846  0.3050  0.4270
  135SAPE   H4R14602   4.032   3.606  10.185  0.2018  0.4471 -0.8025
  135SAPE   H4S14603   3.965   3.759  10.254 -0.0641 -0.2211  1.4768
  135SAPE   C2514604   3.880   3.704  10.066 -0.0490  1.1339  0.3186
  135SAPE   H5R14605   3.830   3.801  10.074  0.5411  1.3688  1.1481
  135SAPE   C2614606   3.886   3.632   9.956  0.2960  0.3091 -0.2902
  135SAPE   H6R14607   3.825   3.661   9.870  1.7292 -1.6186 -2.0110
  135SAPE   C2714608   3.943   3.495   9.934  0.4008  0.5373 -0.4617
  135SAPE   H7R14609   4.028   3.474  10.003  0.3732  0.9651 -0.2964
  135SAPE   H7S14610   3.999   3.496   9.838 -3.0736  0.0129 -2.5590
  135SAPE   C2814611   3.829   3.397   9.942 -0.2558  0.7406 -0.1386
  135SAPE   H8R14612   3.735   3.447   9.967 -0.1951  0.5963  0.3960
  135SAPE   C2914613   3.839   3.259   9.931 -0.1913  0.0042 -0.4388
  135SAPE   H9R14614   3.746   3.200   9.939  0.9559 -1.9349 -1.1382
  135SAPE  C21014615   3.960   3.177   9.899  0.3493  0.0736 -0.1978
  135SAPE  H10R14616   3.967   3.081   9.956 -0.5775 -0.4357 -0.9356
  135SAPE  H10S14617   4.052   3.235   9.917  0.3382  0.8848 -2.6296
  135SAPE  C21114618   3.952   3.138   9.752  0.7176 -0.3221 -0.3780
  135SAPE  H11R14619   3.915   3.220   9.689  0.5867  0.6158  0.8812
  135SAPE  C21214620   3.994   3.018   9.697 -0.6550 -0.0680 -0.1751
  135SAPE  H12R14621   3.988   3.004   9.588  0.5753 -1.9054 -0.0100
  135SAPE  C21314622   4.066   2.900   9.760 -0.4921  0.3821 -1.0389
  135SAPE  H13R14623   3.993   2.819   9.782  0.8364 -0.2534  1.1648
  135SAPE  H13S14624   4.108   2.929   9.859  1.0785  2.6573 -2.3480
  135SAPE  C21414625   4.190   2.856   9.684  0.0889 -0.5197  0.2058
  135SAPE  H14R14626   4.272   2.929   9.680 -0.1697 -0.1683  1.2578
  135SAPE  C21514627   4.203   2.755   9.594  0.1110  0.4184 -0.9692
  135SAPE  H15R14628   4.303   2.728   9.556  0.9798  3.7070 -1.2125
  135SAPE  C21614629   4.093   2.659   9.551 -0.4389 -0.2894  0.0719
  135SAPE  H16R14630   4.079   2.660   9.441  1.4140  1.2504 -0.1619
  135SAPE  H16S14631   3.993   2.687   9.591 -1.6665  0.7264 -3.5236
  135SAPE  C21714632   4.124   2.510   9.590  0.2909 -0.4590 -0.6079
  135SAPE  H17R14633   4.229   2.488   9.561  0.1751 -2.1483  0.2456
  135SAPE  H17S14634   4.040   2.449   9.550 -1.1711  1.6886 -0.8991
  135SAPE  C21814635   4.117   2.469   9.737  0.4058  0.4538  0.2551
  135SAPE  H18R14636   4.009   2.481   9.760  0.5705  2.7558 -0.0477
  135SAPE  H18S14637   4.181   2.545   9.788  1.3778 -0.1255 -0.0889
  135SAPE  C21914638   4.161   2.328   9.764 -0.1036  0.2841 -0.0658
  135SAPE  H19R14639   4.266   2.331   9.731  0.2333  0.7278  1.0230
  135SAPE  H19S14640   4.095   2.254   9.714 -0.2505 -1.0405  2.0399
  135SAPE  C22014641   4.153   2.311   9.914  0.0345 -0.3220 -0.4047
  135SAPE  H20R14642   4.046   2.305   9.946 -0.2289  3.4249 -0.4506
  135SAPE  H20S14643   4.191   2.402   9.964 -2.1755 -0.9339  2.5445
  135SAPE  H20T14644   4.203   2.226   9.965  0.0030  0.7846  1.5185
  135SAPE   C3314645   3.509   3.861  10.119  0.4701 -0.6677 -0.4630
  135SAPE   H3X14646   3.402   3.886  10.140  0.9171  1.1358 -0.2587
  135SAPE   H3Y14647   3.531   3.757  10.151 -1.6862 -1.0147 -0.0055
  135SAPE   C3414648   3.535   3.882   9.971  0.4134  0.1074  0.2683
  135SAPE   H4X14649   3.644   3.871   9.951  0.3395 -1.5269  0.6551
  135SAPE   H4Y14650   3.502   3.982   9.938  3.4669  0.3137 -2.4727
  135SAPE   C3514651   3.459   3.782   9.880  0.5763 -0.6103 -0.3706
  135SAPE   H5X14652   3.353   3.787   9.911  0.2487  1.6931 -1.7532
  135SAPE   H5Y14653   3.493   3.682   9.915  1.9391 -0.0853 -0.1403
  135SAPE   C3614654   3.471   3.797   9.734  0.3870  0.0958 -0.4588
  135SAPE   H6X14655   3.581   3.802   9.720  0.4506 -2.2276 -1.1152
  135SAPE   H6Y14656   3.423   3.883   9.683  0.1249  0.8481  1.0351
  135SAPE   C3714657   3.424   3.663   9.664 -0.3635 -0.2523  1.5250
  135SAPE   H7X14658   3.318   3.649   9.693 -0.9911 -0.5511 -0.8341
  135SAPE   H7Y14659   3.489   3.581   9.701 -0.0481 -0.0662  1.3871
  135SAPE   C3814660   3.412   3.684   9.514  0.1506  0.5659  0.1899
  135SAPE   H8X14661   3.473   3.774   9.491  3.0153 -1.9365 -2.3268
  135SAPE   H8Y14662   3.308   3.717   9.492 -0.4832 -1.9027 -0.6985
  135SAPE   C3914663   3.449   3.562   9.432 -0.5639 -0.1070  0.4915
  135SAPE   H9X14664   3.392   3.480   9.480 -0.8309 -0.9927 -1.2984
  135SAPE   H9Y14665   3.558   3.544   9.447 -0.7188 -0.8672  0.6895
  135SAPE  C31014666   3.418   3.575   9.286  0.5191 -0.4422  0.3205
  135SAPE  H10X14667   3.489   3.641   9.232  1.9644 -0.4765  2.1527
  135SAPE  H10Y14668   3.314   3.615   9.282  0.4374 -0.7348 -0.7142
  135SAPE  C31114669   3.427   3.449   9.208  0.1545  0.1929  0.1317
  135SAPE  H11X14670   3.365   3.368   9.253  0.9026 -1.0646 -1.0265
  135SAPE  H11Y14671   3.530   3.408   9.211  0.1431 -0.0598 -1.9255
  135SAPE  C31214672   3.369   3.449   9.068 -0.1328 -0.1212 -0.1181
  135SAPE  H12X14673   3.432   3.496   8.989  0.1120 -0.4114 -0.0956
  135SAPE  H12Y14674   3.267   3.493   9.067  0.0951  0.4252 -1.5906
  135SAPE  C31314675   3.349   3.306   9.005  0.3479  0.2153  0.3515
  135SAPE  H13X14676   3.273   3.237   9.046  1.2206 -0.6965  0.4462
  135SAPE  H13Y14677   3.449   3.259   9.020 -0.2466 -1.4185 -0.6787
  135SAPE  C31414678   3.320   3.318   8.855  0.0268 -0.0209 -0.1668
  135SAPE  H14X14679   3.399   3.379   8.806 -1.1162  0.6209 -1.2476
  135SAPE  H14Y14680   3.229   3.381   8.845 -0.8089 -1.0405  0.8130
  135SAPE  C31514681   3.293   3.181   8.791  0.3607 -0.0239  0.2639
  135SAPE  H15X14682   3.206   3.143   8.848  0.2505  1.0794  0.8538
  135SAPE  H15Y14683   3.373   3.106   8.807  0.6794 -0.0911 -1.5568
  135SAPE  C31614684   3.286   3.195   8.646  0.4847  0.0758 -0.0159
  135SAPE  H16X14685   3.385   3.212   8.600 -0.9475  1.7455 -2.5846
  135SAPE  H16Y14686   3.231   3.289   8.625 -1.3974 -1.0101 -0.0298
  135SAPE  C31714687   3.210   3.075   8.582 -0.3576 -0.3632 -0.3042
  135SAPE  H17X14688   3.105   3.072   8.617 -1.4190  0.3906 -3.2520
  135SAPE  H17Y14689   3.260   2.977   8.595 -0.7884 -0.3709  1.3522
  135SAPE  C31814690   3.200   3.086   8.433  0.1370 -0.0873  0.2555
  135SAPE  H18X14691   3.186   2.982   8.395 -2.4709 -0.3222  1.7838
  135SAPE  H18Y14692   3.291   3.125   8.383 -0.0385  0.3768  0.2966
  135SAPE  H18Z14693   3.111   3.149   8.415  0.4161 -0.2726 -1.9424
  136SAPE     N14694   5.962   3.999  10.531  0.0137 -0.3243 -0.3093
  136SAPE   HN114695   5.911   3.971  10.617  0.2058 -1.1988 -0.4764
  136SAPE   HN214696   5.910   4.068  10.472  1.5232  0.3759 -0.8584
  136SAPE   HN314697   5.961   3.908  10.481  1.5832 -0.4020 -0.2455
  136SAPE   C1214698   6.113   4.024  10.541  0.6425 -0.4100 -0.8366
  136SAPE  H12A14699   6.122   4.134  10.542  1.0430 -0.4150 -2.3032
  136SAPE  H12B14700   6.161   3.980  10.450  1.9391 -2.1296  0.6169
  136SAPE   C1114701   6.170   3.964  10.668 -0.2346  0.6355 -0.2149
  136SAPE  H11A14702   6.128   4.023  10.752  1.2583  0.3343  0.7513
  136SAPE  H11B14703   6.280   3.959  10.677 -0.2978  1.6834  1.3631
  136SAPE     P14704   6.115   3.749  10.815  0.7215 -0.5108  0.5353
  136SAPE   O1314705   6.111   3.838  10.935  0.0633  0.0435 -0.3342
  136SAPE   O1414706   6.008   3.654  10.804  0.7490  0.2750 -0.0224
  136SAPE   O1214707   6.112   3.837  10.683 -0.1077 -0.1709  0.1504
  136SAPE   O1114708   6.254   3.677  10.804  0.4605  0.1829  0.4791
  136SAPE    C114709   6.298   3.589  10.699 -0.5689  0.6110 -0.7123
  136SAPE    HA14710   6.269   3.486  10.731 -0.8695  0.6567 -0.8350
  136SAPE    HB14711   6.247   3.609  10.602 -0.3551 -0.8685 -1.1409
  136SAPE    C214712   6.450   3.581  10.690 -0.4901 -0.0847 -0.0707
  136SAPE    HS14713   6.481   3.545  10.790  2.1041  0.9664 -0.4711
  136SAPE   O2114714   6.509   3.710  10.657 -0.0346 -0.0920  0.0792
  136SAPE   C2114715   6.638   3.714  10.712  0.1108  0.2364  0.6093
  136SAPE   O2214716   6.691   3.619  10.766 -0.3293 -0.1367 -0.0426
  136SAPE   C2214717   6.709   3.847  10.684  0.3192  0.3328  0.3453
  136SAPE   H2R14718   6.673   3.913  10.766  0.8489  1.5881 -0.4193
  136SAPE   H2S14719   6.819   3.836  10.696  0.6399 -0.1609 -2.5911
  136SAPE    C314720   6.482   3.475  10.581 -0.3131 -0.5876 -0.1719
  136SAPE    HX14721   6.437   3.377  10.606  2.5513 -1.5118  1.6403
  136SAPE    HY14722   6.590   3.459  10.601 -0.3447 -1.1325 -0.4057
  136SAPE   O3114723   6.442   3.520  10.448 -0.0475 -0.0133 -0.5125
  136SAPE   C3114724   6.520   3.479  10.351 -0.1967  0.6341  0.4884
  136SAPE   O3214725   6.626   3.422  10.365  0.4288 -0.2304  0.5170
  136SAPE   C3214726   6.457   3.519  10.215 -0.1601  0.2832 -0.5287
  136SAPE   H2X14727   6.436   3.628  10.207  0.9934  0.3952 -2.4580
  136SAPE   H2Y14728   6.362   3.465  10.199  0.3677 -1.4623  1.9543
  136SAPE   C2314729   6.679   3.904  10.542  0.0919  0.1399  0.1959
  136SAPE   H3R14730   6.716   4.008  10.540  0.1318  0.1034 -0.9939
  136SAPE   H3S14731   6.569   3.916  10.535  0.2245  1.0275 -0.4272
  136SAPE   C2414732   6.735   3.822  10.419 -0.4040  0.3888  0.3430
  136SAPE   H4R14733   6.696   3.880  10.333 -2.6027 -0.0401  1.0286
  136SAPE   H4S14734   6.685   3.723  10.427  0.8767 -0.3178 -0.2612
  136SAPE   C2514735   6.884   3.813  10.431 -0.0037  1.0369 -0.2964
  136SAPE   H5R14736   6.920   3.739  10.504 -1.9424  0.3832  0.0290
  136SAPE   C2614737   6.970   3.883  10.354 -1.2147 -0.0875  0.5477
  136SAPE   H6R14738   7.076   3.856  10.362 -0.5954  2.7401  2.9102
  136SAPE   C2714739   6.940   3.976  10.239 -0.2767 -0.3083  0.6515
  136SAPE   H7R14740   6.857   3.931  10.180  0.8352 -0.1375 -1.0858
  136SAPE   H7S14741   7.020   3.969  10.163  0.2466  0.5709  1.1154
  136SAPE   C2814742   6.912   4.113  10.285  0.6188 -0.3848  0.3007
  136SAPE   H8R14743   6.887   4.126  10.392 -1.1324  1.0747 -0.2566
  136SAPE   C2914744   6.911   4.227  10.218  0.3739 -0.0968 -0.6021
  136SAPE   H9R14745   6.873   4.320  10.262  1.6568 -0.4655  1.3663
  136SAPE  C21014746   6.933   4.232  10.069  0.2021 -0.3342 -0.0685
  136SAPE  H10R14747   6.878   4.148  10.021  0.4193 -1.7266  2.0403
  136SAPE  H10S14748   7.042   4.224  10.048  0.6489  1.8586  1.2946
  136SAPE  C21114749   6.867   4.353  10.009  0.3695 -0.3197  0.1272
  136SAPE  H11R14750   6.790   4.405  10.068  0.1699 -0.7216  0.2173
  136SAPE  C21214751   6.898   4.401   9.883 -0.2690 -0.1325  0.1355
  136SAPE  H12R14752   6.860   4.498   9.847  0.6561  0.4903  0.8307
  136SAPE  C21314753   6.992   4.331   9.790  0.0260  0.1435 -0.6741
  136SAPE  H13R14754   6.928   4.254   9.741 -0.1059  0.4086 -0.9231
  136SAPE  H13S14755   7.071   4.265   9.831 -0.7057  0.0495  0.6234
  136SAPE  C21414756   7.073   4.417   9.691  0.6861 -0.1370 -0.9063
  136SAPE  H14R14757   7.120   4.507   9.733 -2.2823  0.8832  0.3709
  136SAPE  C21514758   7.080   4.396   9.559 -0.0042  0.6772 -0.3581
  136SAPE  H15R14759   7.143   4.466   9.501 -0.0659  0.4017 -0.7563
  136SAPE  C21614760   7.023   4.269   9.497 -0.7268 -0.7201  0.2532
  136SAPE  H16R14761   6.913   4.265   9.484 -0.7500  0.8641 -0.0550
  136SAPE  H16S14762   7.049   4.176   9.552  1.6801 -0.4547 -0.3798
  136SAPE  C21714763   7.086   4.244   9.354  0.0482 -0.3391 -0.1990
  136SAPE  H17R14764   7.079   4.134   9.334  1.6503 -0.2057 -1.5790
  136SAPE  H17S14765   7.194   4.269   9.348 -0.0141 -0.1850 -0.7879
  136SAPE  C21814766   7.012   4.328   9.244 -0.4847  0.2810  0.0042
  136SAPE  H18R14767   7.028   4.429   9.288  0.1166  0.3924 -0.4517
  136SAPE  H18S14768   6.902   4.312   9.238 -0.5313  0.6243 -0.1038
  136SAPE  C21914769   7.083   4.323   9.105  0.1830 -0.7099  0.8207
  136SAPE  H19R14770   7.190   4.333   9.134 -0.2507  0.5801  2.0352
  136SAPE  H19S14771   7.071   4.406   9.032  0.4596 -0.2147  1.3362
  136SAPE  C22014772   7.047   4.193   9.035 -0.5483  0.1787 -0.0759
  136SAPE  H20R14773   7.072   4.106   9.099  0.6146  1.4987  1.2897
  136SAPE  H20S14774   7.102   4.186   8.939  0.1767 -0.8328  0.4141
  136SAPE  H20T14775   6.940   4.193   9.005 -0.4175  2.3983 -0.6496
  136SAPE   C3314776   6.556   3.479  10.106 -0.3529  0.2590  0.5836
  136SAPE   H3X14777   6.606   3.383  10.130 -2.7742 -0.6194  2.2774
  136SAPE   H3Y14778   6.629   3.562  10.116 -0.1828  0.2553 -0.5069
  136SAPE   C3414779   6.503   3.488   9.966  0.4982 -0.0663  0.1401
  136SAPE   H4X14780   6.453   3.583   9.937  0.7766 -0.5641 -2.0297
  136SAPE   H4Y14781   6.424   3.410   9.954  1.7056 -1.1180 -1.0626
  136SAPE   C3514782   6.603   3.466   9.853 -0.5600  0.4516  0.2916
  136SAPE   H5X14783   6.556   3.451   9.754 -0.6383 -2.6888  0.7513
  136SAPE   H5Y14784   6.653   3.370   9.881 -3.1859 -1.1321 -0.2661
  136SAPE   C3614785   6.706   3.581   9.853 -0.0339  0.0869 -0.2267
  136SAPE   H6X14786   6.765   3.586   9.947  1.3740  2.4025 -1.1860
  136SAPE   H6Y14787   6.648   3.676   9.856  0.3619  0.3742 -1.4814
  136SAPE   C3714788   6.809   3.561   9.743 -0.3642 -0.4365 -0.2827
  136SAPE   H7X14789   6.844   3.457   9.758 -1.2855 -0.8969 -1.2087
  136SAPE   H7Y14790   6.903   3.619   9.753 -0.5646 -0.1440 -0.1052
  136SAPE   C3814791   6.759   3.578   9.601 -0.0185 -0.0157 -0.1886
  136SAPE   H8X14792   6.744   3.684   9.572 -2.1064  0.3864  2.1737
  136SAPE   H8Y14793   6.668   3.522   9.570 -0.1237 -1.2152  2.2226
  136SAPE   C3914794   6.867   3.539   9.497 -0.0815 -0.2314 -0.6993
  136SAPE   H9X14795   6.883   3.429   9.500  3.4937  0.2387 -0.7549
  136SAPE   H9Y14796   6.963   3.588   9.525 -1.5291  2.0759  0.3848
  136SAPE  C31014797   6.826   3.595   9.354  0.6051  0.2339 -0.5045
  136SAPE  H10X14798   6.919   3.602   9.293  1.7426  0.6174  1.2231
  136SAPE  H10Y14799   6.795   3.701   9.354 -1.9244 -0.4748 -1.3859
  136SAPE  C31114800   6.708   3.522   9.294 -0.6985 -0.7829 -0.2296
  136SAPE  H11X14801   6.619   3.554   9.352  0.7514  0.3425  1.4379
  136SAPE  H11Y14802   6.713   3.412   9.308 -1.7279 -0.7352  0.5887
  136SAPE  C31214803   6.703   3.553   9.147  0.2255 -0.0179  0.0263
  136SAPE  H12X14804   6.795   3.519   9.095  0.9169  1.1190  0.4969
  136SAPE  H12Y14805   6.701   3.663   9.136 -0.3588  0.3242  3.1556
  136SAPE  C31314806   6.588   3.483   9.069 -0.2850  0.6984  0.3618
  136SAPE  H13X14807   6.491   3.514   9.114 -1.2986 -0.1006 -1.2371
  136SAPE  H13Y14808   6.601   3.374   9.088 -3.2860  0.3543  0.7491
  136SAPE  C31414809   6.588   3.518   8.919 -0.0876  0.0338 -0.2007
  136SAPE  H14X14810   6.688   3.496   8.876  0.4205  0.2983  0.8341
  136SAPE  H14Y14811   6.582   3.627   8.901  3.0692  0.4498  1.0191
  136SAPE  C31514812   6.496   3.435   8.823 -0.3918 -0.3933 -0.5974
  136SAPE  H15X14813   6.512   3.463   8.716 -0.5449 -0.1728 -0.5630
  136SAPE  H15Y14814   6.397   3.470   8.859  0.3815 -0.6675  1.8504
  136SAPE  C31614815   6.512   3.282   8.836 -0.0199  0.3234 -0.5114
  136SAPE  H16X14816   6.481   3.246   8.936  1.6959  1.3047  0.4102
  136SAPE  H16Y14817   6.618   3.250   8.826  0.3284  1.4511 -0.5157
  136SAPE  C31714818   6.423   3.193   8.749  0.5471 -0.6067  0.3185
  136SAPE  H17X14819   6.433   3.238   8.648  0.9771  1.5900  1.3210
  136SAPE  H17Y14820   6.315   3.200   8.773  0.2515 -0.5735 -0.9506
  136SAPE  C31814821   6.467   3.045   8.728  0.8028  0.1679  0.9982
  136SAPE  H18X14822   6.414   2.993   8.646 -0.3918  0.9757  1.2460
  136SAPE  H18Y14823   6.443   2.986   8.818 -1.5728  0.1776  0.3960
  136SAPE  H18Z14824   6.576   3.045   8.706  0.2338  0.0531 -2.1184
  137SAPE     N14825   4.026   0.020  11.046  0.2946  0.0183 -0.1957
  137SAPE   HN114826   3.930   0.013  11.087 -0.2316  1.0632 -1.2141
  137SAPE   HN214827   4.091  -0.044  11.096  0.9359  1.0035  0.2638
  137SAPE   HN314828   4.069   0.113  11.065  0.8504 -0.4534  0.9513
  137SAPE   C1214829   4.023   0.011  10.897  0.6109  0.0344 -0.6765
  137SAPE  H12A14830   3.964   0.095  10.853 -1.5197 -1.6566 -1.1496
  137SAPE  H12B14831   3.972  -0.085  10.872  1.4047 -0.6190  0.1905
  137SAPE   C1114832   4.171   0.014  10.846 -0.1966 -0.2282 -0.7342
  137SAPE  H11A14833   4.199   0.122  10.837  0.1140 -0.3636 -1.3928
  137SAPE  H11B14834   4.155  -0.027  10.744  1.4530 -0.9444 -0.7209
  137SAPE     P14835   4.290  -0.210  10.891 -0.2416 -0.6056 -0.3672
  137SAPE   O1314836   4.401  -0.266  10.970 -0.0487 -0.0686 -0.1753
  137SAPE   O1414837   4.161  -0.282  10.898  0.1709 -0.2386 -0.1592
  137SAPE   O1214838   4.262  -0.052  10.931 -0.4321  0.1298 -0.0201
  137SAPE   O1114839   4.325  -0.199  10.739 -0.2656 -0.3106 -0.8494
  137SAPE    C114840   4.453  -0.204  10.676 -0.1547 -0.4246 -0.4890
  137SAPE    HA14841   4.540  -0.237  10.737  0.0865  0.2788 -0.4477
  137SAPE    HB14842   4.451  -0.291  10.607 -1.0216 -1.2313  0.5373
  137SAPE    C214843   4.474  -0.062  10.608 -0.0495 -0.2040 -0.8399
  137SAPE    HS14844   4.473   0.013  10.690 -0.2149 -1.9038  0.7438
  137SAPE   O2114845   4.375  -0.065  10.512 -0.0493  0.4517  0.1658
  137SAPE   C2114846   4.325   0.052  10.487  0.7241 -0.1735  0.4019
  137SAPE   O2214847   4.349   0.152  10.547  0.7469  0.1401 -0.3327
  137SAPE   C2214848   4.228   0.045  10.369  0.5491 -0.3031 -0.1753
  137SAPE   H2R14849   4.136  -0.006  10.404 -1.7543  2.3372 -2.2308
  137SAPE   H2S14850   4.205   0.152  10.348 -1.3482 -0.6709 -0.0803
  137SAPE    C314851   4.615  -0.048  10.553 -0.6636 -0.2158 -0.1959
  137SAPE    HX14852   4.625  -0.135  10.485 -1.6104 -0.3766 -0.1383
  137SAPE    HY14853   4.698  -0.049  10.628  0.2590 -0.7821 -1.2095
  137SAPE   O3114854   4.637   0.073  10.482 -0.0750  0.1677  0.0958
  137SAPE   C3114855   4.643   0.184  10.555  1.2080 -0.6119 -0.4789
  137SAPE   O3214856   4.643   0.189  10.678 -0.6759 -0.3196  0.3375
  137SAPE   C3214857   4.648   0.309  10.472  0.0637  0.1430  1.1539
  137SAPE   H2X14858   4.664   0.396  10.540 -1.4965 -0.0705  1.8262
  137SAPE   H2Y14859   4.550   0.322  10.421  0.7556  1.0059  0.0184
  137SAPE   C2314860   4.293  -0.013  10.240  1.1663  0.2426 -0.0525
  137SAPE   H3R14861   4.214  -0.046  10.170  0.3541  0.0873  0.9414
  137SAPE   H3S14862   4.342  -0.105  10.277  0.4582 -0.1917 -0.1958
  137SAPE   C2414863   4.391   0.070  10.148 -0.5480 -0.5158  0.2585
  137SAPE   H4R14864   4.413   0.011  10.056 -4.1874 -3.0652  0.9349
  137SAPE   H4S14865   4.485   0.086  10.206 -0.4107  0.7292 -0.2871
  137SAPE   C2514866   4.355   0.201  10.086  0.6737 -0.3965 -0.2355
  137SAPE   H5R14867   4.344   0.276  10.166  1.0968  0.7756 -1.2421
  137SAPE   C2614868   4.330   0.240   9.955 -0.0650  0.6645  0.1607
  137SAPE   H6R14869   4.280   0.338   9.951 -1.4724  0.0564  2.1619
  137SAPE   C2714870   4.330   0.156   9.829 -0.1036  0.0554 -0.0564
  137SAPE   H7R14871   4.232   0.119   9.793 -0.5228  0.6009  0.5290
  137SAPE   H7S14872   4.392   0.065   9.843 -3.1469 -2.0071  0.4713
  137SAPE   C2814873   4.394   0.250   9.725  0.2328  0.7470 -0.7133
  137SAPE   H8R14874   4.502   0.260   9.744  0.1031  1.8176 -0.4779
  137SAPE   C2914875   4.335   0.322   9.629  0.3250  0.6126 -0.2855
  137SAPE   H9R14876   4.398   0.383   9.563 -1.7252  0.7077 -2.2352
  137SAPE  C21014877   4.184   0.328   9.608  0.4577 -0.1176 -0.2224
  137SAPE  H10R14878   4.127   0.257   9.671  0.6656  0.2503  0.3825
  137SAPE  H10S14879   4.153   0.291   9.508 -0.4069 -0.8184  0.3041
  137SAPE  C21114880   4.135   0.471   9.635  0.1669  0.0473  0.9585
  137SAPE  H11R14881   4.154   0.502   9.739  1.9660 -1.5700  1.1450
  137SAPE  C21214882   4.105   0.562   9.544  0.3210  0.6977  0.7252
  137SAPE  H12R14883   4.066   0.662   9.567 -1.1946  0.3761 -0.4119
  137SAPE  C21314884   4.107   0.526   9.396 -0.1970 -0.1453  0.2679
  137SAPE  H13R14885   4.059   0.426   9.390  1.4504 -0.8818 -1.0968
  137SAPE  H13S14886   4.214   0.509   9.368 -0.3244 -0.0854 -0.2709
  137SAPE  C21414887   4.012   0.625   9.335 -0.2995  0.1303  0.1752
  137SAPE  H14R14888   3.941   0.686   9.392 -1.0624  0.7079 -1.3466
  137SAPE  C21514889   4.027   0.653   9.205 -0.3345  0.0491 -0.4279
  137SAPE  H15R14890   3.970   0.739   9.165  2.1574  1.3664 -1.2758
  137SAPE  C21614891   4.116   0.594   9.108 -0.7075  0.1539 -0.1558
  137SAPE  H16R14892   4.218   0.585   9.151 -0.5631  1.1455 -0.2606
  137SAPE  H16S14893   4.139   0.674   9.034  0.6595  0.2790  0.3853
  137SAPE  C21714894   4.074   0.454   9.067 -0.8683 -0.1195  0.5735
  137SAPE  H17R14895   3.970   0.450   9.027  0.0487 -0.8972 -1.8817
  137SAPE  H17S14896   4.081   0.391   9.158  1.4196  1.7846  1.7366
  137SAPE  C21814897   4.164   0.403   8.957  0.0596 -0.2406 -0.6017
  137SAPE  H18R14898   4.156   0.463   8.864 -0.1613 -1.2559 -1.2543
  137SAPE  H18S14899   4.137   0.301   8.921  3.3006 -0.5837 -2.2217
  137SAPE  C21914900   4.314   0.390   8.991  0.9595  0.3389 -0.5661
  137SAPE  H19R14901   4.363   0.489   8.997  4.2070 -1.2322 -0.1180
  137SAPE  H19S14902   4.364   0.351   8.900  0.4808  1.4448 -1.3062
  137SAPE  C22014903   4.346   0.311   9.113  0.3275  0.4358 -0.0636
  137SAPE  H20R14904   4.330   0.374   9.203 -0.0849 -1.6251  1.3344
  137SAPE  H20S14905   4.454   0.285   9.116  1.2560  4.2430  1.8403
  137SAPE  H20T14906   4.288   0.217   9.120 -0.7369  1.1381  0.7109
  137SAPE   C3314907   4.758   0.318  10.366 -0.0728 -0.0687  0.7173
  137SAPE   H3X14908   4.854   0.263  10.382  1.1854  1.0026 -2.7695
  137SAPE   H3Y14909   4.797   0.423  10.369  2.2196 -0.8971  1.4955
  137SAPE   C3414910   4.707   0.272  10.227  0.0894  0.7585 -0.1259
  137SAPE   H4X14911   4.613   0.327  10.205 -0.1216  0.3805 -0.1703
  137SAPE   H4Y14912   4.693   0.162  10.228 -0.1830  0.7992  0.8516
  137SAPE   C3514913   4.808   0.318  10.119  0.8413 -0.1390 -0.6299
  137SAPE   H5X14914   4.904   0.262  10.124  1.0697  0.1348 -1.7812
  137SAPE   H5Y14915   4.825   0.428  10.121 -1.0838  0.2460 -2.5505
  137SAPE   C3614916   4.745   0.292   9.986 -0.2499 -0.4774  0.3058
  137SAPE   H6X14917   4.659   0.359   9.967  0.9745  0.5390 -1.8028
  137SAPE   H6Y14918   4.705   0.189   9.991  1.3451 -1.1020  0.7714
  137SAPE   C3714919   4.852   0.292   9.875  0.0381  0.1758  0.3906
  137SAPE   H7X14920   4.920   0.205   9.889 -0.6928 -0.3205  0.8949
  137SAPE   H7Y14921   4.900   0.391   9.889  0.2517  0.1182  0.0720
  137SAPE   C3814922   4.790   0.283   9.738  0.3121 -0.0616  0.4050
  137SAPE   H8X14923   4.707   0.357   9.741  1.2026  0.9064  1.8353
  137SAPE   H8Y14924   4.744   0.184   9.716 -1.1362  0.7565 -0.3648
  137SAPE   C3914925   4.886   0.319   9.618 -0.4461 -0.0980 -0.6662
  137SAPE   H9X14926   4.979   0.260   9.632 -0.2997  0.5084  0.9490
  137SAPE   H9Y14927   4.911   0.427   9.617  3.1887 -0.8615 -0.0390
  137SAPE  C31014928   4.814   0.299   9.485 -0.2854  0.0310  0.0139
  137SAPE  H10X14929   4.870   0.362   9.412  5.5386 -1.7741  2.5821
  137SAPE  H10Y14930   4.716   0.347   9.503 -1.5711 -1.3540 -2.9470
  137SAPE  C31114931   4.808   0.159   9.427  0.1927 -0.7295 -0.6581
  137SAPE  H11X14932   4.793   0.076   9.499  0.6566  1.8877  2.5704
  137SAPE  H11Y14933   4.915   0.143   9.401 -0.0392  0.4079 -2.3664
  137SAPE  C31214934   4.703   0.127   9.324  0.1533  0.2400  0.9045
  137SAPE  H12X14935   4.597   0.140   9.351 -0.8403 -0.1896 -2.5451
  137SAPE  H12Y14936   4.706   0.020   9.296 -0.3017  0.5859 -0.5254
  137SAPE  C31314937   4.720   0.214   9.198 -0.0919 -0.2166  0.2287
  137SAPE  H13X14938   4.696   0.318   9.230 -2.2227 -0.5277 -0.3072
  137SAPE  H13Y14939   4.646   0.185   9.121 -2.7052 -1.4984  3.0891
  137SAPE  C31414940   4.863   0.213   9.135 -0.6084  0.2724 -0.1921
  137SAPE  H14X14941   4.877   0.105   9.111 -1.6798 -0.0167  0.4575
  137SAPE  H14Y14942   4.933   0.223   9.222 -1.0382  1.6641  0.0053
  137SAPE  C31514943   4.892   0.296   9.010  0.1603 -0.0394 -0.1786
  137SAPE  H15X14944   4.815   0.269   8.934 -0.1274 -0.3150  0.2098
  137SAPE  H15Y14945   4.989   0.281   8.958 -0.5479 -1.3211 -1.1520
  137SAPE  C31614946   4.872   0.450   9.029 -0.5052 -0.7793  0.2908
  137SAPE  H16X14947   4.777   0.461   9.087  1.7618 -0.7653  4.1267
  137SAPE  H16Y14948   4.867   0.499   8.929  0.8618  2.6950  1.8353
  137SAPE  C31714949   4.976   0.513   9.124 -0.6241  0.9090 -0.6101
  137SAPE  H17X14950   4.980   0.451   9.216  0.8111  0.2112 -1.1325
  137SAPE  H17Y14951   4.936   0.614   9.145 -0.6697  1.0096 -1.1695
  137SAPE  C31814952   5.122   0.534   9.059 -0.0971 -0.0300 -0.1810
  137SAPE  H18X14953   5.165   0.437   9.028 -2.2861 -0.5424 -1.7114
  137SAPE  H18Y14954   5.181   0.567   9.148 -0.4152 -1.0566  0.4184
  137SAPE  H18Z14955   5.118   0.613   8.981 -2.9982 -1.3649 -1.4491
  138SAPE     N14956   2.163   1.413  10.931  0.3932 -0.4588  0.2243
  138SAPE   HN114957   2.087   1.419  11.002  1.3526  3.0319  1.0424
  138SAPE   HN214958   2.185   1.313  10.911 -0.6240 -0.5932 -0.2690
  138SAPE   HN314959   2.247   1.455  10.975  0.3895 -1.7777  1.5414
  138SAPE   C1214960   2.124   1.497  10.817  0.6278 -0.6255  0.3177
  138SAPE  H12A14961   2.204   1.499  10.740  1.6238 -1.1486  1.3096
  138SAPE  H12B14962   2.103   1.599  10.855  1.1092 -0.7075  0.8196
  138SAPE   C1114963   1.999   1.435  10.760 -0.4556 -0.1893  0.2972
  138SAPE  H11A14964   2.015   1.330  10.728 -0.8038 -0.2225  0.2251
  138SAPE  H11B14965   1.960   1.488  10.671  0.5846 -0.8971 -0.5842
  138SAPE     P14966   1.793   1.528  10.887 -0.5697 -0.1206 -0.2573
  138SAPE   O1314967   1.739   1.493  11.019  0.0055  0.0608 -0.6261
  138SAPE   O1414968   1.850   1.664  10.869 -0.2200 -0.1340 -0.7117
  138SAPE   O1214969   1.891   1.423  10.844  0.5847  0.1539 -0.2653
  138SAPE   O1114970   1.684   1.522  10.779  0.6048 -0.1088  0.6430
  138SAPE    C114971   1.629   1.393  10.736 -0.4316 -0.1036  0.1318
  138SAPE    HA14972   1.604   1.337  10.829  1.1256 -1.9148 -0.4937
  138SAPE    HB14973   1.533   1.418  10.688 -0.5826  0.9475  0.9592
  138SAPE    C214974   1.718   1.304  10.637  0.0119  0.0810 -0.8162
  138SAPE    HS14975   1.810   1.261  10.683  0.3437  0.4070 -1.1664
  138SAPE   O2114976   1.759   1.389  10.531  0.0433 -0.0472  0.1988
  138SAPE   C2114977   1.859   1.353  10.450 -0.0027  0.1282  0.1306
  138SAPE   O2214978   1.907   1.241  10.446 -0.5940  0.2866 -0.3000
  138SAPE   C2214979   1.900   1.459  10.351  0.0797  0.2044  0.0048
  138SAPE   H2R14980   1.812   1.512  10.310  0.1547 -1.5642 -2.5794
  138SAPE   H2S14981   1.953   1.535  10.411  0.1114 -1.1338  1.7041
  138SAPE    C314982   1.643   1.175  10.594  0.0608  0.3832 -0.4183
  138SAPE    HX14983   1.627   1.105  10.678 -2.6988 -0.9592 -1.9880
  138SAPE    HY14984   1.706   1.121  10.520 -0.7724 -0.9689 -0.1496
  138SAPE   O3114985   1.517   1.204  10.530 -0.3342 -0.7438 -0.3296
  138SAPE   C3114986   1.425   1.099  10.526 -0.8443  0.1914  0.6683
  138SAPE   O3214987   1.444   0.984  10.554  0.0413  0.5648 -0.0197
  138SAPE   C3214988   1.300   1.152  10.448 -0.6436 -0.1285  0.4708
  138SAPE   H2X14989   1.316   1.230  10.370 -1.5279  1.0179  1.4266
  138SAPE   H2Y14990   1.247   1.194  10.536 -3.3406 -0.2496 -1.0456
  138SAPE   C2314991   1.983   1.404  10.231 -0.4096 -0.1230 -0.3421
  138SAPE   H3R14992   1.929   1.321  10.181  0.2383 -1.1599  0.6745
  138SAPE   H3S14993   2.083   1.369  10.265  0.3668  2.0601 -0.2978
  138SAPE   C2414994   2.005   1.509  10.120  1.1830  0.2876  0.5930
  138SAPE   H4R14995   2.023   1.612  10.158 -0.0590  1.1869 -1.1820
  138SAPE   H4S14996   1.907   1.523  10.070  0.6599  0.5832  1.6945
  138SAPE   C2514997   2.117   1.470  10.028  0.2030  0.4123  0.3012
  138SAPE   H5R14998   2.215   1.448  10.072  0.8519  0.3037 -1.1589
  138SAPE   C2614999   2.109   1.461   9.896  0.2055  0.2200 -0.0961
  138SAPE   H6R15000   2.192   1.421   9.836  1.3619  2.2006  0.1700
  138SAPE   C2715001   1.988   1.493   9.816 -0.8814 -0.1032  0.1326
  138SAPE   H7R15002   1.993   1.596   9.776 -2.0488 -0.5938 -1.3471
  138SAPE   H7S15003   1.894   1.484   9.875  0.3733  0.2894  2.2514
  138SAPE   C2815004   1.979   1.382   9.705  0.0305 -0.0491  0.1493
  138SAPE   H8R15005   1.942   1.286   9.745 -3.6310  1.3716  0.3764
  138SAPE   C2915006   2.009   1.392   9.568  0.4705 -0.1636 -0.4568
  138SAPE   H9R15007   1.989   1.307   9.501 -1.8070 -0.4118  0.5000
  138SAPE  C21015008   2.044   1.511   9.482  0.2720 -0.2106 -0.2686
  138SAPE  H10R15009   2.130   1.494   9.414 -0.7167 -0.5957 -1.4313
  138SAPE  H10S15010   2.081   1.598   9.541 -2.4407  1.2416 -0.6646
  138SAPE  C21115011   1.916   1.536   9.409 -0.1864  0.1003  0.0071
  138SAPE  H11R15012   1.825   1.533   9.471  0.9197 -5.5516  1.6766
  138SAPE  C21215013   1.895   1.574   9.277 -0.2258 -0.0837  0.2940
  138SAPE  H12R15014   1.795   1.585   9.234  0.4346  1.1556 -0.9634
  138SAPE  C21315015   2.011   1.593   9.186  0.0786  0.2545 -0.2096
  138SAPE  H13R15016   2.056   1.493   9.166 -0.2964  0.6702 -3.4707
  138SAPE  H13S15017   2.093   1.648   9.237 -0.0271  1.9278 -1.7692
  138SAPE  C21415018   1.986   1.662   9.057 -0.1476  0.1537 -0.4900
  138SAPE  H14R15019   2.005   1.770   9.065  0.7545 -0.0628  0.2793
  138SAPE  C21515020   1.954   1.612   8.936  0.6111  0.1486  0.6727
  138SAPE  H15R15021   1.946   1.682   8.852 -0.3790  0.7822  1.2904
  138SAPE  C21615022   1.932   1.472   8.910 -0.4625 -0.4739 -0.8491
  138SAPE  H16R15023   1.823   1.452   8.898 -0.4285 -0.7628 -0.6921
  138SAPE  H16S15024   1.949   1.419   9.007 -2.7753 -0.1571 -0.2365
  138SAPE  C21715025   1.996   1.409   8.789  0.2490  0.7778  0.2659
  138SAPE  H17R15026   1.976   1.300   8.795 -0.3298  1.0237  3.1413
  138SAPE  H17S15027   2.107   1.414   8.789  0.3483 -0.8815 -1.6065
  138SAPE  C21815028   1.936   1.447   8.653  0.3965 -0.1341 -0.4766
  138SAPE  H18R15029   1.946   1.555   8.631  0.1484  0.0552  0.3210
  138SAPE  H18S15030   1.828   1.420   8.658 -0.1957  2.2038  0.0697
  138SAPE  C21915031   1.994   1.367   8.530 -0.3915 -0.9242  0.1947
  138SAPE  H19R15032   2.101   1.360   8.558 -0.8407 -0.8070  2.0514
  138SAPE  H19S15033   1.978   1.441   8.449  0.2905  0.2726  1.1368
  138SAPE  C22015034   1.935   1.235   8.500  0.3517  0.7762 -0.5367
  138SAPE  H20R15035   1.958   1.170   8.587  1.4240  1.4602 -0.2964
  138SAPE  H20S15036   1.992   1.185   8.419  2.3991 -0.5072  1.6430
  138SAPE  H20T15037   1.826   1.229   8.478  0.0441 -1.4236  1.4680
  138SAPE   C3315038   1.208   1.045  10.386  0.6478  0.1072 -0.2030
  138SAPE   H3X15039   1.113   1.097  10.362  1.4053  1.2098 -0.8093
  138SAPE   H3Y15040   1.172   0.971  10.461 -0.8687  1.9140  0.8705
  138SAPE   C3415041   1.257   0.974  10.259 -0.4504  0.3335  0.7834
  138SAPE   H4X15042   1.175   0.911  10.221 -1.1995  1.8400 -0.1096
  138SAPE   H4Y15043   1.342   0.910  10.292  0.2274  0.2189 -1.1357
  138SAPE   C3515044   1.292   1.062  10.143  0.3423  0.2989  1.1649
  138SAPE   H5X15045   1.403   1.066  10.145  0.3246  1.2146  0.4480
  138SAPE   H5Y15046   1.243   1.161  10.143  1.0396  0.6476  1.7144
  138SAPE   C3615047   1.244   1.008  10.006 -0.1212 -0.4059  0.5693
  138SAPE   H6X15048   1.266   1.083   9.927 -1.4680  0.5294  1.0853
  138SAPE   H6Y15049   1.135   0.992  10.013 -0.0776 -0.9630  0.0321
  138SAPE   C3715050   1.306   0.876   9.967 -0.7186 -0.4971 -0.1123
  138SAPE   H7X15051   1.282   0.799  10.044 -2.4090  1.7127  1.6157
  138SAPE   H7Y15052   1.417   0.890   9.964 -0.8523  0.2965 -1.6429
  138SAPE   C3815053   1.253   0.827   9.834 -0.0014  0.5876 -0.3329
  138SAPE   H8X15054   1.146   0.855   9.822  0.0241  0.1857 -1.5338
  138SAPE   H8Y15055   1.267   0.717   9.828  0.2908  0.4837  1.8527
  138SAPE   C3915056   1.322   0.894   9.717  0.1766  0.5087  0.6600
  138SAPE   H9X15057   1.429   0.865   9.721 -0.4569 -2.2847 -1.3129
  138SAPE   H9Y15058   1.309   1.004   9.722  1.3541  0.8395 -2.4448
  138SAPE  C31015059   1.260   0.853   9.583  0.6931  0.1190  0.0060
  138SAPE  H10X15060   1.150   0.853   9.595  0.9629  0.9197  2.8996
  138SAPE  H10Y15061   1.285   0.746   9.566 -1.3041 -0.6591  1.7690
  138SAPE  C31115062   1.286   0.951   9.468 -0.1721  0.6799 -0.4529
  138SAPE  H11X15063   1.395   0.970   9.464  0.1455 -0.3299  2.0048
  138SAPE  H11Y15064   1.249   1.050   9.502 -2.7492 -0.4162  0.0923
  138SAPE  C31215065   1.224   0.913   9.336  0.4608  0.0112 -0.3477
  138SAPE  H12X15066   1.114   0.908   9.339  0.4691 -0.3787 -0.6393
  138SAPE  H12Y15067   1.270   0.816   9.306  1.6669 -0.5769  3.1297
  138SAPE  C31315068   1.268   1.010   9.222 -0.1826  0.4777 -0.6650
  138SAPE  H13X15069   1.377   1.033   9.225 -0.3295  1.1336 -0.0541
  138SAPE  H13Y15070   1.210   1.104   9.232 -2.9080 -0.9743 -2.1884
  138SAPE  C31415071   1.245   0.955   9.078 -0.9127  0.8646  0.9537
  138SAPE  H14X15072   1.137   0.934   9.060 -1.2970  3.0794  0.5489
  138SAPE  H14Y15073   1.301   0.863   9.050  1.0495  2.1460  0.5126
  138SAPE  C31515074   1.285   1.062   8.976  0.6501 -0.5533 -0.1470
  138SAPE  H15X15075   1.386   1.099   9.000 -0.2400  1.8647 -0.0188
  138SAPE  H15Y15076   1.210   1.144   8.969  2.8058  1.6316  1.5549
  138SAPE  C31615077   1.283   1.023   8.832  0.2493  0.1695  0.0596
  138SAPE  H16X15078   1.362   0.949   8.809  0.0573 -0.1944  0.5520
  138SAPE  H16Y15079   1.307   1.119   8.781 -0.9609  0.8432  0.7374
  138SAPE  C31715080   1.150   0.956   8.791 -0.3492  0.2082 -0.4323
  138SAPE  H17X15081   1.064   1.014   8.832  0.4446 -1.6766  4.1976
  138SAPE  H17Y15082   1.150   0.852   8.831  0.7368  0.5102  0.3546
  138SAPE  C31815083   1.137   0.935   8.641 -0.0539  0.2348 -0.4211
  138SAPE  H18X15084   1.036   0.895   8.616 -0.1767  1.6196 -2.2088
  138SAPE  H18Y15085   1.213   0.864   8.602 -2.7890 -2.3001 -1.3215
  138SAPE  H18Z15086   1.148   1.035   8.594 -1.1072  1.0821  1.0800
  139SAPE     N15087   0.531   6.401  10.593 -0.0563 -0.2113  0.2552
  139SAPE   HN115088   0.527   6.497  10.553  0.8037 -0.2010  0.1890
  139SAPE   HN215089   0.468   6.341  10.536 -3.0170  2.5736  0.4562
  139SAPE   HN315090   0.479   6.411  10.682  0.1328 -2.0843  0.6083
  139SAPE   C1215091   0.673   6.343  10.614 -0.7472 -0.4394 -0.2062
  139SAPE  H12A15092   0.668   6.239  10.651  0.3704 -0.7197 -0.8076
  139SAPE  H12B15093   0.716   6.409  10.692 -2.7404  1.2608 -0.5029
  139SAPE   C1115094   0.766   6.349  10.497 -0.1072  0.8126  0.2363
  139SAPE  H11A15095   0.723   6.303  10.405  1.4293 -3.1875  1.4043
  139SAPE  H11B15096   0.851   6.285  10.531 -0.2968  0.4574  0.0461
  139SAPE     P15097   0.946   6.532  10.497  0.1051  0.0199 -0.2362
  139SAPE   O1315098   0.972   6.666  10.452 -0.1605 -0.0710 -0.7270
  139SAPE   O1415099   0.959   6.514  10.642  0.4580  0.1469  0.0394
  139SAPE   O1215100   0.798   6.484  10.461  0.5085 -0.0531 -0.3844
  139SAPE   O1115101   1.040   6.423  10.427 -0.1001  0.0802 -0.0052
  139SAPE    C115102   1.009   6.383  10.285  0.7326  0.3570  0.3310
  139SAPE    HA15103   1.022   6.273  10.285 -0.2678  0.2237  1.7181
  139SAPE    HB15104   0.906   6.402  10.249  0.9324  0.0373 -0.4213
  139SAPE    C215105   1.122   6.443  10.193  0.8430 -0.2484  0.1290
  139SAPE    HS15106   1.209   6.387  10.231  1.2659  0.9021  0.8672
  139SAPE   O2115107   1.129   6.586  10.208  0.1261 -0.1653  0.7301
  139SAPE   C2115108   1.220   6.638  10.294 -0.3053  0.1620 -0.1984
  139SAPE   O2215109   1.298   6.574  10.364 -0.0332 -0.9343 -0.2294
  139SAPE   C2215110   1.221   6.796  10.294 -0.9160  0.4932  0.0657
  139SAPE   H2R15111   1.121   6.824  10.334 -2.2856 -0.0209 -2.8173
  139SAPE   H2S15112   1.306   6.841  10.350  0.1114 -2.0196  0.6273
  139SAPE    C315113   1.108   6.404  10.039  0.1946 -0.5256  0.4636
  139SAPE    HX15114   1.193   6.456   9.990 -0.4974 -0.4330 -0.6658
  139SAPE    HY15115   1.004   6.432  10.010 -0.9563 -1.2171  3.7418
  139SAPE   O3115116   1.129   6.264  10.026 -0.4223 -1.0637 -0.2676
  139SAPE   C3115117   1.164   6.214   9.908  0.3670 -0.1545 -0.5170
  139SAPE   O3215118   1.206   6.280   9.813 -0.4121  0.4253 -0.0849
  139SAPE   C3215119   1.132   6.069   9.894 -0.0766 -0.3328 -0.4406
  139SAPE   H2X15120   1.148   6.040   9.787  0.3047  1.3720 -0.8570
  139SAPE   H2Y15121   1.024   6.058   9.920  0.4541 -2.0609  1.1757
  139SAPE   C2315122   1.216   6.845  10.155 -0.1797  0.7303 -0.5699
  139SAPE   H3R15123   1.191   6.953  10.167 -1.2418  0.4301  0.0084
  139SAPE   H3S15124   1.140   6.797  10.089 -2.2889 -0.1700  2.4291
  139SAPE   C2415125   1.356   6.857  10.084 -1.0564 -0.0287  0.2966
  139SAPE   H4R15126   1.435   6.892  10.152  1.2203 -0.0398 -2.2589
  139SAPE   H4S15127   1.342   6.933  10.004  0.2285  0.3303  0.4116
  139SAPE   C2515128   1.383   6.724  10.009  0.3713 -0.0680 -0.3827
  139SAPE   H5R15129   1.444   6.649  10.063  2.8264  1.2135 -1.2835
  139SAPE   C2615130   1.345   6.701   9.884  0.1677  1.1301 -0.5245
  139SAPE   H6R15131   1.371   6.598   9.853  0.6735  1.0383  0.1775
  139SAPE   C2715132   1.268   6.790   9.793  0.9030  0.3755  0.0306
  139SAPE   H7R15133   1.324   6.880   9.760 -0.4012  0.6440 -1.4985
  139SAPE   H7S15134   1.178   6.835   9.841  3.0621  3.2517  1.5522
  139SAPE   C2815135   1.211   6.720   9.673  0.0709  0.1784 -0.3162
  139SAPE   H8R15136   1.131   6.646   9.688 -1.3288  1.9462  1.1509
  139SAPE   C2915137   1.257   6.729   9.545 -0.2156 -0.6385 -0.5376
  139SAPE   H9R15138   1.213   6.676   9.458  1.1959 -1.6770 -0.6412
  139SAPE  C21015139   1.387   6.814   9.513 -0.6164  0.9618 -0.0441
  139SAPE  H10R15140   1.457   6.753   9.453 -2.3668 -0.0325 -1.1421
  139SAPE  H10S15141   1.441   6.832   9.608  0.6021  0.3799 -0.6195
  139SAPE  C21115142   1.351   6.943   9.436  0.1313 -1.0804 -0.2067
  139SAPE  H11R15143   1.347   7.039   9.489  2.3389 -1.9590  1.6061
  139SAPE  C21215144   1.311   6.943   9.309 -0.0429  0.1430  0.0297
  139SAPE  H12R15145   1.287   7.044   9.272  0.3034  0.7787  1.4666
  139SAPE  C21315146   1.301   6.829   9.202 -1.1173 -1.0515 -0.8582
  139SAPE  H13R15147   1.196   6.793   9.204 -0.9418 -1.5472 -0.2738
  139SAPE  H13S15148   1.374   6.749   9.225 -0.2257  0.3441  1.3560
  139SAPE  C21415149   1.345   6.871   9.063 -0.1954 -0.2662 -0.0001
  139SAPE  H14R15150   1.423   6.808   9.019  1.8728  3.1051 -1.2928
  139SAPE  C21515151   1.278   6.959   8.981 -0.2213  0.5505  0.1955
  139SAPE  H15R15152   1.322   6.980   8.883 -3.7663  1.5399 -1.2266
  139SAPE  C21615153   1.144   7.012   9.011 -0.4034  0.6201 -0.0703
  139SAPE  H16R15154   1.135   7.120   8.986 -1.8552  0.6766  0.5992
  139SAPE  H16S15155   1.113   6.998   9.117 -0.5037  1.4880  0.0220
  139SAPE  C21715156   1.033   6.950   8.921 -0.2129  0.4288 -0.5795
  139SAPE  H17R15157   0.937   6.998   8.948  1.3933  3.1666  0.5468
  139SAPE  H17S15158   1.017   6.842   8.940  0.9325  0.4603  0.6672
  139SAPE  C21815159   1.056   6.972   8.769 -0.3183 -0.3157  0.3404
  139SAPE  H18R15160   1.118   6.886   8.735  0.6392 -0.5786  2.6022
  139SAPE  H18S15161   1.120   7.063   8.765  0.3553 -0.8901 -3.1313
  139SAPE  C21915162   0.928   6.996   8.679 -0.4107  0.3792  0.9218
  139SAPE  H19R15163   0.872   7.082   8.721  0.2912  0.7554  1.0856
  139SAPE  H19S15164   0.863   6.907   8.663  0.6164  0.2330 -2.9729
  139SAPE  C22015165   0.972   7.035   8.539  0.0014  0.1272 -0.3470
  139SAPE  H20R15166   1.006   7.141   8.543  0.3653  0.0407 -0.9678
  139SAPE  H20S15167   0.881   7.034   8.475 -1.4338 -1.0088  1.6859
  139SAPE  H20T15168   1.043   6.973   8.481 -1.7218 -0.7414 -1.5606
  139SAPE   C3315169   1.210   5.985   9.991 -0.4663  0.3320  0.8274
  139SAPE   H3X15170   1.179   6.016  10.093  0.9510  1.1355  1.0432
  139SAPE   H3Y15171   1.318   6.014   9.990 -0.1787 -0.7437 -0.6345
  139SAPE   C3415172   1.193   5.838   9.962  0.2632 -0.4794  0.3409
  139SAPE   H4X15173   1.094   5.799   9.996 -0.4674 -0.3480 -1.5570
  139SAPE   H4Y15174   1.257   5.772  10.023 -0.8142 -1.6465  0.2223
  139SAPE   C3515175   1.213   5.792   9.814 -0.1314 -0.0871  0.3247
  139SAPE   H5X15176   1.305   5.847   9.785  0.5090 -1.2124  0.1878
  139SAPE   H5Y15177   1.120   5.821   9.759  0.3670  1.0547  0.0714
  139SAPE   C3615178   1.219   5.638   9.802 -0.2454  0.4782  0.2882
  139SAPE   H6X15179   1.144   5.598   9.873 -0.1495  0.8396  0.5966
  139SAPE   H6Y15180   1.320   5.606   9.837  0.8571  0.9516 -2.3236
  139SAPE   C3715181   1.190   5.585   9.666 -0.5104  0.0848 -0.2076
  139SAPE   H7X15182   1.091   5.615   9.626 -0.6054  3.5639  2.4469
  139SAPE   H7Y15183   1.194   5.475   9.677  0.2917  0.3024  1.9123
  139SAPE   C3815184   1.296   5.631   9.564 -0.2975  0.4082  0.1503
  139SAPE   H8X15185   1.398   5.610   9.602 -0.6413 -0.7210  0.4734
  139SAPE   H8Y15186   1.283   5.739   9.542  0.4954  0.1412 -1.7031
  139SAPE   C3915187   1.296   5.545   9.433  0.2222  0.0638 -0.0736
  139SAPE   H9X15188   1.302   5.437   9.459  0.4508 -0.5059 -2.3351
  139SAPE   H9Y15189   1.385   5.561   9.369  0.3688  0.9123  0.3365
  139SAPE  C31015190   1.171   5.560   9.351 -0.2687 -0.5074  0.2126
  139SAPE  H10X15191   1.178   5.660   9.303  0.1886 -1.4411 -1.7386
  139SAPE  H10Y15192   1.085   5.564   9.421  0.1924 -0.3260  0.7706
  139SAPE  C31115193   1.147   5.463   9.234  0.0347  0.3880  0.0500
  139SAPE  H11X15194   1.048   5.473   9.185  0.7654  3.6323 -0.9106
  139SAPE  H11Y15195   1.149   5.356   9.263  1.4782  0.5649  0.6633
  139SAPE  C31215196   1.259   5.482   9.128 -0.3336  0.4735  0.4368
  139SAPE  H12X15197   1.355   5.453   9.177 -1.0658 -1.0833  0.9728
  139SAPE  H12Y15198   1.269   5.589   9.102  1.5900  0.1273 -0.3537
  139SAPE  C31315199   1.246   5.402   8.997  0.6170  0.1279  0.2184
  139SAPE  H13X15200   1.147   5.433   8.958  0.1757  0.8172  1.8701
  139SAPE  H13Y15201   1.245   5.293   9.018  0.1277 -0.3601 -2.1258
  139SAPE  C31415202   1.361   5.424   8.893  0.3094  0.2299  0.3153
  139SAPE  H14X15203   1.454   5.387   8.940  0.9177 -0.7666 -1.6125
  139SAPE  H14Y15204   1.366   5.531   8.863 -1.0212 -0.0715 -1.0498
  139SAPE  C31515205   1.332   5.352   8.761  0.3854  0.0532 -0.7552
  139SAPE  H15X15206   1.258   5.404   8.697 -1.0489 -1.1311 -0.0814
  139SAPE  H15Y15207   1.300   5.249   8.786  1.1510 -0.2068 -0.8070
  139SAPE  C31615208   1.456   5.352   8.674  0.1089  0.4382 -0.2158
  139SAPE  H16X15209   1.491   5.457   8.665  3.2778 -0.4991  0.2232
  139SAPE  H16Y15210   1.542   5.302   8.724 -0.7429 -0.3310  0.4921
  139SAPE  C31715211   1.453   5.284   8.534 -0.2329 -0.0349  0.7511
  139SAPE  H17X15212   1.539   5.305   8.467 -0.0198  2.2714  1.7098
  139SAPE  H17Y15213   1.368   5.328   8.477  1.1332 -0.3291 -1.5821
  139SAPE  C31815214   1.432   5.130   8.542 -0.0431  0.6208  1.0403
  139SAPE  H18X15215   1.323   5.112   8.558 -0.5702  0.7184 -2.0204
  139SAPE  H18Y15216   1.491   5.085   8.625  0.6791  0.5238  0.4760
  139SAPE  H18Z15217   1.464   5.089   8.444 -1.7021 -0.2400  0.8401
  140SAPE     N15218   3.030   2.439  11.034 -0.2230 -0.2322 -0.3713
  140SAPE   HN115219   2.951   2.444  11.101  0.5047 -0.6257  0.5229
  140SAPE   HN215220   3.030   2.516  10.963  1.1426  0.8027  0.7299
  140SAPE   HN315221   3.012   2.354  10.976 -1.0201 -1.7233  2.0123
  140SAPE   C1215222   3.161   2.436  11.103  0.2972 -0.4512 -0.2524
  140SAPE  H12A15223   3.231   2.440  11.017 -1.6905 -3.0614 -2.0434
  140SAPE  H12B15224   3.184   2.345  11.162  2.0200  0.1104 -0.0433
  140SAPE   C1115225   3.189   2.563  11.186  0.2625  0.5699 -0.1633
  140SAPE  H11A15226   3.272   2.544  11.258  1.1938 -0.9458 -1.6270
  140SAPE  H11B15227   3.101   2.567  11.254  1.0509  0.9124  0.8628
  140SAPE     P15228   3.207   2.816  11.212  0.1572  0.1136  0.4101
  140SAPE   O1315229   3.097   2.903  11.172 -0.4143 -0.4448 -0.0641
  140SAPE   O1415230   3.213   2.787  11.352  0.2286  0.2732  0.4590
  140SAPE   O1215231   3.208   2.686  11.124 -0.4122 -0.0580  0.5636
  140SAPE   O1115232   3.338   2.890  11.165 -0.0736  0.3787  0.2614
  140SAPE    C115233   3.456   2.807  11.134  0.0478  1.2211 -0.6295
  140SAPE    HA15234   3.491   2.741  11.215 -3.1549  0.5673  0.3003
  140SAPE    HB15235   3.431   2.736  11.052 -0.7231 -1.6215  1.9902
  140SAPE    C215236   3.568   2.903  11.085  0.8103  0.1509 -0.0209
  140SAPE    HS15237   3.552   2.993  11.149 -1.6007 -0.9603  0.9983
  140SAPE   O2115238   3.554   2.936  10.940  0.6389  0.0208  0.1402
  140SAPE   C2115239   3.609   3.049  10.903 -0.0482  0.1501 -0.4887
  140SAPE   O2215240   3.663   3.130  10.975 -0.6070 -0.1809  0.3763
  140SAPE   C2215241   3.615   3.049  10.753 -0.0321  0.1766 -0.0967
  140SAPE   H2R15242   3.695   2.982  10.715 -2.1114 -1.1409 -2.3008
  140SAPE   H2S15243   3.517   3.024  10.708 -0.1942  1.7644 -0.6795
  140SAPE    C315244   3.705   2.840  11.101 -0.0497  0.6212  0.6146
  140SAPE    HX15245   3.732   2.835  11.209 -0.1491 -0.8346  0.5805
  140SAPE    HY15246   3.784   2.910  11.064  0.5448  0.0155  0.7405
  140SAPE   O3115247   3.707   2.710  11.040 -0.0898 -0.5603  0.7329
  140SAPE   C3115248   3.747   2.708  10.914 -0.3411 -0.3814  0.1810
  140SAPE   O3215249   3.805   2.799  10.862  0.4304  0.3556  0.2369
  140SAPE   C3215250   3.705   2.576  10.848  0.0382  0.3447 -0.2833
  140SAPE   H2X15251   3.611   2.552  10.903  0.8273  0.6726  1.2275
  140SAPE   H2Y15252   3.776   2.494  10.873  1.9965  2.4421  1.2594
  140SAPE   C2315253   3.630   3.195  10.690  0.3161  0.0323  0.1973
  140SAPE   H3R15254   3.731   3.236  10.711 -0.2353  0.8794  1.2559
  140SAPE   H3S15255   3.570   3.279  10.732 -2.0892 -2.2172  1.3826
  140SAPE   C2415256   3.585   3.192  10.540  0.0614  0.6679  0.4943
  140SAPE   H4R15257   3.566   3.297  10.511  1.6413  1.2364  1.4274
  140SAPE   H4S15258   3.489   3.138  10.525 -0.0919  0.9591  0.4261
  140SAPE   C2515259   3.694   3.141  10.447  0.4689  0.0497  0.8285
  140SAPE   H5R15260   3.790   3.119  10.495  0.6524 -0.4528  0.2393
  140SAPE   C2615261   3.693   3.122  10.316  0.2558  0.4525 -0.9318
  140SAPE   H6R15262   3.788   3.105  10.263  0.0197  1.4593 -1.6775
  140SAPE   C2715263   3.575   3.144  10.222 -0.0147 -0.2656 -0.3466
  140SAPE   H7R15264   3.496   3.094  10.283  3.4293 -1.4227  3.4287
  140SAPE   H7S15265   3.590   3.080  10.132  0.4547  2.1845 -2.0426
  140SAPE   C2815266   3.555   3.286  10.173 -0.2943  0.4392  0.5965
  140SAPE   H8R15267   3.610   3.358  10.234  0.0884 -0.5725  1.4666
  140SAPE   C2915268   3.475   3.328  10.074 -0.0897  0.3892  0.1361
  140SAPE   H9R15269   3.458   3.434  10.048 -2.0099 -0.2843 -1.4712
  140SAPE  C21015270   3.397   3.234   9.981  0.6151 -0.2222 -0.3697
  140SAPE  H10R15271   3.310   3.195  10.039 -0.2037  1.1754 -0.6117
  140SAPE  H10S15272   3.469   3.154   9.956 -0.2520 -0.6163 -1.6403
  140SAPE  C21115273   3.347   3.294   9.851  0.0573  0.2164 -0.7681
  140SAPE  H11R15274   3.249   3.343   9.861  0.2938  1.2651 -3.2437
  140SAPE  C21215275   3.406   3.289   9.734  1.2456  0.3294  0.1249
  140SAPE  H12R15276   3.349   3.326   9.648  1.6689  0.4924 -0.0917
  140SAPE  C21315277   3.541   3.231   9.701  0.0120 -0.6162 -0.4135
  140SAPE  H13R15278   3.532   3.121   9.692 -1.0551 -0.5151 -0.7283
  140SAPE  H13S15279   3.607   3.250   9.788 -0.7680 -0.6377  0.1958
  140SAPE  C21415280   3.601   3.289   9.579 -1.0593 -0.5615  0.1358
  140SAPE  H14R15281   3.643   3.390   9.589 -1.0357 -0.3363 -1.9959
  140SAPE  C21515282   3.617   3.228   9.459 -0.6981  0.1121  0.4054
  140SAPE  H15R15283   3.660   3.280   9.372 -1.8087  0.8328  0.2790
  140SAPE  C21615284   3.561   3.088   9.430  0.0234 -0.4393  0.1138
  140SAPE  H16R15285   3.500   3.090   9.338  1.2857  1.4678 -0.7117
  140SAPE  H16S15286   3.489   3.062   9.510  0.3814  2.3320  1.3999
  140SAPE  C21715287   3.657   2.972   9.420 -0.0717 -0.5319 -0.1211
  140SAPE  H17R15288   3.607   2.882   9.379 -0.6426  0.3397 -1.3953
  140SAPE  H17S15289   3.687   2.940   9.522  1.3875 -2.2511 -1.0624
  140SAPE  C21815290   3.786   2.987   9.327  0.1193 -0.4221 -0.2103
  140SAPE  H18R15291   3.856   2.901   9.332  1.3985  0.7615  3.4303
  140SAPE  H18S15292   3.844   3.067   9.378  1.6675 -0.2184 -2.2116
  140SAPE  C21915293   3.747   3.016   9.183 -0.3307  0.1133 -0.3457
  140SAPE  H19R15294   3.703   3.118   9.186 -1.3278 -0.2884 -1.1408
  140SAPE  H19S15295   3.677   2.938   9.148  0.7371 -1.2397  0.5162
  140SAPE  C22015296   3.876   3.014   9.107  0.1653 -0.6507 -0.1291
  140SAPE  H20R15297   3.873   3.047   9.001  2.0128  1.1037  0.3427
  140SAPE  H20S15298   3.927   2.916   9.114 -1.3844 -1.3413  2.1920
  140SAPE  H20T15299   3.937   3.100   9.141 -0.0572  0.0898 -1.5385
  140SAPE   C3315300   3.668   2.581  10.698  0.2598  0.0668  0.5897
  140SAPE   H3X15301   3.638   2.480  10.661  0.3297 -0.0833  0.9385
  140SAPE   H3Y15302   3.758   2.603  10.636  0.5774  0.1729  1.0897
  140SAPE   C3415303   3.559   2.684  10.664  0.7037 -0.7312 -0.5147
  140SAPE   H4X15304   3.585   2.789  10.692 -1.0003 -0.5598  0.5273
  140SAPE   H4Y15305   3.463   2.654  10.711 -0.3023  1.0317 -1.4004
  140SAPE   C3515306   3.521   2.698  10.523 -0.7076  0.2331 -1.2473
  140SAPE   H5X15307   3.456   2.785  10.501 -1.8785 -0.5084 -0.7551
  140SAPE   H5Y15308   3.467   2.607  10.490 -0.1780  0.4794 -2.8464
  140SAPE   C3615309   3.635   2.724  10.417  0.1503 -0.3116 -0.7251
  140SAPE   H6X15310   3.708   2.641  10.417 -0.0323 -0.4843  0.6972
  140SAPE   H6Y15311   3.701   2.805  10.455  0.6257 -1.0916  0.1046
  140SAPE   C3715312   3.581   2.758  10.280 -0.6686 -0.1423  0.2785
  140SAPE   H7X15313   3.530   2.857  10.281 -0.2612  0.0543  1.9585
  140SAPE   H7Y15314   3.509   2.685  10.238 -0.5661  0.4454 -0.9489
  140SAPE   C3815315   3.698   2.779  10.178 -0.2260  0.4423  1.0055
  140SAPE   H8X15316   3.764   2.691  10.196  1.3344  1.1332 -1.0585
  140SAPE   H8Y15317   3.747   2.878  10.187 -2.2181  1.9015 -3.0948
  140SAPE   C3915318   3.650   2.776  10.033  0.4942 -0.2542 -0.5630
  140SAPE   H9X15319   3.569   2.852  10.020  1.4864  1.0006  0.5277
  140SAPE   H9Y15320   3.603   2.681  10.001 -1.5764  0.6171 -0.2045
  140SAPE  C31015321   3.748   2.797   9.917  0.4144 -0.3052 -0.1632
  140SAPE  H10X15322   3.815   2.709   9.929  1.8980  0.7537 -0.5155
  140SAPE  H10Y15323   3.799   2.896   9.924 -0.8716  0.4004 -0.6883
  140SAPE  C31115324   3.695   2.794   9.778  0.0461 -1.0885  0.0785
  140SAPE  H11X15325   3.779   2.816   9.709  0.3071 -3.1824 -0.2936
  140SAPE  H11Y15326   3.620   2.874   9.761  2.1127  0.6921 -0.8574
  140SAPE  C31215327   3.635   2.661   9.737  0.1476  0.4586  0.2535
  140SAPE  H12X15328   3.533   2.643   9.777 -0.4097  1.1462 -0.8347
  140SAPE  H12Y15329   3.698   2.578   9.774  1.4869  1.2010 -0.3084
  140SAPE  C31315330   3.619   2.633   9.588 -0.2097 -0.1840 -0.0523
  140SAPE  H13X15331   3.536   2.687   9.538 -1.0243 -2.0547 -0.7972
  140SAPE  H13Y15332   3.583   2.528   9.574 -0.8007 -0.1011  0.8221
  140SAPE  C31415333   3.751   2.627   9.506  0.0720 -0.0431 -0.6993
  140SAPE  H14X15334   3.814   2.546   9.548  1.0652  0.9095 -0.3055
  140SAPE  H14Y15335   3.811   2.721   9.503  1.5970 -0.9671  0.0595
  140SAPE  C31515336   3.724   2.600   9.359  0.5641  1.0343 -0.0560
  140SAPE  H15X15337   3.662   2.680   9.314 -0.2432 -0.4594 -1.6634
  140SAPE  H15Y15338   3.671   2.504   9.338  1.9719  0.2238  0.0636
  140SAPE  C31615339   3.862   2.597   9.289 -0.3365 -0.9852  0.2005
  140SAPE  H16X15340   3.927   2.532   9.351  2.9106  1.3654 -0.5620
  140SAPE  H16Y15341   3.916   2.695   9.290  1.5318 -1.9784  2.6753
  140SAPE  C31715342   3.879   2.551   9.139  0.2962  0.2688 -0.0302
  140SAPE  H17X15343   3.816   2.625   9.086 -0.7128 -0.1640  0.5569
  140SAPE  H17Y15344   3.830   2.452   9.124 -1.2936  0.9252  0.7989
  140SAPE  C31815345   4.014   2.541   9.075 -0.1871  0.5028  0.3882
  140SAPE  H18X15346   4.074   2.460   9.122 -0.2804  0.4091  0.3460
  140SAPE  H18Y15347   4.082   2.628   9.082  3.6763 -2.3412  0.0513
  140SAPE  H18Z15348   4.012   2.522   8.966 -0.0499  1.5326  0.2013
  141SAPE     N15349   4.283   3.082  11.062 -0.2191 -0.1983 -0.8370
  141SAPE   HN115350   4.215   3.018  11.109  2.7970 -1.7278  1.6496
  141SAPE   HN215351   4.362   3.086  11.129 -2.4034 -0.7420  1.8925
  141SAPE   HN315352   4.242   3.177  11.057  0.4133  0.0782 -0.7225
  141SAPE   C1215353   4.313   3.020  10.932  0.5800 -0.3978  0.0893
  141SAPE  H12A15354   4.217   2.988  10.886  1.1945 -1.2331 -0.6291
  141SAPE  H12B15355   4.377   2.929  10.942  1.9857  0.4126 -1.2342
  141SAPE   C1115356   4.372   3.132  10.842  0.3885 -0.1649 -0.1347
  141SAPE  H11A15357   4.292   3.195  10.797  0.1097  0.2479  0.9139
  141SAPE  H11B15358   4.408   3.082  10.750 -0.4864 -2.6773  0.8631
  141SAPE     P15359   4.456   3.370  10.925  0.2577 -0.0188 -0.2358
  141SAPE   O1315360   4.330   3.387  11.006  0.0479  0.2257 -0.2127
  141SAPE   O1415361   4.581   3.431  10.979  0.2432  0.2348  0.1223
  141SAPE   O1215362   4.482   3.217  10.888  0.4234 -0.0410  0.5214
  141SAPE   O1115363   4.424   3.423  10.782  0.2380  0.0054  0.2416
  141SAPE    C115364   4.520   3.441  10.681  0.0809  0.6841  0.0186
  141SAPE    HA15365   4.540   3.550  10.684  1.1784  0.5375 -1.2917
  141SAPE    HB15366   4.617   3.387  10.693 -0.0510  0.7221  1.2276
  141SAPE    C215367   4.469   3.405  10.542 -0.3401  0.1400 -0.3456
  141SAPE    HS15368   4.552   3.413  10.468 -1.4438  1.8427 -1.4424
  141SAPE   O2115369   4.365   3.493  10.504 -0.3603  0.3944 -0.2488
  141SAPE   C2115370   4.396   3.606  10.448 -0.3907 -0.7934 -0.5536
  141SAPE   O2215371   4.510   3.648  10.419 -0.2203 -0.3814 -0.3981
  141SAPE   C2215372   4.265   3.683  10.429  0.0195 -0.1825  0.5208
  141SAPE   H2R15373   4.196   3.612  10.378  1.0171 -0.2426 -0.7677
  141SAPE   H2S15374   4.225   3.705  10.530  0.9438  1.7467  0.4812
  141SAPE    C315375   4.422   3.253  10.535 -0.1686  0.2645  0.1118
  141SAPE    HX15376   4.333   3.239  10.600  0.4498  0.8700  1.1172
  141SAPE    HY15377   4.497   3.198  10.596  0.2013 -2.3005 -2.5237
  141SAPE   O3115378   4.408   3.206  10.402  0.2871  0.0967 -0.4082
  141SAPE   C3115379   4.288   3.212  10.347 -0.0119  0.2723 -0.0304
  141SAPE   O3215380   4.181   3.220  10.407  0.3416  0.8779 -0.0329
  141SAPE   C3215381   4.304   3.201  10.188 -0.0414  0.4588 -0.1685
  141SAPE   H2X15382   4.259   3.110  10.142  1.2699 -1.0280  1.4175
  141SAPE   H2Y15383   4.412   3.192  10.166 -0.0939 -1.9277  0.4626
  141SAPE   C2315384   4.274   3.819  10.355 -0.0992 -0.3076 -0.1542
  141SAPE   H3R15385   4.331   3.903  10.400 -1.4659  0.4166  0.2616
  141SAPE   H3S15386   4.174   3.867  10.356 -0.9387 -1.9743 -1.5231
  141SAPE   C2415387   4.318   3.811  10.207  0.1194 -0.0867 -0.0990
  141SAPE   H4R15388   4.248   3.750  10.145  0.7193 -0.2991 -0.5649
  141SAPE   H4S15389   4.414   3.757  10.195 -0.4908 -1.1863 -0.1053
  141SAPE   C2515390   4.329   3.947  10.136  0.1235 -0.5224 -0.6641
  141SAPE   H5R15391   4.310   4.029  10.207  0.1771 -0.2895 -0.9204
  141SAPE   C2615392   4.343   3.966  10.005 -0.6548 -0.2670 -0.0026
  141SAPE   H6R15393   4.351   4.071   9.974 -0.9528 -0.6662 -1.4238
  141SAPE   C2715394   4.340   3.861   9.902 -0.4665 -0.6187  0.2403
  141SAPE   H7R15395   4.382   3.765   9.938 -0.4644 -0.7616 -0.1377
  141SAPE   H7S15396   4.405   3.892   9.817 -0.2932  1.3720  1.0693
  141SAPE   C2815397   4.198   3.822   9.863 -0.0398  0.7317  1.0998
  141SAPE   H8R15398   4.136   3.809   9.953  0.2798  0.1485  1.2335
  141SAPE   C2915399   4.147   3.813   9.743 -0.3254 -0.5890  0.7431
  141SAPE   H9R15400   4.052   3.762   9.720  1.0455 -1.9330 -2.1478
  141SAPE  C21015401   4.228   3.847   9.613 -0.9837  0.6129  0.6853
  141SAPE  H10R15402   4.299   3.928   9.642  0.8197 -0.3720 -0.9068
  141SAPE  H10S15403   4.169   3.896   9.532  2.6755 -0.9715 -3.0858
  141SAPE  C21115404   4.302   3.723   9.557  0.0276 -0.5115 -0.0296
  141SAPE  H11R15405   4.403   3.713   9.599  1.4171 -0.0273 -3.1030
  141SAPE  C21215406   4.238   3.621   9.488  0.2116 -0.1503 -0.3013
  141SAPE  H12R15407   4.291   3.528   9.460 -1.9638 -1.1817 -1.1446
  141SAPE  C21315408   4.094   3.626   9.440 -0.1631  0.5448  0.9921
  141SAPE  H13R15409   4.090   3.630   9.329  0.0910  0.5710  0.9849
  141SAPE  H13S15410   4.045   3.721   9.470  0.7911  0.5806  2.4272
  141SAPE  C21415411   4.023   3.507   9.484 -0.0373  0.4231 -0.2675
  141SAPE  H14R15412   4.016   3.497   9.593 -1.6435  4.0276  0.0219
  141SAPE  C21515413   3.967   3.411   9.406 -0.3630 -0.0701 -0.4420
  141SAPE  H15R15414   3.933   3.317   9.452 -2.0069  0.3077 -0.8581
  141SAPE  C21615415   3.974   3.404   9.256 -0.1557 -0.1614  0.4375
  141SAPE  H16R15416   3.969   3.302   9.212  0.6225 -0.4944  1.1098
  141SAPE  H16S15417   4.062   3.453   9.210 -1.2841  1.2535 -0.2555
  141SAPE  C21715418   3.854   3.479   9.207  0.0632 -0.7995  0.1195
  141SAPE  H17R15419   3.836   3.562   9.279  1.4978  0.0735 -0.5180
  141SAPE  H17S15420   3.762   3.420   9.228 -0.6996  0.0920 -0.6754
  141SAPE  C21815421   3.856   3.504   9.059  0.0083  0.1915 -0.0116
  141SAPE  H18R15422   3.873   3.408   9.006 -2.9464 -0.0678 -0.5664
  141SAPE  H18S15423   3.941   3.572   9.037 -0.2394  0.0834 -1.3339
  141SAPE  C21915424   3.720   3.553   9.006 -0.2388 -0.0116  0.3188
  141SAPE  H19R15425   3.714   3.642   9.073 -1.2375  0.8754 -0.9118
  141SAPE  H19S15426   3.647   3.471   9.021 -0.9926  0.1921 -2.0403
  141SAPE  C22015427   3.712   3.593   8.860  0.9133  0.2876  1.0099
  141SAPE  H20R15428   3.689   3.504   8.797 -1.9739  0.4370  1.7674
  141SAPE  H20S15429   3.806   3.634   8.815 -1.3914  1.1272 -3.3632
  141SAPE  H20T15430   3.629   3.666   8.848  1.7200  1.1281  0.4893
  141SAPE   C3315431   4.233   3.318  10.108  0.3314  1.1334 -0.1249
  141SAPE   H3X15432   4.127   3.337  10.134  0.7189  0.8306  1.7922
  141SAPE   H3Y15433   4.239   3.286  10.002  0.2278  0.8228 -0.0394
  141SAPE   C3415434   4.300   3.456  10.119 -0.1530 -0.4238 -0.2123
  141SAPE   H4X15435   4.279   3.483  10.225 -1.9960 -0.0789 -0.6344
  141SAPE   H4Y15436   4.259   3.537  10.055  1.2220  0.2739 -0.2264
  141SAPE   C3515437   4.455   3.461  10.093  0.4178  0.0944  0.3509
  141SAPE   H5X15438   4.501   3.395  10.170  1.3286  0.4057  0.0700
  141SAPE   H5Y15439   4.497   3.561  10.113  2.9861 -1.2532  1.9972
  141SAPE   C3615440   4.501   3.405   9.963  0.1140  0.6521  0.8662
  141SAPE   H6X15441   4.456   3.304   9.952 -0.0092  0.7261  0.7000
  141SAPE   H6Y15442   4.610   3.381   9.963  0.1023  0.4388 -2.3902
  141SAPE   C3715443   4.469   3.499   9.838  0.2243 -0.1266  0.2741
  141SAPE   H7X15444   4.523   3.591   9.869 -0.4416 -0.8871  3.9245
  141SAPE   H7Y15445   4.361   3.518   9.850  0.3107 -0.4107  1.5993
  141SAPE   C3815446   4.510   3.440   9.705 -0.1049 -0.5987  0.8229
  141SAPE   H8X15447   4.609   3.389   9.707  1.0642  1.6189  2.2511
  141SAPE   H8Y15448   4.510   3.524   9.633 -0.1233 -0.9855  0.3743
  141SAPE   C3915449   4.402   3.331   9.663  0.2636  0.4800 -0.1762
  141SAPE   H9X15450   4.306   3.375   9.697  0.1288  0.3409 -0.3821
  141SAPE   H9Y15451   4.408   3.252   9.742  0.4629 -0.3677 -1.0322
  141SAPE  C31015452   4.410   3.276   9.517 -0.3526  0.0382  1.0494
  141SAPE  H10X15453   4.509   3.226   9.504 -0.6063 -0.2344  0.1156
  141SAPE  H10Y15454   4.404   3.362   9.446 -1.8366 -1.6612 -0.9293
  141SAPE  C31115455   4.293   3.193   9.466 -0.8718  1.1652 -0.0149
  141SAPE  H11X15456   4.196   3.247   9.472 -0.6985  1.8328 -2.7285
  141SAPE  H11Y15457   4.283   3.105   9.533  1.1595  0.5133 -0.5570
  141SAPE  C31215458   4.320   3.141   9.324  0.4958 -0.0279 -0.2771
  141SAPE  H12X15459   4.429   3.124   9.317  0.3803 -0.0577 -2.1442
  141SAPE  H12Y15460   4.316   3.221   9.247  0.8896  1.2525  1.0062
  141SAPE  C31315461   4.253   3.008   9.290 -0.7369  0.2010 -0.2948
  141SAPE  H13X15462   4.148   3.015   9.326 -2.2036 -2.5152 -3.7040
  141SAPE  H13Y15463   4.298   2.928   9.353  0.8652  0.8957 -0.5228
  141SAPE  C31415464   4.247   2.955   9.148  0.3682 -0.6839  0.1219
  141SAPE  H14X15465   4.155   2.894   9.139  1.0592 -2.2046  2.7449
  141SAPE  H14Y15466   4.334   2.888   9.130 -0.5952 -2.3335  1.3630
  141SAPE  C31515467   4.253   3.061   9.035 -0.7351 -0.1058 -0.6987
  141SAPE  H15X15468   4.359   3.087   9.015 -0.2540  0.3499  2.1728
  141SAPE  H15Y15469   4.196   3.153   9.060  1.7897  1.7043 -1.4711
  141SAPE  C31615470   4.188   3.008   8.908 -0.3945 -0.2989 -0.6824
  141SAPE  H16X15471   4.091   2.963   8.940  0.9165 -3.3829 -0.8122
  141SAPE  H16Y15472   4.256   2.929   8.869 -0.0643 -0.0181 -0.6726
  141SAPE  C31715473   4.167   3.106   8.796  0.2292 -0.0130  0.2342
  141SAPE  H17X15474   4.257   3.165   8.772  0.4589 -0.3809  0.1851
  141SAPE  H17Y15475   4.096   3.187   8.827  1.6059  0.9627  0.8668
  141SAPE  C31815476   4.114   3.035   8.674  0.2243  0.6291 -0.2661
  141SAPE  H18X15477   4.072   3.106   8.600  0.4198  3.3646  2.1664
  141SAPE  H18Y15478   4.038   2.960   8.705 -0.1227  1.6870  1.5062
  141SAPE  H18Z15479   4.182   2.972   8.612 -0.8433  1.2328 -2.0846
  142SAPE     N15480   4.910   1.635  10.858  0.2682 -0.8101  0.6638
  142SAPE   HN115481   4.822   1.683  10.886  1.9804  1.1550  2.9398
  142SAPE   HN215482   4.890   1.536  10.834 -2.0052 -0.3757  0.7026
  142SAPE   HN315483   4.972   1.633  10.942 -0.2762 -0.1561  1.0810
  142SAPE   C1215484   4.965   1.709  10.739 -0.0511 -0.1414  0.0147
  142SAPE  H12A15485   4.905   1.688  10.647 -2.1321  0.7877  1.1225
  142SAPE  H12B15486   5.067   1.670  10.720 -0.1556  0.0155 -0.9169
  142SAPE   C1115487   4.983   1.857  10.790 -0.2998 -0.4113 -0.4637
  142SAPE  H11A15488   4.880   1.898  10.798  0.1484  0.3542  1.7555
  142SAPE  H11B15489   5.042   1.917  10.718 -0.2745  0.5152  0.3140
  142SAPE     P15490   5.124   1.986  10.966 -0.0330  0.0483  0.1562
  142SAPE   O1315491   5.052   2.115  10.932  0.0944  0.2405 -0.8952
  142SAPE   O1415492   5.159   1.976  11.113 -0.5022  0.1330  0.1220
  142SAPE   O1215493   5.048   1.854  10.920 -0.1564  0.5873 -1.1710
  142SAPE   O1115494   5.258   1.981  10.886  0.1020  0.0081 -0.0770
  142SAPE    C115495   5.317   1.845  10.868  0.3371 -1.2776 -0.5120
  142SAPE    HA15496   5.379   1.821  10.957 -0.3241 -1.3767 -0.0735
  142SAPE    HB15497   5.246   1.765  10.840 -0.9456 -0.0825 -0.7650
  142SAPE    C215498   5.405   1.834  10.740 -0.2337  0.0822 -0.6460
  142SAPE    HS15499   5.491   1.898  10.769  0.7719 -1.3897 -0.2801
  142SAPE   O2115500   5.348   1.893  10.616 -0.1849  0.0511  0.5761
  142SAPE   C2115501   5.345   2.021  10.601  0.1141 -0.1529 -0.4429
  142SAPE   O2215502   5.402   2.097  10.671 -0.4158 -0.6265  0.6730
  142SAPE   C2215503   5.265   2.058  10.472  0.3119 -0.7576 -0.3779
  142SAPE   H2R15504   5.181   2.125  10.502  1.1988 -0.6450  1.9091
  142SAPE   H2S15505   5.334   2.107  10.400  1.3228 -0.3128  0.8882
  142SAPE    C315506   5.436   1.690  10.711  0.1347 -0.6523  0.5355
  142SAPE    HX15507   5.345   1.632  10.686  0.5431 -1.6381  1.2785
  142SAPE    HY15508   5.480   1.641  10.801  0.2477 -2.1574 -0.3252
  142SAPE   O3115509   5.532   1.684  10.607  0.1498  0.3809  0.1429
  142SAPE   C3115510   5.655   1.717  10.630  0.7018  0.2692  0.1160
  142SAPE   O3215511   5.706   1.746  10.739 -0.6125 -0.1564 -0.1908
  142SAPE   C3215512   5.727   1.688  10.494 -0.7488  0.3612  0.0396
  142SAPE   H2X15513   5.680   1.599  10.446  2.4560 -0.5337 -1.5485
  142SAPE   H2Y15514   5.830   1.666  10.527 -0.7412  3.4457  2.2543
  142SAPE   C2315515   5.190   1.936  10.413  0.4192  0.4803  0.4627
  142SAPE   H3R15516   5.123   1.900  10.494  0.8425  0.2773  0.7229
  142SAPE   H3S15517   5.265   1.857  10.388  2.5913  2.4316  0.6051
  142SAPE   C2415518   5.111   1.983  10.295  0.1572  0.9942  0.7061
  142SAPE   H4R15519   5.076   1.895  10.236  2.0165  0.3720  0.4872
  142SAPE   H4S15520   5.184   2.037  10.231  0.0829 -0.2804 -0.4846
  142SAPE   C2515521   4.986   2.067  10.326  0.2251 -0.6281 -0.3230
  142SAPE   H5R15522   4.930   2.044  10.417 -1.6999  1.7022 -0.8430
  142SAPE   C2615523   4.940   2.169  10.250  0.3669  0.0820  0.6441
  142SAPE   H6R15524   4.855   2.229  10.286 -0.0993  0.1465 -0.5436
  142SAPE   C2715525   5.011   2.213  10.120 -0.5950 -0.6182 -0.1057
  142SAPE   H7R15526   5.107   2.163  10.100 -1.1105 -1.1985 -1.1717
  142SAPE   H7S15527   5.045   2.317  10.141 -2.3475 -0.6226  3.1444
  142SAPE   C2815528   4.913   2.209  10.000 -0.0030 -0.5869 -0.7482
  142SAPE   H8R15529   4.817   2.159  10.020 -0.3159  0.1195 -0.4766
  142SAPE   C2915530   4.930   2.253   9.878 -0.7827 -0.0178  0.7360
  142SAPE   H9R15531   4.853   2.230   9.803 -0.6203 -0.1621  0.6132
  142SAPE  C21015532   5.052   2.328   9.824  0.1807 -0.1500  0.0494
  142SAPE  H10R15533   5.111   2.256   9.764 -1.9603 -1.1574 -0.9369
  142SAPE  H10S15534   5.117   2.361   9.907 -0.5642  0.6504  0.3142
  142SAPE  C21115535   5.011   2.440   9.736 -0.5134  0.3828  0.0071
  142SAPE  H11R15536   4.932   2.503   9.778 -1.4935 -0.4741 -0.5419
  142SAPE  C21215537   5.048   2.482   9.613 -0.4792  0.8382 -0.7081
  142SAPE  H12R15538   5.001   2.571   9.570  1.8128  1.2044 -2.6150
  142SAPE  C21315539   5.171   2.429   9.539 -0.1430  0.0885 -0.0867
  142SAPE  H13R15540   5.245   2.382   9.607  0.1688  2.0253  0.9427
  142SAPE  H13S15541   5.236   2.509   9.497  0.9109 -0.3450  0.6924
  142SAPE  C21415542   5.140   2.328   9.436  0.5193  0.1738  0.1897
  142SAPE  H14R15543   5.055   2.259   9.452  0.2974  0.5999  0.8424
  142SAPE  C21515544   5.205   2.304   9.325  0.1170  0.9114 -1.0545
  142SAPE  H15R15545   5.153   2.244   9.249 -0.3011  0.7027 -0.6029
  142SAPE  C21615546   5.335   2.367   9.281  0.4251 -0.3038  0.3874
  142SAPE  H16R15547   5.407   2.336   9.360 -0.3412  0.1726  1.2901
  142SAPE  H16S15548   5.325   2.476   9.267 -0.8012 -0.3931  0.5043
  142SAPE  C21715549   5.376   2.314   9.142  0.6751 -0.2511 -0.5679
  142SAPE  H17R15550   5.294   2.334   9.069  1.0802 -0.1527 -0.9921
  142SAPE  H17S15551   5.370   2.203   9.146  1.7558 -0.2359  2.1331
  142SAPE  C21815552   5.518   2.349   9.103  0.5653 -0.1374  0.5258
  142SAPE  H18R15553   5.583   2.367   9.192  0.2555 -0.5082  0.8294
  142SAPE  H18S15554   5.530   2.451   9.061  0.5659 -0.4884 -0.3245
  142SAPE  C21915555   5.557   2.256   8.989  0.3615  0.2071 -0.1803
  142SAPE  H19R15556   5.494   2.276   8.900 -3.3097  0.6916  2.4391
  142SAPE  H19S15557   5.548   2.151   9.025 -1.3007  0.4953  0.2802
  142SAPE  C22015558   5.707   2.271   8.948 -0.1903  0.3278 -0.6587
  142SAPE  H20R15559   5.728   2.186   8.879 -3.1182 -2.3744  1.6345
  142SAPE  H20S15560   5.768   2.254   9.039  2.1837  0.9902 -2.0799
  142SAPE  H20T15561   5.734   2.365   8.896  3.0843  0.7284  1.5973
  142SAPE   C3315562   5.727   1.803  10.393 -0.3401 -0.3616  0.4290
  142SAPE   H3X15563   5.797   1.784  10.309 -1.0839 -2.5915  0.2879
  142SAPE   H3Y15564   5.751   1.891  10.456  0.3058 -2.1777  2.7719
  142SAPE   C3415565   5.587   1.818  10.325  0.0880 -0.2814  0.5160
  142SAPE   H4X15566   5.508   1.821  10.403  0.5871 -1.3050  1.0729
  142SAPE   H4Y15567   5.559   1.728  10.266 -0.5348 -0.1252  0.5648
  142SAPE   C3515568   5.565   1.938  10.229 -0.6373  0.4591 -0.0442
  142SAPE   H5X15569   5.576   2.036  10.281 -0.4360 -0.4995  1.7428
  142SAPE   H5Y15570   5.459   1.936  10.196 -0.5199 -0.4727 -0.3929
  142SAPE   C3615571   5.657   1.926  10.100 -0.6070 -0.1993 -0.4009
  142SAPE   H6X15572   5.615   1.846  10.034 -0.4761 -0.9083  0.3696
  142SAPE   H6Y15573   5.765   1.903  10.117 -0.8586 -1.7406 -0.8204
  142SAPE   C3715574   5.643   2.064  10.028  0.6460  0.4004  0.1330
  142SAPE   H7X15575   5.737   2.079   9.971  1.0479 -1.1716  0.3570
  142SAPE   H7Y15576   5.629   2.152  10.095 -0.9954  0.1557  0.1302
  142SAPE   C3815577   5.520   2.061   9.927 -0.9402  0.0195 -0.1617
  142SAPE   H8X15578   5.433   2.033   9.989  0.2363 -0.2458  1.3948
  142SAPE   H8Y15579   5.553   1.981   9.857 -0.0426  0.9101 -0.7774
  142SAPE   C3915580   5.492   2.193   9.847  0.4684 -0.1158  0.2196
  142SAPE   H9X15581   5.444   2.272   9.909  0.4140  0.8510 -1.0335
  142SAPE   H9Y15582   5.425   2.161   9.765  2.5196  2.2699 -2.4844
  142SAPE  C31015583   5.612   2.261   9.779 -0.8006 -0.6221  0.4650
  142SAPE  H10X15584   5.686   2.287   9.858 -1.2930 -2.1227  1.4266
  142SAPE  H10Y15585   5.571   2.356   9.737  1.0026  1.5018  3.3396
  142SAPE  C31115586   5.667   2.185   9.667 -0.8902 -0.0599 -0.7938
  142SAPE  H11X15587   5.658   2.076   9.689 -0.7794  0.6680  3.3279
  142SAPE  H11Y15588   5.773   2.203   9.641  0.3064 -0.1376  3.5999
  142SAPE  C31215589   5.592   2.221   9.537  0.7370  0.4046 -0.9756
  142SAPE  H12X15590   5.624   2.322   9.505  0.1939  0.4171 -1.4903
  142SAPE  H12Y15591   5.481   2.221   9.547  0.6636  0.6778 -1.7951
  142SAPE  C31315592   5.616   2.110   9.432 -0.5109  0.5134 -1.1166
  142SAPE  H13X15593   5.531   2.112   9.360 -0.8983 -0.6246 -0.6994
  142SAPE  H13Y15594   5.608   2.016   9.490 -0.6960  0.3160 -1.4595
  142SAPE  C31415595   5.749   2.133   9.362  0.6919 -0.4325  0.6579
  142SAPE  H14X15596   5.827   2.164   9.435  0.8557  0.5379  0.0854
  142SAPE  H14Y15597   5.735   2.226   9.302 -1.8263 -0.4251  1.2041
  142SAPE  C31515598   5.784   2.007   9.277  0.7026  0.9855  0.6276
  142SAPE  H15X15599   5.713   1.999   9.191 -0.9940  0.8337  2.0098
  142SAPE  H15Y15600   5.777   1.916   9.340 -1.8107 -0.3368 -1.4241
  142SAPE  C31615601   5.928   2.025   9.217  0.3230  0.1139  1.2727
  142SAPE  H16X15602   5.927   2.130   9.180 -2.0308 -0.7014 -1.1370
  142SAPE  H16Y15603   5.931   1.953   9.132 -1.2814  1.9650 -0.3967
  142SAPE  C31715604   6.041   1.982   9.314  0.7072  0.4217  0.3961
  142SAPE  H17X15605   6.019   1.890   9.371 -0.6462  0.5208  0.0645
  142SAPE  H17Y15606   6.042   2.063   9.390  1.6387  0.4732  0.3355
  142SAPE  C31815607   6.172   1.969   9.242 -0.6334  0.4917  0.3646
  142SAPE  H18X15608   6.257   1.941   9.308 -0.2535  0.8948  0.0453
  142SAPE  H18Y15609   6.195   2.061   9.185 -0.1842  0.6723  0.8318
  142SAPE  H18Z15610   6.169   1.881   9.174  2.3064 -0.1322  0.9583
  143SAPE     N15611   0.290   2.644  11.109  0.3021  0.3400 -0.1371
  143SAPE   HN115612   0.326   2.721  11.049  1.5439  0.4545  0.7323
  143SAPE   HN215613   0.360   2.567  11.115  2.7984  2.6969  2.0958
  143SAPE   HN315614   0.209   2.607  11.055  0.5724 -1.2643  0.5280
  143SAPE   C1215615   0.253   2.711  11.235 -0.2426 -0.6075  0.3649
  143SAPE  H12A15616   0.342   2.736  11.296  0.9657 -2.6227 -0.5354
  143SAPE  H12B15617   0.195   2.639  11.297 -0.7471  0.0213  0.6313
  143SAPE   C1115618   0.171   2.837  11.203 -0.1010 -0.3764  0.4933
  143SAPE  H11A15619   0.228   2.915  11.149  0.2633 -0.9863 -0.0174
  143SAPE  H11B15620   0.132   2.879  11.298  1.7532  1.5668  0.4373
  143SAPE     P15621  -0.001   2.908  11.018  0.0304 -0.1646 -0.9064
  143SAPE   O1315622  -0.140   2.881  10.985  0.1642  0.2919  0.2444
  143SAPE   O1415623   0.031   3.048  11.052 -0.3010  0.2695  0.1013
  143SAPE   O1215624   0.052   2.806  11.128 -0.3900 -0.1708 -0.3816
  143SAPE   O1115625   0.097   2.873  10.896 -0.3206 -0.0752  0.4053
  143SAPE    C115626   0.052   2.809  10.775  0.4745  0.5380  0.6620
  143SAPE    HA15627   0.077   2.701  10.773  0.5406  0.5594 -2.4398
  143SAPE    HB15628  -0.059   2.799  10.773  0.6069 -0.7789 -1.2502
  143SAPE    C215629   0.095   2.874  10.641 -0.2713  0.2694  0.0453
  143SAPE    HS15630   0.190   2.931  10.656 -0.0527 -0.5647  1.8904
  143SAPE   O2115631  -0.005   2.971  10.606 -0.0281 -0.3297 -0.3606
  143SAPE   C2115632   0.038   3.072  10.521 -0.6570  0.1151  0.1548
  143SAPE   O2215633   0.151   3.109  10.497 -0.4967  0.5475  0.1200
  143SAPE   C2215634  -0.090   3.132  10.454 -0.1516 -0.0447 -0.1183
  143SAPE   H2R15635  -0.157   3.166  10.536 -0.8160  0.4919 -0.8797
  143SAPE   H2S15636  -0.055   3.226  10.407 -0.9600  1.0778  1.4715
  143SAPE    C315637   0.105   2.763  10.535 -0.4223 -0.2349 -1.1038
  143SAPE    HX15638   0.002   2.720  10.539 -0.4894  0.1183  1.2592
  143SAPE    HY15639   0.180   2.688  10.568 -0.6056  0.3219  0.5809
  143SAPE   O3115640   0.119   2.815  10.402  0.0625  0.2966  0.1683
  143SAPE   C3115641   0.239   2.846  10.367  0.6559 -0.2974  0.3222
  143SAPE   O3215642   0.342   2.814  10.426  0.5642  0.2269  0.5809
  143SAPE   C3215643   0.226   2.920  10.226 -0.2005  0.2447 -0.4343
  143SAPE   H2X15644   0.242   3.029  10.240  1.4433 -0.1930  1.3446
  143SAPE   H2Y15645   0.120   2.910  10.195 -0.8860 -1.7668  2.4092
  143SAPE   C2315646  -0.169   3.048  10.353 -0.5688  0.6132  0.1690
  143SAPE   H3R15647  -0.240   2.991  10.418  0.0280 -0.5991 -0.2150
  143SAPE   H3S15648  -0.104   2.967  10.314 -0.7218 -0.6093  2.3314
  143SAPE   C2415649  -0.233   3.129  10.239  0.1406 -0.2804 -0.0552
  143SAPE   H4R15650  -0.155   3.191  10.190 -1.1816  1.9391  0.5727
  143SAPE   H4S15651  -0.308   3.202  10.277 -2.0003 -1.9189 -1.0390
  143SAPE   C2515652  -0.295   3.026  10.150  0.0256 -0.3890 -0.0994
  143SAPE   H5R15653  -0.375   2.976  10.207  0.7848 -1.8904 -0.3264
  143SAPE   C2615654  -0.266   2.989  10.025  0.3832 -0.0235  0.3432
  143SAPE   H6R15655  -0.326   2.914   9.973 -0.4043  1.3277 -0.7213
  143SAPE   C2715656  -0.151   3.045   9.941  0.0609 -0.5813 -0.3685
  143SAPE   H7R15657  -0.080   3.103  10.004 -0.7248 -1.1268  1.0486
  143SAPE   H7S15658  -0.199   3.130   9.890 -1.3089 -0.4961  1.0328
  143SAPE   C2815659  -0.064   2.961   9.847 -0.0122 -0.6855  0.1230
  143SAPE   H8R15660  -0.011   2.871   9.883  1.0253  0.0928  0.5732
  143SAPE   C2915661  -0.036   3.002   9.724  0.0028 -0.9104  0.1313
  143SAPE   H9R15662   0.027   2.938   9.660  0.2689  2.1243 -2.7757
  143SAPE  C21015663  -0.085   3.134   9.654  0.2403 -0.2863  0.9176
  143SAPE  H10R15664   0.002   3.184   9.606 -0.7594  2.3435  1.7270
  143SAPE  H10S15665  -0.111   3.205   9.736 -1.4778 -1.2950  1.2532
  143SAPE  C21115666  -0.191   3.101   9.547 -0.5640 -0.4673  0.0126
  143SAPE  H11R15667  -0.298   3.114   9.570 -0.4725  0.8302 -0.2758
  143SAPE  C21215668  -0.169   3.069   9.421  0.6486  0.8054  0.6496
  143SAPE  H12R15669  -0.262   3.066   9.364  0.7594  0.2434  0.4914
  143SAPE  C21315670  -0.037   3.053   9.352 -0.2128  0.0781  0.1711
  143SAPE  H13R15671  -0.022   2.949   9.314 -0.2862 -0.0655  0.5301
  143SAPE  H13S15672   0.047   3.072   9.423  0.6906 -1.9467 -0.3144
  143SAPE  C21415673  -0.027   3.137   9.229 -0.0633  0.0830  0.0905
  143SAPE  H14R15674   0.042   3.222   9.234  1.9163 -1.3808 -1.3743
  143SAPE  C21515675  -0.085   3.104   9.109 -0.5422 -0.2053  0.0237
  143SAPE  H15R15676  -0.060   3.165   9.021  3.6722  0.3134  1.4498
  143SAPE  C21615677  -0.172   2.984   9.085  0.4614 -0.8003  0.2931
  143SAPE  H16R15678  -0.269   3.003   9.032 -0.4130  0.9877  2.4407
  143SAPE  H16S15679  -0.195   2.936   9.182 -0.8181  0.7928  0.8130
  143SAPE  C21715680  -0.090   2.898   8.994 -0.0123  0.2055 -0.2217
  143SAPE  H17R15681   0.004   2.863   9.042  0.2548  0.9869 -0.1802
  143SAPE  H17S15682  -0.078   2.946   8.894 -0.4657 -2.1412 -1.4676
  143SAPE  C21815683  -0.173   2.773   8.956 -0.0227  0.0134  0.0267
  143SAPE  H18R15684  -0.105   2.714   8.891  1.5923  0.0700  1.6360
  143SAPE  H18S15685  -0.256   2.798   8.886 -0.9093 -1.9731  0.3448
  143SAPE  C21915686  -0.214   2.671   9.063 -0.4493  0.3267 -0.5558
  143SAPE  H19R15687  -0.272   2.589   9.016 -1.6993  1.1178 -0.3986
  143SAPE  H19S15688  -0.287   2.725   9.127 -0.2429 -0.3351  0.2378
  143SAPE  C22015689  -0.107   2.610   9.166 -0.3557 -0.0244 -0.1802
  143SAPE  H20R15690  -0.080   2.693   9.235  1.8047  1.2161 -2.4213
  143SAPE  H20S15691  -0.013   2.575   9.117 -0.3926 -1.7582  0.9376
  143SAPE  H20T15692  -0.141   2.527   9.231  0.9275 -1.8915 -1.8197
  143SAPE   C3315693   0.327   2.848  10.132  0.5375 -0.6245 -0.2784
  143SAPE   H3X15694   0.423   2.813  10.175  0.4624  0.7032  0.9736
  143SAPE   H3Y15695   0.347   2.921  10.051 -1.3253 -0.4149 -0.5663
  143SAPE   C3415696   0.262   2.721  10.069 -0.1249 -0.4569 -0.2841
  143SAPE   H4X15697   0.153   2.741  10.066  0.6198  4.3544  0.2027
  143SAPE   H4Y15698   0.266   2.645  10.149 -1.2368  0.1185  0.3308
  143SAPE   C3515699   0.331   2.683   9.940 -0.9056 -0.3218  0.0764
  143SAPE   H5X15700   0.296   2.579   9.916 -3.6118  0.3054  1.1050
  143SAPE   H5Y15701   0.441   2.687   9.954 -0.8581  0.7492 -0.5537
  143SAPE   C3615702   0.299   2.763   9.816  0.1322 -0.1751 -0.1738
  143SAPE   H6X15703   0.340   2.866   9.812  0.2270 -0.1603  1.1300
  143SAPE   H6Y15704   0.188   2.765   9.802  0.3876 -0.9398 -2.4857
  143SAPE   C3715705   0.352   2.707   9.690 -0.5635  0.4461  0.0775
  143SAPE   H7X15706   0.300   2.608   9.687 -1.0179  0.4850  4.3307
  143SAPE   H7Y15707   0.463   2.709   9.696 -0.5351 -0.5001  0.0489
  143SAPE   C3815708   0.308   2.803   9.578 -0.5322  0.2571  0.1286
  143SAPE   H8X15709   0.369   2.895   9.585  1.0647 -0.9320  2.3371
  143SAPE   H8Y15710   0.198   2.816   9.586 -0.8094 -0.3124 -2.2026
  143SAPE   C3915711   0.338   2.739   9.438  0.4128  0.1160  0.4145
  143SAPE   H9X15712   0.290   2.639   9.442  1.7377 -0.5566  0.0623
  143SAPE   H9Y15713   0.448   2.732   9.424  0.2565 -0.4052 -0.6667
  143SAPE  C31015714   0.275   2.816   9.318 -0.1095 -0.0949 -0.5049
  143SAPE  H10X15715   0.284   2.919   9.357  2.5331 -1.2462  2.0608
  143SAPE  H10Y15716   0.166   2.794   9.323  0.3097 -1.6800  2.6163
  143SAPE  C31115717   0.344   2.817   9.182  0.3419  0.2155 -0.4932
  143SAPE  H11X15718   0.454   2.830   9.194  0.2830  1.3606 -1.1254
  143SAPE  H11Y15719   0.308   2.902   9.121  1.0266 -0.6519 -2.1343
  143SAPE  C31215720   0.311   2.699   9.086 -0.0556 -0.6663 -0.9439
  143SAPE  H12X15721   0.203   2.700   9.061 -0.3497  0.3809  0.3112
  143SAPE  H12Y15722   0.321   2.604   9.144 -1.5909  1.0886  2.3472
  143SAPE  C31315723   0.395   2.699   8.958 -0.3297 -0.0481 -0.6938
  143SAPE  H13X15724   0.496   2.666   8.991 -1.8706 -1.8321  2.4202
  143SAPE  H13Y15725   0.401   2.798   8.908 -1.0308  1.2656  1.7430
  143SAPE  C31415726   0.348   2.596   8.853 -0.4940 -0.5494 -0.2480
  143SAPE  H14X15727   0.241   2.612   8.826 -0.4397  1.9691  0.8668
  143SAPE  H14Y15728   0.356   2.490   8.885 -0.3994 -0.2464  0.7527
  143SAPE  C31515729   0.439   2.598   8.735  0.3086  0.7415  0.5817
  143SAPE  H15X15730   0.540   2.569   8.771 -0.2085 -2.5652 -0.4477
  143SAPE  H15Y15731   0.444   2.705   8.705  0.7735  0.9612  1.4352
  143SAPE  C31615732   0.414   2.495   8.616 -0.0824  0.1034 -0.6853
  143SAPE  H16X15733   0.431   2.393   8.656  0.4992  1.1746  1.9477
  143SAPE  H16Y15734   0.485   2.523   8.535 -0.3432 -0.1681 -1.0068
  143SAPE  C31715735   0.285   2.508   8.538  0.4123  0.1923 -0.7659
  143SAPE  H17X15736   0.244   2.611   8.546 -1.4312 -0.6062  0.4437
  143SAPE  H17Y15737   0.216   2.443   8.596  0.9546  2.5010  2.6712
  143SAPE  C31815738   0.298   2.474   8.394 -0.7639 -0.8319 -0.4420
  143SAPE  H18X15739   0.376   2.533   8.341 -1.0171  1.3697  1.6130
  143SAPE  H18Y15740   0.209   2.506   8.335  0.0852 -0.8744 -1.7653
  143SAPE  H18Z15741   0.314   2.366   8.370  2.1250 -0.6741  0.6045
  144SAPE     N15742   3.364   0.922  11.073  0.5324  0.3527 -0.2951
  144SAPE   HN115743   3.459   0.914  11.031  1.1283  1.3212  0.8340
  144SAPE   HN215744   3.330   1.019  11.060  1.4916  0.4190 -2.3795
  144SAPE   HN315745   3.370   0.900  11.175 -3.1928 -0.2721 -0.1455
  144SAPE   C1215746   3.275   0.819  11.003 -0.3617  0.1980 -0.6487
  144SAPE  H12A15747   3.271   0.845  10.895  1.2300  1.8201 -0.3356
  144SAPE  H12B15748   3.181   0.806  11.061  0.1596  1.0950  0.4153
  144SAPE   C1115749   3.356   0.686  11.001  0.5705 -0.0913  0.4522
  144SAPE  H11A15750   3.289   0.617  10.945  0.4151 -0.3885  1.0061
  144SAPE  H11B15751   3.367   0.645  11.104 -2.0746 -2.0040  0.0219
  144SAPE     P15752   3.529   0.609  10.824 -0.5286 -0.0692 -0.0355
  144SAPE   O1315753   3.675   0.637  10.803  0.1564 -0.2388 -0.0101
  144SAPE   O1415754   3.496   0.473  10.866 -0.3197  0.5319  0.3480
  144SAPE   O1215755   3.478   0.707  10.936  0.2907  0.1369  0.3297
  144SAPE   O1115756   3.442   0.647  10.702 -0.1922 -0.7961  0.1339
  144SAPE    C115757   3.448   0.784  10.645 -0.3217 -0.0555 -0.3260
  144SAPE    HA15758   3.431   0.866  10.718 -1.1559 -1.3791  1.0019
  144SAPE    HB15759   3.549   0.796  10.599 -0.0181  2.2380  0.8627
  144SAPE    C215760   3.337   0.805  10.538 -0.7221  0.3267  0.8469
  144SAPE    HS15761   3.237   0.803  10.587 -1.2338  2.8112 -0.0375
  144SAPE   O2115762   3.337   0.697  10.448 -0.0870 -0.0339  0.0039
  144SAPE   C2115763   3.433   0.693  10.351  0.9693 -0.7006  0.4821
  144SAPE   O2215764   3.532   0.767  10.345  0.8250 -0.1095  0.0787
  144SAPE   C2215765   3.386   0.600  10.239 -0.7644 -0.3296 -0.1159
  144SAPE   H2R15766   3.290   0.550  10.265 -0.7313 -0.3564 -0.0458
  144SAPE   H2S15767   3.368   0.674  10.158  0.6896  0.2653  0.0939
  144SAPE    C315768   3.340   0.956  10.467  0.8529  0.1957  0.3974
  144SAPE    HX15769   3.448   0.970  10.440  0.9929 -0.2323  0.7368
  144SAPE    HY15770   3.315   1.040  10.536  0.9631 -0.5114  1.3006
  144SAPE   O3115771   3.251   0.956  10.354 -0.7198 -0.0339  0.2828
  144SAPE   C3115772   3.127   0.979  10.371  0.1511 -0.1402  0.2839
  144SAPE   O3215773   3.060   0.982  10.475  0.1580 -0.5475  0.1362
  144SAPE   C3215774   3.060   1.010  10.240  0.6135 -1.0702 -0.7582
  144SAPE   H2X15775   3.105   1.101  10.196 -1.6090 -0.0933 -1.0681
  144SAPE   H2Y15776   2.952   1.022  10.264  1.1398  3.4487 -0.3771
  144SAPE   C2315777   3.489   0.494  10.200 -0.4041 -0.0807 -0.1578
  144SAPE   H3R15778   3.487   0.422  10.285 -0.3891 -0.3460 -0.3817
  144SAPE   H3S15779   3.594   0.531  10.206  0.2599 -1.8746 -0.3525
  144SAPE   C2415780   3.450   0.419  10.068 -0.5456 -0.1994  0.4898
  144SAPE   H4R15781   3.344   0.384  10.071 -1.2502  1.7227 -0.7918
  144SAPE   H4S15782   3.531   0.345  10.052 -0.1633  0.1556  0.8077
  144SAPE   C2515783   3.468   0.511   9.953 -0.5573  0.3861 -0.2956
  144SAPE   H5R15784   3.559   0.573   9.959  0.1085 -0.6045 -0.0297
  144SAPE   C2615785   3.383   0.542   9.861  0.4715 -0.3260 -0.1560
  144SAPE   H6R15786   3.411   0.618   9.787 -0.6522  1.7516  1.4497
  144SAPE   C2715787   3.238   0.489   9.846  0.3634 -0.5314  0.0594
  144SAPE   H7R15788   3.208   0.430   9.934  4.3619 -1.5502  0.8379
  144SAPE   H7S15789   3.240   0.419   9.760 -0.8964  1.7665 -1.9088
  144SAPE   C2815790   3.140   0.598   9.818  0.3425  0.4767  0.0452
  144SAPE   H8R15791   3.117   0.659   9.907  1.6639 -1.3467  1.6562
  144SAPE   C2915792   3.087   0.646   9.700  0.1113 -0.3396  0.4109
  144SAPE   H9R15793   3.015   0.729   9.694 -0.3673 -0.7127  0.9674
  144SAPE  C21015794   3.129   0.579   9.568 -0.0166  0.1431  0.0927
  144SAPE  H10R15795   3.040   0.552   9.507  0.0421  0.2755 -0.0542
  144SAPE  H10S15796   3.170   0.479   9.589  0.1829  0.1432 -0.2941
  144SAPE  C21115797   3.227   0.673   9.495 -0.0565 -0.4583 -0.2343
  144SAPE  H11R15798   3.296   0.734   9.554 -0.3384 -0.3026 -0.0617
  144SAPE  C21215799   3.257   0.678   9.362  0.5137  0.1202 -0.1171
  144SAPE  H12R15800   3.338   0.746   9.332 -0.3541  1.6184  0.8516
  144SAPE  C21315801   3.199   0.584   9.255 -0.6546  0.6019 -0.3245
  144SAPE  H13R15802   3.169   0.488   9.302 -1.1437  0.5778 -0.6812
  144SAPE  H13S15803   3.278   0.558   9.181 -0.4414  1.6233 -0.4640
  144SAPE  C21415804   3.078   0.636   9.181 -0.0080 -0.6919 -0.6900
  144SAPE  H14R15805   2.983   0.592   9.216 -1.3335  2.0764 -0.6701
  144SAPE  C21515806   3.076   0.722   9.085  0.0423  0.4608  0.4771
  144SAPE  H15R15807   2.977   0.751   9.047  0.0428  0.4050  0.4367
  144SAPE  C21615808   3.194   0.791   9.038 -0.7062  0.3744 -1.0264
  144SAPE  H16R15809   3.263   0.803   9.124  0.2732  2.0133 -2.0311
  144SAPE  H16S15810   3.174   0.889   8.989  1.1730  1.4388  0.2577
  144SAPE  C21715811   3.285   0.729   8.939 -0.0631  0.6655  0.0771
  144SAPE  H17R15812   3.337   0.643   8.988 -0.7848 -0.2540 -0.7533
  144SAPE  H17S15813   3.364   0.800   8.908 -0.8503  1.8518  0.7198
  144SAPE  C21815814   3.213   0.681   8.810  0.4720  0.4180  0.0031
  144SAPE  H18R15815   3.109   0.718   8.797  0.4818  0.4492  0.0130
  144SAPE  H18S15816   3.184   0.575   8.830  0.3824  0.2873 -0.8041
  144SAPE  C21915817   3.304   0.687   8.689  0.1661 -0.1573 -0.5108
  144SAPE  H19R15818   3.406   0.655   8.716  0.3877 -0.6514 -1.8987
  144SAPE  H19S15819   3.314   0.797   8.671 -0.3686 -0.5883 -3.7540
  144SAPE  C22015820   3.253   0.623   8.556  0.2540  0.4571  0.4016
  144SAPE  H20R15821   3.237   0.513   8.563 -0.3721  0.4621 -0.7788
  144SAPE  H20S15822   3.324   0.644   8.474  0.7665 -4.0097 -0.4282
  144SAPE  H20T15823   3.155   0.673   8.535 -0.0261  0.1518  0.9728
  144SAPE   C3315824   3.089   0.898  10.138  0.5366  0.0041 -0.3207
  144SAPE   H3X15825   3.055   0.796  10.167  0.8580 -0.5200 -1.7144
  144SAPE   H3Y15826   3.200   0.899  10.133  0.4727  0.9582 -1.8782
  144SAPE   C3415827   3.015   0.918  10.004  0.0791 -0.3094 -0.1877
  144SAPE   H4X15828   3.071   0.870   9.921  0.2514  2.8084 -1.9426
  144SAPE   H4Y15829   3.011   1.028   9.989 -0.0456 -0.6095 -2.4545
  144SAPE   C3515830   2.871   0.871  10.013 -0.3954 -0.4710  0.1631
  144SAPE   H5X15831   2.834   0.917  10.107 -2.5452  0.2966 -1.0179
  144SAPE   H5Y15832   2.875   0.761  10.029 -0.8311 -0.2239  2.1336
  144SAPE   C3615833   2.782   0.911   9.896  0.0330 -0.1357 -0.1934
  144SAPE   H6X15834   2.781   1.021   9.904  0.4331 -0.1260 -0.2886
  144SAPE   H6Y15835   2.680   0.866   9.908  0.5398 -1.2244  0.1163
  144SAPE   C3715836   2.816   0.860   9.757  0.4375 -0.0833  0.0551
  144SAPE   H7X15837   2.812   0.749   9.748 -1.4901 -0.0293  0.0253
  144SAPE   H7Y15838   2.913   0.907   9.728 -0.4057  0.3828 -2.1049
  144SAPE   C3815839   2.712   0.907   9.654 -0.3124  0.4477  0.0240
  144SAPE   H8X15840   2.714   1.018   9.648 -1.5942  0.3923 -1.6743
  144SAPE   H8Y15841   2.609   0.883   9.688  0.2687  0.8863  2.2186
  144SAPE   C3915842   2.741   0.859   9.508 -0.2216  0.1172  0.1887
  144SAPE   H9X15843   2.726   0.749   9.511  1.6849 -0.1430  1.1359
  144SAPE   H9Y15844   2.850   0.866   9.489 -0.2466 -2.1934 -0.9707
  144SAPE  C31015845   2.669   0.934   9.395 -0.2887 -0.1573 -0.1139
  144SAPE  H10X15846   2.670   1.045   9.407 -0.2013 -0.2395  0.6240
  144SAPE  H10Y15847   2.560   0.915   9.393 -0.4950  0.8058  1.4811
  144SAPE  C31115848   2.733   0.905   9.260  0.6401  0.9591  0.2140
  144SAPE  H11X15849   2.734   0.796   9.241 -0.0146  0.9467  0.2435
  144SAPE  H11Y15850   2.838   0.941   9.255  0.9272 -0.1784 -2.7539
  144SAPE  C31215851   2.660   0.970   9.141  0.5760 -0.2890  0.6750
  144SAPE  H12X15852   2.664   1.074   9.182  2.2896 -0.2354  0.4068
  144SAPE  H12Y15853   2.557   0.929   9.141  0.8660 -1.1762 -4.0105
  144SAPE  C31315854   2.725   0.951   9.005  0.0448  0.5605  0.5408
  144SAPE  H13X15855   2.644   0.975   8.933 -0.6685 -2.4251  0.2593
  144SAPE  H13Y15856   2.762   0.850   8.976  0.5220  0.5178  1.2947
  144SAPE  C31415857   2.836   1.052   8.970  0.0024  0.4471 -0.3284
  144SAPE  H14X15858   2.913   1.047   9.050  0.8602 -2.3646 -1.2694
  144SAPE  H14Y15859   2.801   1.157   8.975  0.8401  0.6367  2.2558
  144SAPE  C31515860   2.908   1.025   8.837  0.4134  1.0166  0.1504
  144SAPE  H15X15861   2.834   0.995   8.761  1.1425  0.0635 -0.1984
  144SAPE  H15Y15862   2.978   0.940   8.855 -1.2920 -0.3017  0.6173
  144SAPE  C31615863   2.982   1.150   8.799 -0.6640  0.0729 -0.3068
  144SAPE  H16X15864   3.069   1.157   8.867 -0.8108 -0.2899 -0.0842
  144SAPE  H16Y15865   2.933   1.249   8.792  1.3069  1.2626  1.9093
  144SAPE  C31715866   3.035   1.120   8.658 -0.4572 -0.0469  0.4474
  144SAPE  H17X15867   3.052   1.214   8.599  0.9373 -1.3463 -1.3073
  144SAPE  H17Y15868   2.958   1.063   8.603  0.5215 -0.0358 -0.9784
  144SAPE  C31815869   3.164   1.044   8.649  0.7402  0.5844  0.0743
  144SAPE  H18X15870   3.178   1.004   8.546 -1.1672  1.1504 -0.4206
  144SAPE  H18Y15871   3.170   0.952   8.711  2.2929  1.0839  0.6852
  144SAPE  H18Z15872   3.248   1.112   8.674  1.6158  0.6889 -2.9836
  145SAPE     N15873   6.698   1.946  11.483 -0.5253  0.2363 -0.5064
  145SAPE   HN115874   6.608   1.948  11.535  1.1526  1.0838  2.4520
  145SAPE   HN215875   6.699   1.856  11.430 -0.8415  0.1831 -0.4230
  145SAPE   HN315876   6.774   1.947  11.553  0.6822  0.8569 -1.7997
  145SAPE   C1215877   6.716   2.056  11.390  1.1063 -0.1846  0.4767
  145SAPE  H12A15878   6.715   2.153  11.444  1.6803  0.1207 -0.0605
  145SAPE  H12B15879   6.622   2.059  11.332  0.0609 -2.4585  1.9529
  145SAPE   C1115880   6.844   2.039  11.304 -0.0973 -0.4220 -0.0600
  145SAPE  H11A15881   6.844   2.124  11.233  1.2799  1.4422  2.1079
  145SAPE  H11B15882   6.823   1.950  11.239  1.4456 -0.5842 -0.3409
  145SAPE     P15883   7.075   2.133  11.380  0.0254  0.2104  0.5976
  145SAPE   O1315884   7.035   2.273  11.404 -0.8729 -1.1171 -0.6562
  145SAPE   O1415885   7.195   2.084  11.466  0.3875 -0.5035  0.5804
  145SAPE   O1215886   6.958   2.026  11.385  0.5824  0.6207  0.1493
  145SAPE   O1115887   7.126   2.122  11.226 -0.2320  0.0808 -1.5322
  145SAPE    C115888   7.147   1.995  11.170  0.1604 -0.3313  0.1467
  145SAPE    HA15889   7.244   1.950  11.199 -1.2480 -3.0456  0.8321
  145SAPE    HB15890   7.064   1.926  11.197  0.6034 -1.1178 -0.5024
  145SAPE    C215891   7.137   2.001  11.022 -0.3952 -0.3075  0.6120
  145SAPE    HS15892   7.216   2.068  10.981 -0.4841 -0.8907 -0.5521
  145SAPE   O2115893   7.006   2.046  10.983 -0.2761 -0.1238  0.0987
  145SAPE   C2115894   6.990   2.159  10.929  0.5039 -0.0639  0.7745
  145SAPE   O2215895   7.076   2.241  10.899  0.2332 -0.2236 -0.1622
  145SAPE   C2215896   6.850   2.163  10.869  0.3312 -0.4498  0.4171
  145SAPE   H2R15897   6.806   2.061  10.872  2.8187 -1.5026  1.8054
  145SAPE   H2S15898   6.776   2.217  10.932  0.0411  0.5385 -0.7413
  145SAPE    C315899   7.172   1.867  10.955  0.2251 -0.0546 -0.9491
  145SAPE    HX15900   7.091   1.797  10.983  0.3926  0.3723  0.6187
  145SAPE    HY15901   7.265   1.826  11.000  0.1792 -1.3208 -1.9749
  145SAPE   O3115902   7.170   1.883  10.810  0.3987  0.4347 -0.1443
  145SAPE   C3115903   7.055   1.864  10.747 -0.1127 -0.6966  0.5790
  145SAPE   O3215904   6.955   1.816  10.795  0.2253 -0.0323  0.5044
  145SAPE   C3215905   7.082   1.866  10.596  0.0348  0.1140 -0.5749
  145SAPE   H2X15906   7.159   1.785  10.594  0.4342  0.4613  0.2954
  145SAPE   H2Y15907   7.118   1.966  10.562  1.0255 -0.0973 -0.1597
  145SAPE   C2315908   6.838   2.213  10.725  0.1352  0.1214  0.1445
  145SAPE   H3R15909   6.900   2.166  10.645 -0.6406  0.2410 -0.5400
  145SAPE   H3S15910   6.876   2.315  10.749 -2.6723  0.4944  3.2109
  145SAPE   C2415911   6.692   2.209  10.674 -0.5169  0.0155  0.5126
  145SAPE   H4R15912   6.620   2.190  10.755 -0.4882 -0.1183  0.5064
  145SAPE   H4S15913   6.684   2.126  10.601 -2.5249  1.4427 -0.9555
  145SAPE   C2515914   6.637   2.323  10.601  0.4209  0.3988 -0.2338
  145SAPE   H5R15915   6.580   2.398  10.657 -1.5394 -0.7068 -0.6760
  145SAPE   C2615916   6.636   2.339  10.467 -0.1744 -0.2244  0.4360
  145SAPE   H6R15917   6.589   2.429  10.426 -1.1395 -1.0023 -0.1728
  145SAPE   C2715918   6.702   2.243  10.365  0.8383 -0.1208 -0.4425
  145SAPE   H7R15919   6.795   2.197  10.405  0.1320 -0.6200  0.6557
  145SAPE   H7S15920   6.746   2.298  10.279  1.7021  0.9219  0.6268
  145SAPE   C2815921   6.611   2.135  10.316 -0.0223 -0.0628  0.0791
  145SAPE   H8R15922   6.561   2.087  10.401  1.7736  1.0421  1.8088
  145SAPE   C2915923   6.585   2.100  10.189  0.1307  0.4275 -0.0274
  145SAPE   H9R15924   6.495   2.037  10.179 -1.2584  2.4076 -0.3491
  145SAPE  C21015925   6.644   2.151  10.058 -0.3150 -0.1957  0.3249
  145SAPE  H10R15926   6.732   2.088  10.031  0.2472  0.1014  1.4322
  145SAPE  H10S15927   6.691   2.249  10.080  0.1848  0.0871 -1.9152
  145SAPE  C21115928   6.534   2.160   9.957 -0.1026 -0.5396 -0.1706
  145SAPE  H11R15929   6.440   2.211   9.985  0.0688 -0.2184 -0.1823
  145SAPE  C21215930   6.524   2.110   9.834 -0.2266  0.1939  0.4298
  145SAPE  H12R15931   6.426   2.104   9.783 -0.2734  1.1210  0.3848
  145SAPE  C21315932   6.628   2.031   9.759  0.3813  0.9255 -1.0403
  145SAPE  H13R15933   6.662   1.950   9.827 -0.6272  0.7378 -0.7547
  145SAPE  H13S15934   6.711   2.104   9.745  0.6895  0.9957  0.9768
  145SAPE  C21415935   6.587   1.982   9.622 -0.0682  0.1261 -0.0710
  145SAPE  H14R15936   6.583   1.872   9.619 -3.0567  0.2116 -1.0048
  145SAPE  C21515937   6.578   2.051   9.507 -0.6349  0.4306  0.6238
  145SAPE  H15R15938   6.521   2.002   9.427 -0.9934 -0.5253  1.4618
  145SAPE  C21615939   6.605   2.198   9.481 -0.4524  0.3611 -0.8214
  145SAPE  H16R15940   6.703   2.234   9.519  0.7237 -2.5307 -0.9924
  145SAPE  H16S15941   6.527   2.261   9.528 -0.7361 -1.3057  1.0176
  145SAPE  C21715942   6.614   2.237   9.334  0.0771  0.2842  0.4396
  145SAPE  H17R15943   6.691   2.176   9.282 -0.1732  2.2638 -2.3911
  145SAPE  H17S15944   6.631   2.347   9.327  2.1246 -0.1212 -1.6820
  145SAPE  C21815945   6.492   2.210   9.246 -0.5391  0.5065 -0.6486
  145SAPE  H18R15946   6.403   2.262   9.287 -0.4453 -1.0246  1.6132
  145SAPE  H18S15947   6.478   2.100   9.249 -0.6935  0.5382 -0.2317
  145SAPE  C21915948   6.512   2.258   9.096 -0.4144  0.3030 -1.0154
  145SAPE  H19R15949   6.584   2.200   9.033 -1.0534 -1.9191  0.2521
  145SAPE  H19S15950   6.540   2.365   9.109 -0.5844  0.3744 -1.2290
  145SAPE  C22015951   6.383   2.257   9.012 -0.3017  0.6513  0.2754
  145SAPE  H20R15952   6.393   2.314   8.917  1.2923 -1.1401 -0.6825
  145SAPE  H20S15953   6.298   2.301   9.068  0.5400  0.0657  2.0855
  145SAPE  H20T15954   6.351   2.152   8.992  2.0829 -0.1060  0.2084
  145SAPE   C3315955   6.962   1.819  10.507 -0.2257  0.3662 -0.4068
  145SAPE   H3X15956   6.875   1.884  10.533 -0.6545 -0.2033 -0.4107
  145SAPE   H3Y15957   6.932   1.714  10.530  0.0785  0.5230  0.7091
  145SAPE   C3415958   6.991   1.818  10.355 -0.1035 -0.2812 -0.5800
  145SAPE   H4X15959   7.070   1.743  10.335 -0.3866 -0.8017  0.1934
  145SAPE   H4Y15960   7.022   1.921  10.329  0.0120 -0.0038  0.5996
  145SAPE   C3515961   6.872   1.777  10.274  0.6710 -0.3867 -0.3265
  145SAPE   H5X15962   6.784   1.839  10.300  2.2126  1.4936  0.5997
  145SAPE   H5Y15963   6.838   1.673  10.297 -0.3367 -0.1325 -0.6521
  145SAPE   C3615964   6.890   1.781  10.122 -0.4362  0.7804 -0.4179
  145SAPE   H6X15965   6.920   1.881  10.085 -1.5427  0.7117 -1.5218
  145SAPE   H6Y15966   6.788   1.753  10.088 -0.7250 -0.9476  1.7592
  145SAPE   C3715967   6.977   1.684  10.059  0.1434 -0.3428 -0.3304
  145SAPE   H7X15968   6.958   1.582  10.100  2.5102 -0.5133  0.4147
  145SAPE   H7Y15969   7.082   1.719  10.072  0.3083 -0.3527 -1.6156
  145SAPE   C3815970   6.945   1.673   9.909  0.0541 -0.4621 -0.0233
  145SAPE   H8X15971   6.840   1.640   9.897  0.3551 -2.2610  1.9498
  145SAPE   H8Y15972   7.011   1.599   9.859  1.8135 -2.1956  4.5694
  145SAPE   C3915973   6.974   1.802   9.833  0.6594 -0.0051  0.2978
  145SAPE   H9X15974   7.071   1.841   9.869  1.1259 -1.0039  0.1453
  145SAPE   H9Y15975   6.890   1.870   9.859  0.6487 -0.4378  1.4208
  145SAPE  C31015976   6.976   1.789   9.684  0.7306  0.6415 -0.7089
  145SAPE  H10X15977   7.063   1.723   9.663  2.4990  1.4105  3.5634
  145SAPE  H10Y15978   6.982   1.889   9.637  1.7588  1.0174  0.2006
  145SAPE  C31115979   6.861   1.711   9.628 -0.1528  0.4477  0.1261
  145SAPE  H11X15980   6.762   1.761   9.639 -1.7425 -2.1438 -1.6326
  145SAPE  H11Y15981   6.854   1.609   9.672 -0.6213  1.5359  2.6278
  145SAPE  C31215982   6.877   1.711   9.476  0.5363 -0.1229  0.1709
  145SAPE  H12X15983   6.962   1.646   9.449  0.2932 -0.7949  1.0061
  145SAPE  H12Y15984   6.909   1.812   9.442  0.5154 -0.3897 -0.6667
  145SAPE  C31315985   6.746   1.678   9.405 -0.5722 -0.1866 -1.0399
  145SAPE  H13X15986   6.691   1.773   9.390 -0.2291 -0.2063 -2.5228
  145SAPE  H13Y15987   6.677   1.625   9.473  0.2034  0.8911  0.6112
  145SAPE  C31415988   6.757   1.602   9.274  0.3986  0.0421  0.0735
  145SAPE  H14X15989   6.821   1.513   9.295 -0.9171 -0.3660  2.5687
  145SAPE  H14Y15990   6.791   1.668   9.192 -0.1880  0.7655  0.4073
  145SAPE  C31515991   6.623   1.533   9.229 -0.0467 -0.6595  0.2109
  145SAPE  H15X15992   6.548   1.601   9.184  0.3037 -1.0954 -1.0574
  145SAPE  H15Y15993   6.571   1.497   9.320  0.9834 -0.6910  0.7934
  145SAPE  C31615994   6.649   1.429   9.124 -0.1840  0.1230  0.3758
  145SAPE  H16X15995   6.678   1.479   9.029  0.7300 -2.2840 -0.6728
  145SAPE  H16Y15996   6.553   1.377   9.104  0.7704 -1.4224 -0.3216
  145SAPE  C31715997   6.755   1.309   9.135 -0.8844 -0.4515  0.2549
  145SAPE  H17X15998   6.751   1.270   9.239  1.6810  0.5698  0.7906
  145SAPE  H17Y15999   6.859   1.348   9.124 -0.9998 -0.3887 -0.6776
  145SAPE  C31816000   6.735   1.201   9.032  0.1389 -0.8626  0.7916
  145SAPE  H18X16001   6.831   1.160   8.992 -1.3414 -2.5254 -1.2061
  145SAPE  H18Y16002   6.686   1.244   8.942  1.0195  0.0902  0.7552
  145SAPE  H18Z16003   6.674   1.114   9.063  0.4740 -1.6155 -0.6180
  146SAPE     N16004   4.410   1.323  11.173  0.4686 -0.1284 -0.4778
  146SAPE   HN116005   4.401   1.273  11.264 -1.6124  0.7166 -0.1818
  146SAPE   HN216006   4.325   1.382  11.161  1.1662  1.1734  0.8334
  146SAPE   HN316007   4.409   1.243  11.106  4.5827  0.3249 -1.2015
  146SAPE   C1216008   4.530   1.405  11.163  0.1271  0.0155  0.4544
  146SAPE  H12A16009   4.615   1.339  11.191  0.0921 -0.6772 -1.0130
  146SAPE  H12B16010   4.515   1.494  11.227  0.8913  1.3385 -1.1684
  146SAPE   C1116011   4.547   1.447  11.020  0.6272 -0.1716  0.1197
  146SAPE  H11A16012   4.608   1.540  11.013  0.5810 -0.0575  1.1468
  146SAPE  H11B16013   4.447   1.485  10.989  1.1397  0.7106 -0.4877
  146SAPE     P16014   4.627   1.371  10.784  0.3143 -0.2362 -0.0590
  146SAPE   O1316015   4.769   1.415  10.796  0.2088  0.7819  0.3193
  146SAPE   O1416016   4.595   1.246  10.712  0.3147  0.1416  0.4022
  146SAPE   O1216017   4.577   1.350  10.928 -0.0308 -0.1644 -0.5543
  146SAPE   O1116018   4.546   1.497  10.734  0.3729 -0.5785  0.4408
  146SAPE    C116019   4.404   1.483  10.693 -0.2447 -0.4344  0.6754
  146SAPE    HA16020   4.349   1.423  10.769 -1.3141 -0.2729  0.0278
  146SAPE    HB16021   4.355   1.582  10.687 -0.0890 -0.4088 -0.1587
  146SAPE    C216022   4.400   1.416  10.550 -0.1257 -0.4667  0.3793
  146SAPE    HS16023   4.439   1.312  10.553  2.0257  0.2714 -0.8752
  146SAPE   O2116024   4.481   1.486  10.453 -0.1891  0.1169 -0.1229
  146SAPE   C2116025   4.545   1.417  10.360 -0.2000  0.5756  0.1636
  146SAPE   O2216026   4.552   1.295  10.345  0.3254 -0.2436 -0.1448
  146SAPE   C2216027   4.633   1.510  10.281  0.0527 -0.6138  0.5123
  146SAPE   H2R16028   4.586   1.516  10.180  1.1941 -1.6417 -0.0956
  146SAPE   H2S16029   4.630   1.616  10.313 -4.3056  0.9495 -4.3831
  146SAPE    C316030   4.248   1.420  10.499  0.7333  0.2088 -0.0488
  146SAPE    HX16031   4.215   1.525  10.482 -0.5514 -0.3599 -1.1397
  146SAPE    HY16032   4.205   1.380  10.593 -0.4351 -0.0868 -0.7104
  146SAPE   O3116033   4.216   1.350  10.378  0.0476  0.1460  0.1983
  146SAPE   C3116034   4.230   1.216  10.377  0.5889  0.0236  0.6068
  146SAPE   O3216035   4.259   1.151  10.470 -0.4043  0.6133  0.4735
  146SAPE   C3216036   4.173   1.173  10.244 -0.4563  0.2570 -0.4664
  146SAPE   H2X16037   4.197   1.251  10.168 -0.6276 -0.1228 -0.9099
  146SAPE   H2Y16038   4.065   1.161  10.264 -0.7968  2.9055 -0.5308
  146SAPE   C2316039   4.781   1.465  10.270 -0.5704 -0.0661 -0.2256
  146SAPE   H3R16040   4.782   1.356  10.247 -0.1814 -0.5956  2.1045
  146SAPE   H3S16041   4.843   1.483  10.361 -1.3289  1.5892 -0.0219
  146SAPE   C2416042   4.845   1.546  10.160 -0.6235  0.0382 -0.1040
  146SAPE   H4R16043   4.770   1.546  10.078 -3.0565 -1.8416  2.0270
  146SAPE   H4S16044   4.939   1.500  10.122 -1.2520 -1.7909  0.5037
  146SAPE   C2516045   4.878   1.684  10.210 -0.5569  0.8043 -0.3264
  146SAPE   H5R16046   4.939   1.696  10.301  0.4165 -2.1740 -0.5306
  146SAPE   C2616047   4.821   1.790  10.159 -0.4189 -0.0452 -0.2277
  146SAPE   H6R16048   4.831   1.890  10.204 -1.6622 -0.3244  0.6904
  146SAPE   C2716049   4.716   1.793  10.054  0.1837  0.2697  0.6039
  146SAPE   H7R16050   4.642   1.711  10.069  0.7143 -0.0507  1.5382
  146SAPE   H7S16051   4.765   1.781   9.955 -1.2264  0.4777 -0.1339
  146SAPE   C2816052   4.647   1.929  10.043  0.3770 -0.3310  0.2537
  146SAPE   H8R16053   4.622   1.969  10.142 -1.5787  1.9140 -1.1097
  146SAPE   C2916054   4.604   1.994   9.934 -0.8788 -0.0416 -0.3836
  146SAPE   H9R16055   4.579   2.101   9.930  0.3416  0.2282 -0.8460
  146SAPE  C21016056   4.623   1.943   9.789  0.5139 -0.1437 -0.8683
  146SAPE  H10R16057   4.542   1.997   9.734  1.5438  1.0047 -1.2819
  146SAPE  H10S16058   4.599   1.835   9.788 -0.1079 -0.0067 -2.4232
  146SAPE  C21116059   4.766   1.964   9.735 -0.4505  1.3938  0.5320
  146SAPE  H11R16060   4.844   1.926   9.803 -0.1923 -2.5876 -1.8157
  146SAPE  C21216061   4.800   2.000   9.608  0.6125 -0.4278  0.8649
  146SAPE  H12R16062   4.907   2.006   9.582  0.8839  1.1171  2.2293
  146SAPE  C21316063   4.696   2.031   9.498  0.0677  0.4019 -0.1991
  146SAPE  H13R16064   4.725   2.124   9.445  0.5001  0.8356  0.7906
  146SAPE  H13S16065   4.594   2.044   9.541  0.8876 -1.4905  2.4825
  146SAPE  C21416066   4.697   1.911   9.399  0.1299  0.3244 -0.0861
  146SAPE  H14R16067   4.651   1.820   9.442  0.1421  1.5308  2.5296
  146SAPE  C21516068   4.755   1.896   9.278  0.6724 -0.4748  0.1338
  146SAPE  H15R16069   4.740   1.808   9.214 -0.0435  1.7849 -2.9186
  146SAPE  C21616070   4.827   2.006   9.197  0.0830  0.5129  0.3005
  146SAPE  H16R16071   4.917   1.962   9.148  0.2152 -0.5320  1.4646
  146SAPE  H16S16072   4.860   2.096   9.252  0.8958  0.2622  0.2203
  146SAPE  C21716073   4.723   2.050   9.079 -0.2552 -0.4928 -1.5784
  146SAPE  H17R16074   4.767   2.139   9.030  1.1030  0.8243  1.8407
  146SAPE  H17S16075   4.630   2.084   9.130  0.9082  1.3219 -0.6336
  146SAPE  C21816076   4.686   1.946   8.974  0.2027  0.1962  0.6906
  146SAPE  H18R16077   4.629   1.861   9.017 -0.9527  1.5898  1.9446
  146SAPE  H18S16078   4.777   1.901   8.929 -0.2355  0.2572 -0.2737
  146SAPE  C21916079   4.600   2.006   8.859  0.1352  0.4091 -1.0913
  146SAPE  H19R16080   4.640   2.108   8.842  0.6311  0.7130  1.6412
  146SAPE  H19S16081   4.493   2.015   8.887  0.3756 -0.0050  0.0077
  146SAPE  C22016082   4.617   1.946   8.715 -0.2526  0.7077  0.8327
  146SAPE  H20R16083   4.725   1.937   8.690 -0.5347 -0.2443 -0.0606
  146SAPE  H20S16084   4.565   2.008   8.639  1.2618 -1.9678 -2.5200
  146SAPE  H20T16085   4.572   1.844   8.714 -3.2269  1.9919 -1.7133
  146SAPE   C3316086   4.224   1.038  10.198  0.7810 -0.0949 -0.7765
  146SAPE   H3X16087   4.174   0.960  10.261 -1.1520 -1.0882 -3.4218
  146SAPE   H3Y16088   4.333   1.026  10.212  0.3043 -3.4210  0.7560
  146SAPE   C3416089   4.176   1.009  10.053 -0.0736  0.0942 -0.3950
  146SAPE   H4X16090   4.065   1.002  10.059  0.0125 -0.9846  0.0869
  146SAPE   H4Y16091   4.204   0.905  10.027  0.9231  0.5969 -1.3763
  146SAPE   C3516092   4.231   1.098   9.939 -0.2306  0.2672  0.2989
  146SAPE   H5X16093   4.341   1.101   9.957 -0.4113  1.9820  1.2785
  146SAPE   H5Y16094   4.200   1.205   9.949  0.2895  0.6508 -1.8514
  146SAPE   C3616095   4.175   1.047   9.805 -0.0235 -0.6171  0.9919
  146SAPE   H6X16096   4.070   1.080   9.791 -0.1458 -0.4884  2.1760
  146SAPE   H6Y16097   4.182   0.936   9.802 -1.4232 -0.7047  0.6969
  146SAPE   C3716098   4.254   1.086   9.687  0.3473 -0.4917  0.5810
  146SAPE   H7X16099   4.360   1.054   9.697  0.2930 -0.4316  1.4035
  146SAPE   H7Y16100   4.255   1.195   9.662  0.6208 -0.4685  0.6844
  146SAPE   C3816101   4.191   1.021   9.559  0.1648 -0.2983 -0.8617
  146SAPE   H8X16102   4.083   1.047   9.556  0.1233 -0.5842 -1.6338
  146SAPE   H8Y16103   4.185   0.911   9.563 -2.0855 -0.1477  2.0671
  146SAPE   C3916104   4.255   1.066   9.431  0.3924  0.0445  0.2317
  146SAPE   H9X16105   4.357   1.023   9.433 -0.4799 -2.0240  3.1059
  146SAPE   H9Y16106   4.263   1.176   9.422  1.4700 -0.1189 -0.8918
  146SAPE  C31016107   4.176   1.013   9.312 -0.1565 -0.2379 -0.8002
  146SAPE  H10X16108   4.073   1.050   9.328 -1.1916 -3.1018 -0.6063
  146SAPE  H10Y16109   4.166   0.903   9.314 -0.8446 -0.1970 -1.6985
  146SAPE  C31116110   4.237   1.053   9.179  0.6600 -0.7303 -0.4215
  146SAPE  H11X16111   4.325   0.985   9.178  1.3348  0.1331 -0.2464
  146SAPE  H11Y16112   4.274   1.157   9.177 -1.0029 -0.1415 -1.0885
  146SAPE  C31216113   4.146   1.036   9.058 -0.2590 -0.1147  0.5450
  146SAPE  H12X16114   4.085   1.128   9.051 -2.1846 -1.4789 -1.5967
  146SAPE  H12Y16115   4.086   0.946   9.085 -0.0919 -0.1360  0.8468
  146SAPE  C31316116   4.233   1.014   8.928 -0.2432 -0.3159  0.6763
  146SAPE  H13X16117   4.201   0.916   8.888 -0.4977 -0.1764  0.5399
  146SAPE  H13Y16118   4.337   0.990   8.958 -0.4387 -1.7698  0.2322
  146SAPE  C31416119   4.226   1.125   8.818 -0.0350 -0.4919  0.9161
  146SAPE  H14X16120   4.294   1.202   8.862 -0.1694  0.7634 -0.9967
  146SAPE  H14Y16121   4.121   1.161   8.817  0.6148  1.4725 -1.4155
  146SAPE  C31516122   4.272   1.079   8.685 -0.9889  0.8109  0.1594
  146SAPE  H15X16123   4.198   1.000   8.663  0.1270 -0.1043 -0.3549
  146SAPE  H15Y16124   4.371   1.029   8.689 -2.3308 -1.9719 -0.5616
  146SAPE  C31616125   4.281   1.197   8.586 -0.1388  0.1811  0.4203
  146SAPE  H16X16126   4.373   1.256   8.609 -0.5887  1.0717 -0.0548
  146SAPE  H16Y16127   4.200   1.266   8.616  0.9041  0.8144  1.8803
  146SAPE  C31716128   4.284   1.146   8.439  0.2824 -0.1076 -0.3259
  146SAPE  H17X16129   4.215   1.062   8.415  0.0227 -0.5132  1.7882
  146SAPE  H17Y16130   4.383   1.102   8.417  0.6657 -0.9387  2.9024
  146SAPE  C31816131   4.280   1.265   8.343  0.1782  0.7577  0.0653
  146SAPE  H18X16132   4.176   1.302   8.332  0.6664  1.7171 -1.4710
  146SAPE  H18Y16133   4.316   1.235   8.243  0.9665  1.0708  0.2523
  146SAPE  H18Z16134   4.355   1.338   8.381  2.8954 -3.0766  2.4418
  147SAPE     N16135   1.544   5.522   6.451 -0.3029 -0.0876 -0.8431
  147SAPE   HN116136   1.521   5.428   6.490  0.7101 -0.1736 -0.4420
  147SAPE   HN216137   1.480   5.525   6.368 -1.6354 -0.5281  0.1559
  147SAPE   HN316138   1.639   5.510   6.410 -0.4008 -1.4069 -0.6967
  147SAPE   C1216139   1.516   5.650   6.516 -0.3762  0.6421 -0.4528
  147SAPE  H12A16140   1.607   5.675   6.574  0.3547  2.3123 -2.2415
  147SAPE  H12B16141   1.424   5.634   6.577  0.2536 -0.4762  0.2150
  147SAPE   C1116142   1.501   5.758   6.408 -0.7723  0.4979 -0.5581
  147SAPE  H11A16143   1.592   5.764   6.344 -0.8208 -1.7904 -0.9131
  147SAPE  H11B16144   1.480   5.861   6.443  1.4235  1.1931 -1.2120
  147SAPE     P16145   1.234   5.726   6.351  0.2732  0.1069 -0.1892
  147SAPE   O1316146   1.162   5.789   6.242 -0.2025  0.5113 -0.0899
  147SAPE   O1416147   1.206   5.581   6.376  0.5423  0.4782 -0.1070
  147SAPE   O1216148   1.390   5.732   6.319  0.2002 -0.4489  0.2600
  147SAPE   O1116149   1.207   5.813   6.474  0.1951 -0.5787 -0.3711
  147SAPE    C116150   1.138   5.771   6.593 -0.1740  0.1920  0.0863
  147SAPE    HA16151   1.032   5.754   6.564  0.3413 -0.9715 -1.1948
  147SAPE    HB16152   1.175   5.675   6.634  0.3000 -0.0312 -0.8294
  147SAPE    C216153   1.140   5.872   6.703  0.2049  0.0087 -0.2993
  147SAPE    HS16154   1.099   5.973   6.681  0.0717  0.1631  0.6691
  147SAPE   O2116155   1.282   5.879   6.730 -0.1589 -0.5101 -0.4021
  147SAPE   C2116156   1.323   5.996   6.777  0.6712  0.3453 -0.0073
  147SAPE   O2216157   1.259   6.096   6.775  0.6395 -0.1595  0.1279
  147SAPE   C2216158   1.471   5.993   6.810 -0.2706 -0.1233 -0.1698
  147SAPE   H2R16159   1.516   6.051   6.726  1.0152  3.0318  2.6093
  147SAPE   H2S16160   1.482   6.068   6.891 -1.2041 -0.7565  0.5423
  147SAPE    C316161   1.068   5.810   6.826  0.2702 -0.3098 -0.3440
  147SAPE    HX16162   1.130   5.723   6.856 -0.5646 -1.8685 -2.9781
  147SAPE    HY16163   0.964   5.786   6.796  0.0594 -0.5772  0.5584
  147SAPE   O3116164   1.062   5.895   6.945  0.2895  0.3535 -0.1547
  147SAPE   C3116165   0.975   5.995   6.945 -0.2548 -0.4378 -0.2439
  147SAPE   O3216166   0.894   6.021   6.861  0.4811 -0.1786  0.1581
  147SAPE   C3216167   0.994   6.074   7.072 -0.0972  0.3471  0.5569
  147SAPE   H2X16168   1.102   6.070   7.098  0.0685  1.1203  0.0060
  147SAPE   H2Y16169   0.937   6.015   7.147  2.4404 -1.3543  1.2309
  147SAPE   C2316170   1.532   5.853   6.833 -1.0454 -0.7243  0.3430
  147SAPE   H3R16171   1.636   5.863   6.795 -1.2436  0.4262  0.0878
  147SAPE   H3S16172   1.490   5.778   6.764 -0.4223 -1.2097  0.4930
  147SAPE   C2416173   1.542   5.814   6.981 -0.1716 -0.2871 -0.3839
  147SAPE   H4R16174   1.620   5.883   7.020  0.3575 -1.3899  0.5046
  147SAPE   H4S16175   1.567   5.707   6.970 -0.1597 -0.0839 -2.5947
  147SAPE   C2516176   1.414   5.827   7.055 -0.3864 -0.6804 -0.7069
  147SAPE   H5R16177   1.330   5.767   7.015 -1.0128 -0.3194  0.0687
  147SAPE   C2616178   1.388   5.906   7.160  0.8248  0.6944  0.3490
  147SAPE   H6R16179   1.289   5.892   7.206 -0.3635  0.8333 -2.1064
  147SAPE   C2716180   1.490   5.996   7.226  0.5271 -0.7337 -0.2430
  147SAPE   H7R16181   1.435   6.064   7.294  2.5665  0.6070  0.1307
  147SAPE   H7S16182   1.525   6.077   7.157 -2.0715  0.3574 -0.3373
  147SAPE   C2816183   1.617   5.933   7.284  0.2078  0.0795  0.2107
  147SAPE   H8R16184   1.635   5.828   7.257  1.0448  0.0946  0.7067
  147SAPE   C2916185   1.709   5.999   7.358 -0.5780 -0.1308  0.3987
  147SAPE   H9R16186   1.789   5.935   7.397 -0.0257 -0.5796 -1.4497
  147SAPE  C21016187   1.710   6.145   7.394  0.0843  0.6495  0.2206
  147SAPE  H10R16188   1.721   6.139   7.505 -1.0882 -0.7407  0.2754
  147SAPE  H10S16189   1.610   6.190   7.374  0.0105  2.0304  3.3614
  147SAPE  C21116190   1.819   6.233   7.331  0.5697 -0.3141 -0.1881
  147SAPE  H11R16191   1.882   6.196   7.249  0.9355 -2.0239  0.8431
  147SAPE  C21216192   1.848   6.359   7.367 -0.7449  0.3169  0.2444
  147SAPE  H12R16193   1.938   6.410   7.328 -0.7560 -0.1163 -0.3551
  147SAPE  C21316194   1.786   6.445   7.469 -0.1307  0.2689  0.3685
  147SAPE  H13R16195   1.682   6.415   7.493 -0.4974  3.9573  4.0284
  147SAPE  H13S16196   1.775   6.549   7.430 -1.0257  0.4468  1.0660
  147SAPE  C21416197   1.856   6.453   7.604 -0.6025 -1.1661 -0.3345
  147SAPE  H14R16198   1.963   6.479   7.598 -0.3368 -1.2714  2.9853
  147SAPE  C21516199   1.803   6.454   7.725 -0.7517 -0.8375 -0.6192
  147SAPE  H15R16200   1.869   6.456   7.813 -0.1995  0.9862 -1.0632
  147SAPE  C21616201   1.661   6.427   7.744  0.1100  0.0437 -0.4165
  147SAPE  H16R16202   1.629   6.322   7.725 -0.4315  0.0739  0.2981
  147SAPE  H16S16203   1.597   6.481   7.672 -1.4101  0.0774  0.9321
  147SAPE  C21716204   1.605   6.452   7.885  0.0783  1.0982 -0.3456
  147SAPE  H17R16205   1.494   6.446   7.889  0.1592  0.8540  2.5397
  147SAPE  H17S16206   1.608   6.558   7.920 -0.8254  0.9656  0.1476
  147SAPE  C21816207   1.672   6.376   8.004 -0.1172  0.3233  0.1202
  147SAPE  H18R16208   1.780   6.399   8.014  0.1326 -1.0730  0.7730
  147SAPE  H18S16209   1.664   6.270   7.972 -1.0160  0.1554  0.8844
  147SAPE  C21916210   1.611   6.396   8.143  0.6498 -0.4074  0.0918
  147SAPE  H19R16211   1.507   6.355   8.140  0.6586 -0.7570  2.7507
  147SAPE  H19S16212   1.619   6.503   8.171  0.0539 -0.3176 -0.0652
  147SAPE  C22016213   1.697   6.327   8.246 -0.0906  0.1386 -0.2833
  147SAPE  H20R16214   1.805   6.355   8.242 -0.2637  1.0416  0.7858
  147SAPE  H20S16215   1.697   6.217   8.232  2.5812  0.0867 -0.1971
  147SAPE  H20T16216   1.658   6.351   8.348  0.7071  1.7857 -0.3365
  147SAPE   C3316217   0.950   6.219   7.078 -0.3950 -0.3133  0.0551
  147SAPE   H3X16218   0.861   6.245   7.017 -0.0326  2.7345  0.7849
  147SAPE   H3Y16219   1.027   6.283   7.029  0.8203 -0.3663  1.8483
  147SAPE   C3416220   0.943   6.277   7.219 -0.1545  0.2296 -0.0789
  147SAPE   H4X16221   1.044   6.276   7.264 -1.7234  0.7334  3.6659
  147SAPE   H4Y16222   0.876   6.208   7.275  1.5365 -0.8122  0.6912
  147SAPE   C3516223   0.887   6.420   7.231 -0.3221 -0.4799 -0.2087
  147SAPE   H5X16224   0.780   6.427   7.205  0.0698  0.2817 -1.6672
  147SAPE   H5Y16225   0.947   6.474   7.155  1.6876 -0.0324  1.6316
  147SAPE   C3616226   0.923   6.493   7.361  0.2593 -0.0246  0.1560
  147SAPE   H6X16227   1.029   6.467   7.382  0.4041  0.0725 -0.4518
  147SAPE   H6Y16228   0.854   6.451   7.437 -0.6081 -1.1514 -1.2260
  147SAPE   C3716229   0.916   6.644   7.346  0.5412 -0.1370 -0.1996
  147SAPE   H7X16230   0.814   6.665   7.308  0.5573 -0.1046 -0.2250
  147SAPE   H7Y16231   0.990   6.666   7.266  0.6431  1.9528  0.4589
  147SAPE   C3816232   0.949   6.705   7.481 -0.4828  0.0497 -0.4059
  147SAPE   H8X16233   1.040   6.655   7.522 -1.5810 -0.7486  1.0979
  147SAPE   H8Y16234   0.871   6.683   7.557 -1.3384 -0.3223 -1.3828
  147SAPE   C3916235   0.962   6.863   7.469  0.4289  0.3397 -0.2409
  147SAPE   H9X16236   0.869   6.896   7.417  0.7146 -0.3306 -1.1916
  147SAPE   H9Y16237   1.051   6.877   7.404  1.2430 -2.3990  0.1973
  147SAPE  C31016238   0.988   6.924   7.604  0.3264  0.0672  0.4075
  147SAPE  H10X16239   1.028   7.025   7.581 -1.7879  0.7656 -0.3100
  147SAPE  H10Y16240   1.068   6.865   7.653  0.1070  0.0150  0.6966
  147SAPE  C31116241   0.855   6.930   7.686  0.2805 -0.2400  0.5404
  147SAPE  H11X16242   0.818   6.828   7.708 -2.6058  0.8238  0.8368
  147SAPE  H11Y16243   0.777   6.980   7.624 -1.6710 -2.8018  0.8577
  147SAPE  C31216244   0.861   7.008   7.822 -0.1736  0.3432  0.5194
  147SAPE  H12X16245   0.896   7.108   7.789  1.0819  0.1112  1.1038
  147SAPE  H12Y16246   0.927   6.948   7.888  0.3339  0.5236  0.1788
  147SAPE  C31316247   0.726   7.008   7.895  0.2699  0.0501 -0.9322
  147SAPE  H13X16248   0.686   6.905   7.898  0.5855 -0.0124  2.1022
  147SAPE  H13Y16249   0.662   7.077   7.836  0.4195  0.6423 -0.4062
  147SAPE  C31416250   0.748   7.068   8.037 -0.4824  0.0696 -0.5902
  147SAPE  H14X16251   0.804   7.014   8.116  0.8081  0.3898 -1.2754
  147SAPE  H14Y16252   0.647   7.083   8.080  0.0560  1.5687  0.2076
  147SAPE  C31516253   0.808   7.208   8.033 -0.4980 -0.9839  0.3105
  147SAPE  H15X16254   0.736   7.264   7.970 -1.4011 -2.1719  0.2522
  147SAPE  H15Y16255   0.911   7.226   7.997 -0.6593  0.6695  0.6485
  147SAPE  C31616256   0.814   7.274   8.176  0.2631 -0.0409 -0.1513
  147SAPE  H16X16257   0.893   7.215   8.227  0.2037 -0.3498 -0.4232
  147SAPE  H16Y16258   0.722   7.243   8.228  0.8134  0.0794  0.9185
  147SAPE  C31716259   0.824   7.429   8.172 -0.5529  0.0339 -0.0573
  147SAPE  H17X16260   0.799   7.464   8.274 -0.5903 -0.1215 -0.0122
  147SAPE  H17Y16261   0.761   7.468   8.088 -1.2292 -0.8760  0.0136
  147SAPE  C31816262   0.972   7.462   8.150 -0.4980 -0.2534  0.0718
  147SAPE  H18X16263   1.004   7.424   8.051  0.4501 -1.4755  0.8348
  147SAPE  H18Y16264   1.043   7.418   8.224  0.1931 -1.2102 -1.1443
  147SAPE  H18Z16265   0.990   7.571   8.158 -0.1064 -0.2887 -0.2868
  148SAPE     N16266   0.439   4.722   6.507 -0.7154  0.3910  0.1157
  148SAPE   HN116267   0.381   4.636   6.503  1.0520 -0.8824  0.9614
  148SAPE   HN216268   0.487   4.740   6.416  0.2973 -0.1466  0.5373
  148SAPE   HN316269   0.516   4.705   6.575  1.8353 -0.2945 -2.7562
  148SAPE   C1216270   0.336   4.824   6.544 -0.8160  0.0129 -0.2520
  148SAPE  H12A16271   0.352   4.905   6.469 -0.2409 -0.4879 -0.6785
  148SAPE  H12B16272   0.359   4.854   6.648 -2.0367 -2.5253  0.7901
  148SAPE   C1116273   0.193   4.768   6.518 -0.4376  0.3166  0.5079
  148SAPE  H11A16274   0.191   4.742   6.410  0.0109 -1.5437  0.9473
  148SAPE  H11B16275   0.118   4.850   6.530 -1.4529 -0.5324  0.0724
  148SAPE     P16276   0.123   4.684   6.751  0.0250  0.0599 -0.2806
  148SAPE   O1316277   0.064   4.820   6.767 -0.0357  0.3510  0.3253
  148SAPE   O1416278   0.053   4.563   6.790 -0.0065 -0.2133 -0.0896
  148SAPE   O1216279   0.158   4.660   6.599 -0.1803  0.3535  0.0084
  148SAPE   O1116280   0.273   4.685   6.809 -0.2568  0.0739 -0.4795
  148SAPE    C116281   0.297   4.655   6.949  0.8067  0.4327 -0.3476
  148SAPE    HA16282   0.213   4.674   7.018 -0.2991 -1.2303 -1.1865
  148SAPE    HB16283   0.323   4.548   6.966  2.5818  1.2243  2.1651
  148SAPE    C216284   0.403   4.750   6.997  0.2006 -0.4720  0.4392
  148SAPE    HS16285   0.478   4.744   6.915 -2.3163  1.1008 -2.0818
  148SAPE   O2116286   0.454   4.704   7.124  0.0191  0.3067 -0.3875
  148SAPE   C2116287   0.582   4.736   7.154  0.1384  0.2552  0.5126
  148SAPE   O2216288   0.666   4.783   7.082 -0.2557  0.6125 -0.3151
  148SAPE   C2216289   0.594   4.704   7.300 -0.7004 -0.3096 -0.7517
  148SAPE   H2R16290   0.544   4.785   7.357 -1.1121  0.0165 -1.5838
  148SAPE   H2S16291   0.548   4.605   7.318 -0.2897 -0.3210  0.2718
  148SAPE    C316292   0.363   4.902   7.006  0.0213  0.1053 -0.3889
  148SAPE    HX16293   0.268   4.906   7.064 -0.2741 -1.6822 -0.7221
  148SAPE    HY16294   0.335   4.933   6.903 -1.1881  1.1880  0.2535
  148SAPE   O3116295   0.451   4.992   7.077 -0.2536  0.5474  0.0004
  148SAPE   C3116296   0.535   5.061   7.010 -0.4468 -0.7839  0.2006
  148SAPE   O3216297   0.547   5.078   6.888 -1.0797 -0.1447 -0.5479
  148SAPE   C3216298   0.617   5.143   7.113 -0.6732  0.7180  0.3715
  148SAPE   H2X16299   0.706   5.198   7.075 -0.5519 -0.4121 -1.0321
  148SAPE   H2Y16300   0.651   5.071   7.190  0.3830  2.4281  1.5410
  148SAPE   C2316301   0.738   4.709   7.369  0.9514  0.3407 -0.1681
  148SAPE   H3R16302   0.774   4.814   7.378  1.2429  0.1023  1.5204
  148SAPE   H3S16303   0.801   4.649   7.299  0.5804  2.1125 -2.0827
  148SAPE   C2416304   0.742   4.650   7.510 -0.4752 -0.6042  0.1997
  148SAPE   H4R16305   0.850   4.635   7.531 -0.4571  1.5110  1.8292
  148SAPE   H4S16306   0.684   4.556   7.517 -1.5295 -0.0733 -1.1205
  148SAPE   C2516307   0.685   4.750   7.608 -0.0784 -0.1452 -0.1771
  148SAPE   H5R16308   0.672   4.849   7.561  1.1501  1.0110  1.8642
  148SAPE   C2616309   0.632   4.734   7.729 -0.5130  0.0856  0.3553
  148SAPE   H6R16310   0.592   4.821   7.783  1.6631  0.8900  0.7342
  148SAPE   C2716311   0.616   4.613   7.810 -0.1357 -0.7725 -0.0326
  148SAPE   H7R16312   0.631   4.526   7.743 -2.2509 -0.7962 -0.5356
  148SAPE   H7S16313   0.511   4.603   7.847 -0.2586 -0.1423 -0.2088
  148SAPE   C2816314   0.722   4.612   7.919 -0.1237 -0.4459  0.0020
  148SAPE   H8R16315   0.824   4.630   7.883  0.3404 -3.3085 -0.2596
  148SAPE   C2916316   0.713   4.590   8.049  0.1258  0.0117  0.4557
  148SAPE   H9R16317   0.808   4.612   8.101  0.1237  0.3167  0.3292
  148SAPE  C21016318   0.596   4.557   8.136 -0.1027  0.1690  0.5107
  148SAPE  H10R16319   0.623   4.497   8.225 -0.4579  1.3565  1.4357
  148SAPE  H10S16320   0.545   4.481   8.073  0.0098  0.8784 -0.4547
  148SAPE  C21116321   0.498   4.666   8.169  0.1556 -0.0156 -0.2875
  148SAPE  H11R16322   0.457   4.717   8.081  2.2449  0.3317 -1.1016
  148SAPE  C21216323   0.462   4.705   8.294  0.4119 -0.1808  0.1973
  148SAPE  H12R16324   0.395   4.792   8.304 -0.4517 -0.7629 -0.3981
  148SAPE  C21316325   0.515   4.657   8.424 -0.7719 -0.1139  0.2776
  148SAPE  H13R16326   0.496   4.735   8.502  1.0761 -0.7180  1.3558
  148SAPE  H13S16327   0.625   4.650   8.409 -0.6235  2.1671  0.1567
  148SAPE  C21416328   0.470   4.527   8.469  0.0958  0.1018 -0.3346
  148SAPE  H14R16329   0.376   4.488   8.426  0.7778 -1.6895 -0.2312
  148SAPE  C21516330   0.531   4.455   8.565  0.0577 -0.3970 -0.3956
  148SAPE  H15R16331   0.492   4.364   8.613  2.0330 -0.3842  1.3322
  148SAPE  C21616332   0.660   4.500   8.633 -0.5047  0.2433  0.2066
  148SAPE  H16R16333   0.670   4.611   8.632  1.6189  0.0894  1.2615
  148SAPE  H16S16334   0.755   4.459   8.593 -0.2269 -0.7478  1.8120
  148SAPE  C21716335   0.663   4.460   8.785 -0.4067 -0.0508 -0.3435
  148SAPE  H17R16336   0.582   4.503   8.848 -0.0262  1.0778 -0.6131
  148SAPE  H17S16337   0.756   4.511   8.821  0.6429 -0.9920 -1.6928
  148SAPE  C21816338   0.675   4.311   8.799 -0.1981  0.5700  0.2620
  148SAPE  H18R16339   0.749   4.271   8.726  1.6859 -0.8256  2.8489
  148SAPE  H18S16340   0.586   4.260   8.757  0.9787 -0.9004 -0.4850
  148SAPE  C21916341   0.706   4.250   8.934 -0.0848 -0.2617 -0.3666
  148SAPE  H19R16342   0.619   4.280   8.996  0.9720  1.5099  0.2962
  148SAPE  H19S16343   0.795   4.301   8.979 -0.5543  0.4688 -0.2606
  148SAPE  C22016344   0.717   4.102   8.946 -0.0043 -1.0872 -0.6940
  148SAPE  H20R16345   0.759   4.063   9.042  0.9016  0.2415 -0.5360
  148SAPE  H20S16346   0.791   4.071   8.869  0.5936  0.0969 -0.6026
  148SAPE  H20T16347   0.622   4.060   8.907 -0.7442 -0.5348  0.4803
  148SAPE   C3316348   0.537   5.251   7.190  0.4994 -0.4057 -0.0511
  148SAPE   H3X16349   0.440   5.218   7.234  2.6734 -1.2271  4.4118
  148SAPE   H3Y16350   0.532   5.339   7.121 -0.7116 -0.9809 -0.7254
  148SAPE   C3416351   0.616   5.300   7.316  0.0294  0.1339  0.4804
  148SAPE   H4X16352   0.724   5.315   7.295  0.3356  1.1631  2.5833
  148SAPE   H4Y16353   0.608   5.210   7.381  0.8231 -0.1957  0.1239
  148SAPE   C3516354   0.555   5.422   7.385 -0.1903  0.2504 -0.9161
  148SAPE   H5X16355   0.445   5.404   7.383 -0.5679  2.5333 -1.2270
  148SAPE   H5Y16356   0.563   5.507   7.315  1.4244 -0.1118 -1.1825
  148SAPE   C3616357   0.605   5.449   7.528  0.6772  0.2985 -0.1354
  148SAPE   H6X16358   0.714   5.433   7.512  0.4844 -0.0013 -1.1810
  148SAPE   H6Y16359   0.566   5.371   7.596 -0.1208 -0.6528 -1.6566
  148SAPE   C3716360   0.583   5.592   7.591 -0.5172 -0.4890  0.5039
  148SAPE   H7X16361   0.479   5.600   7.627 -0.3069 -1.9032  1.4576
  148SAPE   H7Y16362   0.616   5.659   7.509 -2.2616  0.1882  0.3493
  148SAPE   C3816363   0.673   5.608   7.718  0.3562 -0.1240  0.7975
  148SAPE   H8X16364   0.773   5.573   7.684 -0.4739 -3.0732  1.2432
  148SAPE   H8Y16365   0.630   5.541   7.795 -1.1844 -2.5995 -2.0773
  148SAPE   C3916366   0.677   5.753   7.753  0.3364  0.0281  0.3846
  148SAPE   H9X16367   0.572   5.791   7.758  0.8347  1.4060  0.8582
  148SAPE   H9Y16368   0.722   5.815   7.672  0.0255  2.3119  1.9040
  148SAPE  C31016369   0.764   5.779   7.877 -0.1871  0.4300  1.2131
  148SAPE  H10X16370   0.807   5.878   7.855 -1.1354  1.0101  1.9332
  148SAPE  H10Y16371   0.850   5.709   7.863 -2.0323 -0.8250 -5.4334
  148SAPE  C31116372   0.704   5.753   8.010 -0.0056  0.4536  0.0136
  148SAPE  H11X16373   0.615   5.689   7.995 -1.5709  2.7844 -0.8937
  148SAPE  H11Y16374   0.667   5.854   8.038  1.1533  1.0111 -0.4127
  148SAPE  C31216375   0.800   5.697   8.107  0.5355 -0.7479 -0.9958
  148SAPE  H12X16376   0.853   5.785   8.149 -1.3800 -0.6998  1.4186
  148SAPE  H12Y16377   0.877   5.639   8.052 -1.7249 -2.6585 -2.2640
  148SAPE  C31316378   0.738   5.618   8.226  0.2014  0.7985  0.0755
  148SAPE  H13X16379   0.815   5.544   8.254  1.6854  0.7911 -3.7306
  148SAPE  H13Y16380   0.648   5.562   8.192 -0.6298  2.4050 -0.3809
  148SAPE  C31416381   0.676   5.708   8.329  0.3410 -0.2426  0.5776
  148SAPE  H14X16382   0.609   5.779   8.277 -2.9850 -3.5334  0.1977
  148SAPE  H14Y16383   0.753   5.762   8.389 -0.7659  0.6085  1.2487
  148SAPE  C31516384   0.586   5.634   8.441 -0.0231  0.7670  0.0540
  148SAPE  H15X16385   0.523   5.550   8.404 -0.0848 -1.3073  4.5723
  148SAPE  H15Y16386   0.521   5.715   8.481  2.0146  2.9678 -0.9895
  148SAPE  C31616387   0.656   5.599   8.575  0.7239  0.5890 -0.2576
  148SAPE  H16X16388   0.686   5.695   8.621  1.9905 -1.4688  3.4263
  148SAPE  H16Y16389   0.739   5.526   8.565 -0.9670 -1.1343 -2.6592
  148SAPE  C31716390   0.553   5.530   8.667  0.0782  0.1904  0.0067
  148SAPE  H17X16391   0.455   5.582   8.669  0.1163  0.3636 -1.7717
  148SAPE  H17Y16392   0.595   5.538   8.770  1.2809  1.0891 -0.5502
  148SAPE  C31816393   0.532   5.384   8.630 -0.0163 -0.3625 -0.2780
  148SAPE  H18X16394   0.506   5.317   8.714 -0.6935 -0.1959 -0.3549
  148SAPE  H18Y16395   0.626   5.343   8.587 -0.3058  1.1362 -2.4348
  148SAPE  H18Z16396   0.454   5.394   8.551 -2.6410  1.3611  2.4447
  149SAPE     N16397   6.083   5.630   6.361 -0.2854 -0.4315  0.1770
  149SAPE   HN116398   6.168   5.656   6.306 -1.5206  2.9104 -0.2946
  149SAPE   HN216399   5.997   5.626   6.303 -1.1836 -0.2810  1.4751
  149SAPE   HN316400   6.070   5.706   6.431  0.2121 -0.1541 -0.0289
  149SAPE   C1216401   6.125   5.504   6.431  0.5726 -0.6899  0.1686
  149SAPE  H12A16402   6.153   5.435   6.349 -0.9984  0.9149 -1.7616
  149SAPE  H12B16403   6.040   5.467   6.492 -0.0665  1.0061  0.3382
  149SAPE   C1116404   6.227   5.550   6.536 -0.0356 -0.3889  0.3483
  149SAPE  H11A16405   6.255   5.473   6.611  0.9988 -0.6866 -0.3227
  149SAPE  H11B16406   6.188   5.633   6.599 -0.5658 -1.4810  1.4610
  149SAPE     P16407   6.475   5.506   6.428 -0.4872 -0.0893 -0.3883
  149SAPE   O1316408   6.439   5.367   6.394 -0.4179  0.9052 -0.8808
  149SAPE   O1416409   6.549   5.586   6.328 -0.0691 -0.2663  0.0562
  149SAPE   O1216410   6.345   5.592   6.465  0.2467 -0.0462 -0.0470
  149SAPE   O1116411   6.560   5.500   6.557 -0.1308  0.0104  0.5558
  149SAPE    C116412   6.582   5.620   6.637  0.0835 -0.9611 -0.0748
  149SAPE    HA16413   6.674   5.672   6.605 -0.1731  0.4102  1.3812
  149SAPE    HB16414   6.502   5.697   6.626  1.5278  0.8554  1.8623
  149SAPE    C216415   6.594   5.589   6.787 -0.2470  0.3814  0.0309
  149SAPE    HS16416   6.600   5.687   6.839  0.4611 -1.4603  3.5760
  149SAPE   O2116417   6.710   5.499   6.814  0.5445  0.0665 -0.2894
  149SAPE   C2116418   6.821   5.550   6.824  0.2701  0.0474  0.3069
  149SAPE   O2216419   6.847   5.672   6.812 -0.4669 -0.2288  0.4366
  149SAPE   C2216420   6.933   5.443   6.854  0.2882 -1.0397 -0.5000
  149SAPE   H2R16421   6.899   5.350   6.804 -2.0003 -0.1877 -0.5947
  149SAPE   H2S16422   7.033   5.464   6.810  0.4674  0.4909  0.6145
  149SAPE    C316423   6.467   5.510   6.841 -0.0022  0.4978  0.4979
  149SAPE    HX16424   6.465   5.417   6.781  0.7116  0.0887  1.0978
  149SAPE    HY16425   6.378   5.572   6.820 -0.8820 -1.0964 -0.5958
  149SAPE   O3116426   6.473   5.506   6.986  0.5052  0.1016 -0.9651
  149SAPE   C3116427   6.507   5.394   7.039  0.2373 -0.1560  0.0021
  149SAPE   O3216428   6.528   5.286   6.980 -0.4110 -0.4858 -0.0458
  149SAPE   C3216429   6.522   5.416   7.189 -0.1675 -0.8225  0.6467
  149SAPE   H2X16430   6.422   5.432   7.234 -0.5493 -1.1019 -0.0952
  149SAPE   H2Y16431   6.581   5.510   7.197 -2.8532  0.8312  1.8068
  149SAPE   C2316432   6.943   5.394   6.995 -0.2807  0.3467  0.0871
  149SAPE   H3R16433   6.975   5.288   7.003  1.0890  0.6334 -1.2793
  149SAPE   H3S16434   6.843   5.381   7.040 -0.3614  1.1627  0.1597
  149SAPE   C2416435   7.042   5.481   7.075  0.5531  0.0138 -0.4278
  149SAPE   H4R16436   7.014   5.588   7.062  0.5981 -0.2216 -2.6903
  149SAPE   H4S16437   7.145   5.455   7.041  0.0362  0.2559 -2.2747
  149SAPE   C2516438   7.036   5.443   7.218  0.1241 -0.0821 -0.5088
  149SAPE   H5R16439   7.035   5.333   7.223  1.8238 -0.2027 -2.0587
  149SAPE   C2616440   7.051   5.523   7.324 -0.0318  0.0609 -0.0486
  149SAPE   H6R16441   7.054   5.471   7.421  0.8184 -3.4138 -1.8609
  149SAPE   C2716442   7.063   5.675   7.340  0.6224  1.0226  0.2500
  149SAPE   H7R16443   7.089   5.721   7.242 -0.9053  2.0812  0.3259
  149SAPE   H7S16444   7.158   5.689   7.396 -0.0935  0.8775  1.5047
  149SAPE   C2816445   6.944   5.739   7.397  0.6107  0.0286 -0.2224
  149SAPE   H8R16446   6.858   5.742   7.329  0.6819 -0.1851 -0.3235
  149SAPE   C2916447   6.940   5.792   7.517  0.0956 -0.2567 -0.1395
  149SAPE   H9R16448   6.836   5.820   7.541 -0.5721  0.5716 -3.7677
  149SAPE  C21016449   7.040   5.800   7.621  0.0804  0.4306  1.0147
  149SAPE  H10R16450   7.135   5.833   7.573 -0.2603 -0.7707 -0.5186
  149SAPE  H10S16451   7.055   5.695   7.651  3.4926  1.0152  1.5808
  149SAPE  C21116452   7.009   5.879   7.742  0.8704  0.0523 -0.3349
  149SAPE  H11R16453   6.941   5.965   7.733  0.6519  0.2256  2.6595
  149SAPE  C21216454   7.044   5.866   7.869  0.2760  0.9118 -0.1077
  149SAPE  H12R16455   7.009   5.948   7.934 -0.7114 -2.0549  3.3039
  149SAPE  C21316456   7.127   5.750   7.927 -0.6468 -0.0022  0.8723
  149SAPE  H13R16457   7.187   5.790   8.012 -1.8144 -1.1757  2.2648
  149SAPE  H13S16458   7.206   5.712   7.858 -1.1217  3.3248 -1.6436
  149SAPE  C21416459   7.048   5.632   7.976  0.4107  0.8596  0.4273
  149SAPE  H14R16460   6.976   5.596   7.901  1.9982 -2.0856  0.2470
  149SAPE  C21516461   7.064   5.575   8.095  0.1045  0.2832  0.3014
  149SAPE  H15R16462   7.003   5.486   8.115 -1.4883  0.9224 -1.5620
  149SAPE  C21616463   7.144   5.608   8.218 -0.5398 -0.7779 -0.1536
  149SAPE  H16R16464   7.245   5.642   8.186 -0.0040 -0.6894  1.5677
  149SAPE  H16S16465   7.168   5.520   8.282 -0.1693 -0.8220 -0.3524
  149SAPE  C21716466   7.089   5.725   8.304  0.2807  0.1068 -0.5655
  149SAPE  H17R16467   7.062   5.820   8.253 -1.2382  1.6546  3.0046
  149SAPE  H17S16468   7.174   5.768   8.362 -1.4573 -1.0732  2.9856
  149SAPE  C21816469   6.989   5.685   8.409  0.1184 -0.1053  0.0011
  149SAPE  H18R16470   7.004   5.751   8.498 -0.2590  0.7233 -0.5421
  149SAPE  H18S16471   7.003   5.580   8.440  0.5780 -0.7335 -2.2857
  149SAPE  C21916472   6.852   5.710   8.360  0.5765 -0.2775 -0.2294
  149SAPE  H19R16473   6.840   5.659   8.262 -2.2842  1.1023 -0.6359
  149SAPE  H19S16474   6.847   5.820   8.344  0.5052 -0.0138  1.5474
  149SAPE  C22016475   6.735   5.654   8.451  0.3767 -0.1195  0.2314
  149SAPE  H20R16476   6.751   5.545   8.468  2.4460  0.1571  0.1224
  149SAPE  H20S16477   6.637   5.666   8.399  1.6462  1.2161 -1.9310
  149SAPE  H20T16478   6.740   5.699   8.552  0.3204  1.0245 -0.2745
  149SAPE   C3316479   6.600   5.302   7.265  0.4189 -0.0125 -0.5750
  149SAPE   H3X16480   6.701   5.296   7.220  1.3023 -2.0106  1.5998
  149SAPE   H3Y16481   6.553   5.205   7.236  1.0660 -0.7872  0.9314
  149SAPE   C3416482   6.615   5.308   7.417  0.0513  0.0693 -0.0236
  149SAPE   H4X16483   6.638   5.206   7.456  3.2454  0.9236  0.4178
  149SAPE   H4Y16484   6.516   5.337   7.458 -0.9500 -1.2584 -1.4156
  149SAPE   C3516485   6.722   5.409   7.461  0.3657  0.5762 -0.6276
  149SAPE   H5X16486   6.704   5.506   7.410  1.6700  1.0627 -0.1737
  149SAPE   H5Y16487   6.822   5.371   7.433  0.0772  0.5992 -1.7000
  149SAPE   C3616488   6.716   5.442   7.611  0.1382  0.1779 -0.4211
  149SAPE   H6X16489   6.608   5.456   7.634 -0.0176 -0.0992 -0.9560
  149SAPE   H6Y16490   6.767   5.537   7.636  0.1060  0.2911 -0.7774
  149SAPE   C3716491   6.775   5.338   7.717 -0.9367 -0.3424 -0.1162
  149SAPE   H7X16492   6.875   5.331   7.670 -1.6359  1.0197 -1.8559
  149SAPE   H7Y16493   6.742   5.233   7.708 -0.6670 -0.4933  0.6335
  149SAPE   C3816494   6.750   5.385   7.859  0.3543 -0.3187  0.2229
  149SAPE   H8X16495   6.641   5.407   7.866  0.7970  2.2477 -0.3189
  149SAPE   H8Y16496   6.817   5.468   7.891 -0.4691  0.6880 -0.6253
  149SAPE   C3916497   6.770   5.275   7.964  0.3343  0.4534 -0.1431
  149SAPE   H9X16498   6.873   5.235   7.964  0.0922 -0.2757  2.3920
  149SAPE   H9Y16499   6.700   5.190   7.945  0.6459 -0.7456  3.5407
  149SAPE  C31016500   6.737   5.317   8.104 -0.8621  0.6738 -0.4266
  149SAPE  H10X16501   6.652   5.388   8.101 -1.8535 -0.4443  0.9399
  149SAPE  H10Y16502   6.823   5.367   8.154 -1.0787 -0.4456  1.0966
  149SAPE  C31116503   6.692   5.202   8.193 -0.1147 -0.6328  0.3318
  149SAPE  H11X16504   6.599   5.152   8.159  0.1232  1.4985 -3.8343
  149SAPE  H11Y16505   6.676   5.245   8.294 -1.4330 -0.6322  0.1258
  149SAPE  C31216506   6.804   5.103   8.229  0.1313 -0.4496  0.0559
  149SAPE  H12X16507   6.838   5.062   8.131 -0.1970 -1.1763  0.2427
  149SAPE  H12Y16508   6.762   5.024   8.294 -0.8722  1.9848  2.4593
  149SAPE  C31316509   6.932   5.170   8.287 -0.0151 -0.4561 -0.1829
  149SAPE  H13X16510   6.972   5.243   8.213  0.2017 -1.5533 -1.1596
  149SAPE  H13Y16511   7.002   5.086   8.301  1.3948  0.6008 -0.7500
  149SAPE  C31416512   6.927   5.250   8.417  0.4112  0.9805  0.9231
  149SAPE  H14X16513   6.891   5.355   8.405 -1.9197  0.0497 -0.4666
  149SAPE  H14Y16514   7.033   5.270   8.444  1.1897  0.2087 -1.4214
  149SAPE  C31516515   6.833   5.193   8.522 -0.1157  0.6065  0.2555
  149SAPE  H15X16516   6.842   5.082   8.528  0.2821  0.6621  0.6661
  149SAPE  H15Y16517   6.726   5.198   8.493 -0.9255  0.6876  3.1589
  149SAPE  C31616518   6.860   5.248   8.663  0.5784 -0.1643  0.2613
  149SAPE  H16X16519   6.864   5.359   8.654 -1.1576 -0.0969  0.0978
  149SAPE  H16Y16520   6.962   5.215   8.692  0.3500 -1.1910 -0.0856
  149SAPE  C31716521   6.755   5.201   8.761 -0.0447  0.3485 -0.0597
  149SAPE  H17X16522   6.674   5.170   8.691 -0.0794  0.1382  0.0753
  149SAPE  H17Y16523   6.732   5.288   8.826 -0.1188 -0.3471  0.8450
  149SAPE  C31816524   6.800   5.083   8.846  0.3601 -0.2950 -0.4399
  149SAPE  H18X16525   6.723   5.026   8.902  1.6049 -0.9812  0.6107
  149SAPE  H18Y16526   6.885   5.109   8.912 -0.3414  3.2255 -0.8574
  149SAPE  H18Z16527   6.844   5.003   8.782 -0.4826 -2.3949  1.5631
  150SAPE     N16528   5.251   6.792   6.610 -0.3460  0.5562  0.1760
  150SAPE   HN116529   5.234   6.702   6.660  0.9741  0.4634  0.4800
  150SAPE   HN216530   5.343   6.838   6.624 -0.5633  1.1908 -0.5133
  150SAPE   HN316531   5.189   6.858   6.660 -0.5293  1.3835 -1.1302
  150SAPE   C1216532   5.228   6.793   6.459 -0.0641  0.3254  0.5132
  150SAPE  H12A16533   5.273   6.882   6.410 -1.4378  0.2539 -0.9148
  150SAPE  H12B16534   5.118   6.796   6.451  0.0490 -0.7151 -1.6785
  150SAPE   C1116535   5.274   6.660   6.390  0.0614 -0.0833  0.8432
  150SAPE  H11A16536   5.273   6.690   6.283  0.8972 -3.1044 -0.0443
  150SAPE  H11B16537   5.195   6.585   6.410 -1.8733  1.2704 -1.4156
  150SAPE     P16538   5.520   6.564   6.381 -0.1554 -0.2891  0.2186
  150SAPE   O1316539   5.591   6.459   6.461  0.4425  0.1144 -0.4381
  150SAPE   O1416540   5.482   6.524   6.242 -0.3606  0.1625  0.4767
  150SAPE   O1216541   5.394   6.625   6.453  0.4428 -0.1700 -0.5474
  150SAPE   O1116542   5.612   6.690   6.368 -0.2363 -0.4174 -0.2159
  150SAPE    C116543   5.704   6.723   6.469  0.0405 -0.7305  0.1645
  150SAPE    HA16544   5.750   6.629   6.508  1.1494 -0.9368 -1.5587
  150SAPE    HB16545   5.780   6.793   6.426  1.6348 -1.3661  1.8796
  150SAPE    C216546   5.638   6.805   6.586  0.0419 -0.4746 -0.5765
  150SAPE    HS16547   5.542   6.759   6.617 -0.0988  1.0849  1.3962
  150SAPE   O2116548   5.633   6.943   6.549 -0.3260 -0.2117 -0.0966
  150SAPE   C2116549   5.538   7.014   6.599  0.0538 -0.0904 -0.2888
  150SAPE   O2216550   5.451   6.975   6.675  0.0715  0.0128 -0.4779
  150SAPE   C2216551   5.554   7.157   6.552  0.2574  0.2921 -0.8532
  150SAPE   H2R16552   5.647   7.171   6.494  1.5347  2.8522  1.6599
  150SAPE   H2S16553   5.470   7.182   6.484 -0.6697  2.2467  0.9248
  150SAPE    C316554   5.731   6.797   6.712  0.1323  0.3631 -0.2907
  150SAPE    HX16555   5.722   6.688   6.729  0.8752 -0.3452 -4.0547
  150SAPE    HY16556   5.671   6.854   6.786 -0.0287  3.9202 -3.0514
  150SAPE   O3116557   5.862   6.845   6.695 -0.1850  0.3595 -0.1465
  150SAPE   C3116558   5.927   6.813   6.805  0.4725  0.1033 -0.1584
  150SAPE   O3216559   5.869   6.765   6.900  0.3213 -0.4065  0.0726
  150SAPE   C3216560   6.074   6.855   6.811  0.7154 -0.1334  0.8962
  150SAPE   H2X16561   6.075   6.966   6.811 -0.4769 -0.0616 -2.8707
  150SAPE   H2Y16562   6.115   6.807   6.720 -0.4236 -2.4669  1.5719
  150SAPE   C2316563   5.569   7.267   6.665  0.1480  0.3334  0.6055
  150SAPE   H3R16564   5.475   7.277   6.724  0.6905  0.7193  1.4231
  150SAPE   H3S16565   5.573   7.367   6.616  1.7690  0.6874  1.4183
  150SAPE   C2416566   5.684   7.234   6.771  0.3342  0.3492  0.2179
  150SAPE   H4R16567   5.783   7.238   6.719  0.1265 -0.3011 -0.2354
  150SAPE   H4S16568   5.668   7.131   6.811 -1.7694  0.6293  0.1337
  150SAPE   C2516569   5.682   7.327   6.888  0.2087 -0.4053  0.1905
  150SAPE   H5R16570   5.627   7.419   6.863 -2.7064 -2.3231 -0.6311
  150SAPE   C2616571   5.717   7.296   7.010 -1.0795  0.1007 -0.0766
  150SAPE   H6R16572   5.720   7.374   7.088 -2.2228 -0.6445  0.7206
  150SAPE   C2716573   5.774   7.167   7.060 -0.5693  0.6996 -0.5432
  150SAPE   H7R16574   5.875   7.181   7.104 -1.0931 -0.8962  1.2002
  150SAPE   H7S16575   5.796   7.088   6.986 -0.0994  1.0728 -0.8121
  150SAPE   C2816576   5.693   7.088   7.163  0.0465 -0.6053  1.0495
  150SAPE   H8R16577   5.616   7.022   7.121  1.0753 -0.5129 -1.1020
  150SAPE   C2916578   5.699   7.098   7.297  0.0410  0.4538  0.5320
  150SAPE   H9R16579   5.629   7.037   7.357  0.5298  1.0561  1.7344
  150SAPE  C21016580   5.793   7.187   7.382  0.0343 -0.1876  0.5475
  150SAPE  H10R16581   5.866   7.252   7.330 -0.1501  0.9543  1.6981
  150SAPE  H10S16582   5.864   7.115   7.427  0.0526  0.0976  0.9759
  150SAPE  C21116583   5.726   7.282   7.482  0.1661  0.5202 -0.0628
  150SAPE  H11R16584   5.693   7.385   7.458 -0.4697  0.4493  0.4851
  150SAPE  C21216585   5.707   7.258   7.617  0.5505 -0.2170  0.6397
  150SAPE  H12R16586   5.673   7.341   7.681 -1.3413 -1.7004  1.6111
  150SAPE  C21316587   5.741   7.137   7.701 -0.6765 -0.5006  0.0614
  150SAPE  H13R16588   5.845   7.157   7.734 -0.6890  0.3603 -0.4138
  150SAPE  H13S16589   5.748   7.058   7.622 -1.5561  0.1185 -0.6450
  150SAPE  C21416590   5.643   7.091   7.796  0.0402  0.3248  0.5881
  150SAPE  H14R16591   5.538   7.118   7.785  0.2998  2.1287  2.2727
  150SAPE  C21516592   5.674   7.012   7.906 -0.2832 -0.0389 -0.1847
  150SAPE  H15R16593   5.591   6.991   7.976 -0.1084 -0.8815 -0.2283
  150SAPE  C21616594   5.806   6.958   7.953 -0.7118  0.7198 -0.5850
  150SAPE  H16R16595   5.854   6.928   7.857 -2.3820  0.6550 -1.4110
  150SAPE  H16S16596   5.795   6.864   8.010  1.5390  0.1994 -0.9571
  150SAPE  C21716597   5.899   7.052   8.036  0.2725 -0.2719 -0.4178
  150SAPE  H17R16598   5.907   7.148   7.980  2.1712 -1.1819 -1.7887
  150SAPE  H17S16599   6.002   7.011   8.033  0.6336  0.5615  0.4046
  150SAPE  C21816600   5.860   7.096   8.180  1.0870 -0.7430 -0.8169
  150SAPE  H18R16601   5.769   7.160   8.186  2.8513  1.6765  0.8875
  150SAPE  H18S16602   5.937   7.163   8.224 -2.2240  2.9387 -0.3422
  150SAPE  C21916603   5.833   6.979   8.282  0.1668  0.2870  0.4031
  150SAPE  H19R16604   5.921   6.921   8.315 -0.2909  0.6614  2.3142
  150SAPE  H19S16605   5.756   6.916   8.232  1.2926 -0.0764 -0.9101
  150SAPE  C22016606   5.784   7.040   8.409  0.2140 -0.3967  0.3555
  150SAPE  H20R16607   5.871   7.086   8.461 -2.0270  0.9496  3.0551
  150SAPE  H20S16608   5.739   6.965   8.478  1.5208 -0.5819  1.0310
  150SAPE  H20T16609   5.706   7.116   8.389  0.9115  0.6209  1.4475
  150SAPE   C3316610   6.141   6.795   6.933 -0.7000 -0.8477 -0.3859
  150SAPE   H3X16611   6.252   6.800   6.930 -0.5096 -1.9706  2.5877
  150SAPE   H3Y16612   6.121   6.687   6.949  0.0458 -1.2900 -2.3001
  150SAPE   C3416613   6.110   6.868   7.071 -0.1504  0.5397  0.1161
  150SAPE   H4X16614   6.002   6.855   7.094 -0.7595  1.0210 -2.3442
  150SAPE   H4Y16615   6.133   6.976   7.064 -1.3080  0.7757 -0.2550
  150SAPE   C3516616   6.195   6.796   7.180 -0.3198  0.5880 -0.3890
  150SAPE   H5X16617   6.301   6.812   7.152 -0.6867  2.6673 -0.6554
  150SAPE   H5Y16618   6.177   6.687   7.193 -3.8156  1.0742 -0.7876
  150SAPE   C3616619   6.187   6.873   7.319 -0.3218  0.0477 -0.3405
  150SAPE   H6X16620   6.195   6.982   7.303  0.9455 -0.1498 -1.1365
  150SAPE   H6Y16621   6.276   6.839   7.377 -2.1547 -2.0773  1.3085
  150SAPE   C3716622   6.071   6.820   7.417 -0.0668  0.6859  0.0297
  150SAPE   H7X16623   6.088   6.712   7.438  1.4813  0.4039 -2.5354
  150SAPE   H7Y16624   5.985   6.826   7.347 -0.2323 -4.4117 -0.4051
  150SAPE   C3816625   6.051   6.893   7.549 -0.3327  0.3434 -0.1112
  150SAPE   H8X16626   5.943   6.890   7.573 -0.4605  1.5790 -0.4708
  150SAPE   H8Y16627   6.065   7.003   7.543  1.2894  0.0245 -3.1158
  150SAPE   C3916628   6.132   6.843   7.672 -0.2522 -0.4910 -0.5919
  150SAPE   H9X16629   6.130   6.909   7.762 -0.8156 -3.7135  1.8536
  150SAPE   H9Y16630   6.235   6.841   7.630 -0.8865 -0.5858 -2.1869
  150SAPE  C31016631   6.072   6.716   7.724 -0.1007  0.4321  0.7083
  150SAPE  H10X16632   6.146   6.639   7.695 -0.7072 -0.5529  1.7079
  150SAPE  H10Y16633   5.975   6.690   7.677  1.1734  0.1499 -1.8472
  150SAPE  C31116634   6.055   6.697   7.881  0.7018  0.7401  1.4735
  150SAPE  H11X16635   5.976   6.768   7.914  0.2061 -0.0132  1.9042
  150SAPE  H11Y16636   6.155   6.724   7.922  1.6719 -1.9208  0.9615
  150SAPE  C31216637   6.019   6.559   7.906  0.4498 -0.0828 -0.0403
  150SAPE  H12X16638   6.086   6.490   7.851 -0.5434 -0.5892 -0.6476
  150SAPE  H12Y16639   5.918   6.543   7.861 -0.4703  3.2734  0.7320
  150SAPE  C31316640   6.030   6.519   8.050 -0.3123  0.1295 -0.4577
  150SAPE  H13X16641   6.120   6.563   8.098  1.1972 -2.0242 -1.2294
  150SAPE  H13Y16642   6.035   6.408   8.054 -1.0682  0.1156  0.4658
  150SAPE  C31416643   5.912   6.559   8.133 -0.3068  0.5585  0.9645
  150SAPE  H14X16644   5.821   6.505   8.099  0.2620 -1.6049  2.7183
  150SAPE  H14Y16645   5.889   6.667   8.120 -1.9581 -0.0673 -1.8392
  150SAPE  C31516646   5.920   6.536   8.288  0.2279  0.0882  0.5560
  150SAPE  H15X16647   6.019   6.578   8.317  0.4855 -0.1864  0.0824
  150SAPE  H15Y16648   5.915   6.427   8.310 -0.4487 -0.0295 -0.1333
  150SAPE  C31616649   5.808   6.601   8.368 -0.3286  0.2420 -0.3564
  150SAPE  H16X16650   5.705   6.560   8.355 -1.2888  2.6922 -0.8431
  150SAPE  H16Y16651   5.809   6.705   8.329  1.1843  0.3534 -0.0296
  150SAPE  C31716652   5.815   6.597   8.523  0.6368 -0.0668 -0.6460
  150SAPE  H17X16653   5.792   6.495   8.561  3.1906  0.4991  2.6404
  150SAPE  H17Y16654   5.737   6.670   8.553 -0.0162 -0.7095 -0.7587
  150SAPE  C31816655   5.942   6.649   8.588  0.7989 -0.1179  0.1385
  150SAPE  H18X16656   5.990   6.732   8.531  0.5628 -2.0327 -2.9850
  150SAPE  H18Y16657   6.015   6.565   8.583 -0.6698 -1.4880  1.1290
  150SAPE  H18Z16658   5.930   6.663   8.697  0.9489  0.2868  0.1019
  151SAPE     N16659   1.167   4.466   6.364 -0.0469 -0.0659 -0.1539
  151SAPE   HN116660   1.173   4.567   6.343 -1.4765  0.3737  1.4409
  151SAPE   HN216661   1.112   4.416   6.291  1.6448 -0.8838 -0.9105
  151SAPE   HN316662   1.122   4.453   6.457  0.0380  2.2974  0.2348
  151SAPE   C1216663   1.305   4.399   6.355  0.2633 -0.6534  0.2497
  151SAPE  H12A16664   1.290   4.297   6.314  1.8840 -1.3698  1.4161
  151SAPE  H12B16665   1.344   4.395   6.459  1.0690 -1.0088 -0.0695
  151SAPE   C1116666   1.390   4.480   6.258 -0.1155 -0.0579  0.2623
  151SAPE  H11A16667   1.336   4.490   6.162 -1.9686 -1.8647  1.0844
  151SAPE  H11B16668   1.484   4.422   6.251 -0.8150 -1.3618  1.3367
  151SAPE     P16669   1.546   4.697   6.321  0.2841 -0.2924  0.7494
  151SAPE   O1316670   1.659   4.614   6.274 -0.1991  0.6739 -0.4874
  151SAPE   O1416671   1.534   4.833   6.273  0.3946 -0.4694 -0.2050
  151SAPE   O1216672   1.411   4.618   6.306 -0.0416  0.3740 -0.1760
  151SAPE   O1116673   1.558   4.710   6.480  0.4596  0.3936 -0.0315
  151SAPE    C116674   1.443   4.763   6.547  1.0398  0.4044 -0.5002
  151SAPE    HA16675   1.454   4.874   6.549  5.1920  0.1060 -2.5544
  151SAPE    HB16676   1.348   4.740   6.494  0.7476  0.6376 -0.0846
  151SAPE    C216677   1.423   4.708   6.686 -0.3942  0.5360 -0.9233
  151SAPE    HS16678   1.520   4.716   6.740 -1.0014  0.5202  0.1960
  151SAPE   O2116679   1.376   4.568   6.672 -0.7061 -0.1824  0.7185
  151SAPE   C2116680   1.402   4.492   6.773 -0.7102 -0.1069 -0.0225
  151SAPE   O2216681   1.492   4.514   6.854  0.4344 -0.4101  0.6887
  151SAPE   C2216682   1.303   4.376   6.777 -0.4315 -0.3456 -0.3224
  151SAPE   H2R16683   1.218   4.422   6.832 -0.2265 -0.1292 -0.1858
  151SAPE   H2S16684   1.287   4.355   6.669 -0.7394  1.2698 -0.6169
  151SAPE    C316685   1.320   4.797   6.762 -0.1716  0.1456 -0.0335
  151SAPE    HX16686   1.236   4.780   6.691 -0.7008  1.3904  0.2727
  151SAPE    HY16687   1.358   4.901   6.759  2.5713 -0.8511 -1.6218
  151SAPE   O3116688   1.285   4.761   6.902  0.3703 -0.3788 -0.3431
  151SAPE   C3116689   1.175   4.695   6.915 -0.3888  0.5900  0.3039
  151SAPE   O3216690   1.119   4.638   6.821  0.0998  0.4359  0.4073
  151SAPE   C3216691   1.137   4.668   7.068  0.2349 -0.7154  0.7801
  151SAPE   H2X16692   1.044   4.609   7.081  0.9131 -2.1438 -0.6953
  151SAPE   H2Y16693   1.122   4.775   7.095 -1.2904 -1.4923  3.1581
  151SAPE   C2316694   1.357   4.269   6.873  0.1025 -0.8395 -1.3682
  151SAPE   H3R16695   1.440   4.309   6.935  1.0364  0.9331 -3.6959
  151SAPE   H3S16696   1.397   4.185   6.812  0.7126  0.0251 -2.1741
  151SAPE   C2416697   1.247   4.217   6.973  0.0480  0.1505  0.2009
  151SAPE   H4R16698   1.160   4.188   6.910 -0.4417 -0.1572  1.0112
  151SAPE   H4S16699   1.214   4.308   7.028  0.3551  1.5484 -1.8833
  151SAPE   C2516700   1.305   4.107   7.060 -0.6675  0.3676  0.0915
  151SAPE   H5R16701   1.338   4.013   7.013  1.2822  2.4870 -2.9730
  151SAPE   C2616702   1.331   4.106   7.190  0.3068  0.2572  0.1883
  151SAPE   H6R16703   1.366   4.016   7.241 -1.1565  0.4454  1.5726
  151SAPE   C2716704   1.314   4.223   7.277  0.2128 -0.2838 -0.0611
  151SAPE   H7R16705   1.207   4.248   7.289  0.0449 -0.9911 -0.0923
  151SAPE   H7S16706   1.351   4.312   7.223 -0.6427 -0.1045 -0.3550
  151SAPE   C2816707   1.385   4.219   7.404  0.2968  0.0648 -0.3913
  151SAPE   H8R16708   1.463   4.295   7.417  0.4386 -0.3598  1.4036
  151SAPE   C2916709   1.388   4.139   7.512 -0.2787  0.1234  0.6280
  151SAPE   H9R16710   1.454   4.169   7.594  1.7243 -0.8660 -0.5720
  151SAPE  C21016711   1.307   4.012   7.536 -0.7932 -0.4992  0.0404
  151SAPE  H10R16712   1.367   3.948   7.603 -0.6989 -0.9228 -0.4492
  151SAPE  H10S16713   1.295   3.952   7.444 -1.4451  1.3498 -1.1166
  151SAPE  C21116714   1.165   4.024   7.596 -0.4276 -0.4612  0.0576
  151SAPE  H11R16715   1.101   4.098   7.546 -0.8655 -0.5072  0.5426
  151SAPE  C21216716   1.109   3.957   7.697  0.7114 -0.5980  0.4376
  151SAPE  H12R16717   1.001   3.955   7.715  0.3169  1.8482 -1.3873
  151SAPE  C21316718   1.197   3.855   7.768 -0.2710  0.5961  0.2064
  151SAPE  H13R16719   1.299   3.896   7.784  0.7027 -2.4163  2.1430
  151SAPE  H13S16720   1.210   3.768   7.701  2.1799  0.2120  1.1537
  151SAPE  C21416721   1.135   3.816   7.898  0.0440  0.5797 -0.1613
  151SAPE  H14R16722   1.036   3.772   7.879  0.2893  0.4696 -1.1968
  151SAPE  C21516723   1.183   3.828   8.025 -0.2429 -0.4513 -0.0692
  151SAPE  H15R16724   1.123   3.786   8.106 -1.2719  1.6099  0.2721
  151SAPE  C21616725   1.319   3.885   8.074 -0.5910 -0.3320  0.3837
  151SAPE  H16R16726   1.401   3.875   7.999  1.5014  1.4611  2.3291
  151SAPE  H16S16727   1.357   3.823   8.158  1.3227 -0.8332 -0.8058
  151SAPE  C21716728   1.309   4.025   8.125 -0.8033  0.1730  0.7373
  151SAPE  H17R16729   1.265   4.025   8.227 -2.3175  1.1311  0.0901
  151SAPE  H17S16730   1.243   4.084   8.058 -1.4318 -1.7664 -0.3971
  151SAPE  C21816731   1.446   4.089   8.144 -0.7803 -0.5276 -0.2093
  151SAPE  H18R16732   1.498   4.039   8.228  0.2940  2.0605  0.7069
  151SAPE  H18S16733   1.431   4.191   8.184 -2.8558 -0.2455 -1.6187
  151SAPE  C21916734   1.543   4.094   8.021  0.0703  0.4890  0.1174
  151SAPE  H19R16735   1.596   3.997   8.009 -0.3689  0.0647  1.4929
  151SAPE  H19S16736   1.620   4.169   8.045  0.5181 -0.4488  1.6635
  151SAPE  C22016737   1.492   4.149   7.887  0.8341  0.4502  0.1417
  151SAPE  H20R16738   1.566   4.129   7.807  0.6775  0.4865 -0.0114
  151SAPE  H20S16739   1.397   4.101   7.854  1.3990 -0.1501 -0.6166
  151SAPE  H20T16740   1.477   4.258   7.907  0.0353 -0.1091  2.8330
  151SAPE   C3316741   1.246   4.625   7.161  0.1194 -0.0695  0.2129
  151SAPE   H3X16742   1.347   4.638   7.117  0.8197 -1.1785  1.4390
  151SAPE   H3Y16743   1.230   4.516   7.176 -0.7342 -0.0935 -0.8112
  151SAPE   C3416744   1.245   4.699   7.295  0.2803  0.7128 -0.0333
  151SAPE   H4X16745   1.145   4.688   7.342  1.0414  0.8024  1.6722
  151SAPE   H4Y16746   1.259   4.806   7.269  1.6231  0.8284  1.0992
  151SAPE   C3516747   1.358   4.665   7.395 -0.7021  0.0873 -0.3588
  151SAPE   H5X16748   1.449   4.687   7.335  0.6596 -1.3963  1.1596
  151SAPE   H5Y16749   1.359   4.556   7.415 -0.8618  0.4313  1.6056
  151SAPE   C3616750   1.356   4.757   7.514  0.4917 -0.3217 -0.1217
  151SAPE   H6X16751   1.261   4.741   7.570  0.8959 -1.0871  0.3428
  151SAPE   H6Y16752   1.353   4.860   7.472 -2.2223 -0.1264  0.4385
  151SAPE   C3716753   1.471   4.709   7.602 -0.4465 -0.2942 -0.1204
  151SAPE   H7X16754   1.489   4.792   7.673  0.0501 -1.7354  1.4619
  151SAPE   H7Y16755   1.564   4.699   7.542  0.1406 -0.3708  0.7927
  151SAPE   C3816756   1.445   4.580   7.675 -0.0616  0.7615 -0.1841
  151SAPE   H8X16757   1.421   4.500   7.602 -0.4309 -1.0345  1.8477
  151SAPE   H8Y16758   1.360   4.598   7.745  1.0087  2.1740  0.7943
  151SAPE   C3916759   1.576   4.541   7.751  0.2878  0.1720 -0.4795
  151SAPE   H9X16760   1.658   4.610   7.724  0.8643 -0.1565  0.3921
  151SAPE   H9Y16761   1.589   4.435   7.720 -1.2217 -0.1702 -0.0008
  151SAPE  C31016762   1.547   4.552   7.901 -0.1039  0.2379  0.4341
  151SAPE  H10X16763   1.452   4.498   7.920 -0.3996  0.5408 -0.1341
  151SAPE  H10Y16764   1.537   4.662   7.918 -2.4322  0.0658  0.3527
  151SAPE  C31116765   1.664   4.506   7.985  0.2290 -0.8249 -0.7163
  151SAPE  H11X16766   1.756   4.538   7.932 -0.1450  1.4270 -0.0735
  151SAPE  H11Y16767   1.662   4.396   7.995 -0.5500 -1.0994 -3.4131
  151SAPE  C31216768   1.664   4.558   8.129 -0.2587 -0.5335  0.5049
  151SAPE  H12X16769   1.564   4.529   8.169 -1.1036  0.4715 -0.8258
  151SAPE  H12Y16770   1.685   4.666   8.139  1.9465 -0.7063 -1.6985
  151SAPE  C31316771   1.764   4.487   8.228 -0.6310 -0.5549  0.0476
  151SAPE  H13X16772   1.749   4.510   8.335  1.1052 -0.8772  0.3797
  151SAPE  H13Y16773   1.865   4.511   8.188 -1.1313  1.0713 -0.2765
  151SAPE  C31416774   1.745   4.340   8.230 -0.0983 -0.3668  0.6376
  151SAPE  H14X16775   1.794   4.306   8.137  2.0264  3.6366  0.1638
  151SAPE  H14Y16776   1.638   4.309   8.223 -0.2204  0.4066 -1.2472
  151SAPE  C31516777   1.799   4.266   8.359  0.0303 -0.3909  0.4906
  151SAPE  H15X16778   1.773   4.158   8.357 -0.1075 -0.3749  1.5625
  151SAPE  H15Y16779   1.757   4.320   8.446  0.6848  1.4363 -0.2919
  151SAPE  C31616780   1.957   4.271   8.354  0.0920  0.2024  0.5379
  151SAPE  H16X16781   1.990   4.329   8.265  0.3079 -1.3022 -0.3777
  151SAPE  H16Y16782   1.988   4.164   8.352 -0.4804  0.0133  1.5878
  151SAPE  C31716783   2.025   4.332   8.473 -0.0020  0.0522 -0.2057
  151SAPE  H17X16784   2.130   4.295   8.473  0.8267  2.3010 -1.1061
  151SAPE  H17Y16785   1.991   4.289   8.569  0.8671 -2.2567 -0.9125
  151SAPE  C31816786   2.027   4.488   8.481  0.7021 -0.9207  0.3995
  151SAPE  H18X16787   2.076   4.538   8.395 -1.4589  0.1653 -0.2380
  151SAPE  H18Y16788   2.078   4.529   8.571  1.1636  0.7733 -0.6008
  151SAPE  H18Z16789   1.923   4.524   8.491  0.6807 -0.9016  0.1138
  152SAPE     N16790   4.849   1.372   6.391  0.0601  0.3052 -0.6182
  152SAPE   HN116791   4.760   1.409   6.432 -0.8401 -0.9201 -1.4641
  152SAPE   HN216792   4.889   1.312   6.466  0.0609  2.3558  1.1053
  152SAPE   HN316793   4.913   1.453   6.378 -0.0583  0.1783 -2.0086
  152SAPE   C1216794   4.818   1.300   6.261 -0.6190 -0.1063  0.8269
  152SAPE  H12A16795   4.825   1.377   6.181 -0.1764 -1.9068 -0.9184
  152SAPE  H12B16796   4.719   1.250   6.262 -0.6734 -0.0520 -0.5240
  152SAPE   C1116797   4.927   1.192   6.227  0.2186  0.0535  0.2875
  152SAPE  H11A16798   4.902   1.140   6.132 -0.0806 -1.0646  0.9736
  152SAPE  H11B16799   4.917   1.111   6.303 -0.1742  0.1505  0.3388
  152SAPE     P16800   5.170   1.140   6.206 -0.3232 -0.0996  0.4972
  152SAPE   O1316801   5.120   1.038   6.109  0.4380  0.2439 -0.1872
  152SAPE   O1416802   5.298   1.206   6.175 -0.5150 -0.5339  0.0951
  152SAPE   O1216803   5.060   1.253   6.223  0.1109 -0.1813  0.1329
  152SAPE   O1116804   5.166   1.083   6.347 -0.4464  0.2383 -0.5211
  152SAPE    C116805   5.199   1.162   6.458  0.0781 -0.2443 -0.8500
  152SAPE    HA16806   5.301   1.204   6.446  0.0583 -0.6993 -2.7287
  152SAPE    HB16807   5.124   1.244   6.463 -1.3337 -1.4370 -1.7551
  152SAPE    C216808   5.219   1.085   6.587  0.8165 -0.1823  0.3659
  152SAPE    HS16809   5.294   1.007   6.562 -0.1406 -0.7319 -0.8530
  152SAPE   O2116810   5.092   1.030   6.628 -0.2962 -0.5330  0.1671
  152SAPE   C2116811   5.106   0.915   6.704  0.2953  0.5044 -0.4497
  152SAPE   O2216812   5.214   0.861   6.718 -0.4523  0.4198 -0.0050
  152SAPE   C2216813   4.971   0.870   6.769  0.3283  0.7348  0.3529
  152SAPE   H2R16814   4.888   0.932   6.730 -1.4746 -2.3556 -0.8249
  152SAPE   H2S16815   4.954   0.769   6.728 -1.7184  1.0109  0.4945
  152SAPE    C316816   5.268   1.188   6.694  0.4471 -0.4226  0.0812
  152SAPE    HX16817   5.206   1.280   6.703  1.6397  0.4098  0.0442
  152SAPE    HY16818   5.359   1.235   6.649  0.0038 -0.5133 -0.9138
  152SAPE   O3116819   5.293   1.124   6.824  0.5789  0.3765  0.0321
  152SAPE   C3116820   5.405   1.048   6.837 -0.2168 -0.1290 -0.1892
  152SAPE   O3216821   5.499   1.044   6.761 -0.5863 -0.3257  0.0111
  152SAPE   C3216822   5.396   0.976   6.970  0.1848  0.8013 -0.6869
  152SAPE   H2X16823   5.292   0.938   6.983 -0.3107  2.0734 -0.8224
  152SAPE   H2Y16824   5.420   1.049   7.050  0.7399  1.9771 -1.9029
  152SAPE   C2316825   4.981   0.876   6.915 -0.6807 -0.1452  0.3858
  152SAPE   H3R16826   5.059   0.824   6.974 -1.1152 -2.4948 -1.0419
  152SAPE   H3S16827   4.891   0.827   6.959 -2.2952  1.1719 -1.3604
  152SAPE   C2416828   4.974   1.018   6.980 -0.2882  0.1888 -1.2132
  152SAPE   H4R16829   4.878   1.057   6.942  0.5100  0.8960 -2.5539
  152SAPE   H4S16830   5.054   1.086   6.942  1.0323 -0.8502 -0.3428
  152SAPE   C2516831   4.950   1.007   7.127 -0.1573 -0.1897 -0.4490
  152SAPE   H5R16832   4.864   0.943   7.151 -0.7242  0.6652 -0.1563
  152SAPE   C2616833   5.032   1.058   7.221 -0.6370 -0.0681  0.5249
  152SAPE   H6R16834   4.997   1.051   7.325 -1.6060  3.3611  0.4854
  152SAPE   C2716835   5.158   1.128   7.193 -0.2889 -0.0927  1.3519
  152SAPE   H7R16836   5.200   1.111   7.092  0.7739 -0.4145  1.8467
  152SAPE   H7S16837   5.234   1.086   7.262  0.4968 -1.6333 -0.4182
  152SAPE   C2816838   5.150   1.279   7.215 -0.2919  0.7282  0.0029
  152SAPE   H8R16839   5.146   1.331   7.119  0.0591 -0.0192 -0.4219
  152SAPE   C2916840   5.150   1.351   7.331 -0.0572  0.4710  0.0293
  152SAPE   H9R16841   5.162   1.460   7.335  1.3769  0.3934 -1.3009
  152SAPE  C21016842   5.156   1.294   7.467 -0.0823  0.2924  0.0466
  152SAPE  H10R16843   5.224   1.361   7.525 -1.6891  1.6372  0.4124
  152SAPE  H10S16844   5.213   1.199   7.461  1.2073  1.1022 -0.9017
  152SAPE  C21116845   5.027   1.268   7.536 -0.1023 -1.6802 -0.4509
  152SAPE  H11R16846   4.956   1.205   7.481 -2.3150  0.8789 -0.6514
  152SAPE  C21216847   4.987   1.325   7.651 -0.1948  0.6764  0.1622
  152SAPE  H12R16848   4.881   1.309   7.676  0.4882 -1.7846  1.6756
  152SAPE  C21316849   5.049   1.430   7.739  0.7255 -0.1738 -0.4059
  152SAPE  H13R16850   4.970   1.480   7.799  2.5007  1.7096  0.4164
  152SAPE  H13S16851   5.104   1.506   7.679  0.8185  0.2325  0.1899
  152SAPE  C21416852   5.149   1.356   7.826 -0.1585 -0.0450 -0.3430
  152SAPE  H14R16853   5.231   1.306   7.772 -0.8974  1.0020 -2.4830
  152SAPE  C21516854   5.155   1.364   7.959  0.3017  0.0380  0.6228
  152SAPE  H15R16855   5.233   1.300   8.004  1.4518  1.6279  0.9179
  152SAPE  C21616856   5.051   1.434   8.054 -0.6185 -0.7483 -0.3129
  152SAPE  H16R16857   4.950   1.401   8.024 -0.8804  0.1315 -0.4031
  152SAPE  H16S16858   5.070   1.542   8.036 -0.2835 -0.5204  1.3495
  152SAPE  C21716859   5.073   1.412   8.203 -0.0349  0.1086 -0.5338
  152SAPE  H17R16860   5.039   1.308   8.223 -2.2835  0.7756 -0.7732
  152SAPE  H17S16861   4.999   1.481   8.247  0.4937  0.3913 -0.0800
  152SAPE  C21816862   5.206   1.442   8.268  0.2697 -0.1570  0.9059
  152SAPE  H18R16863   5.260   1.526   8.218  1.2095 -0.4398  1.4198
  152SAPE  H18S16864   5.277   1.362   8.235  1.1258  1.4417 -1.2740
  152SAPE  C21916865   5.209   1.438   8.420  0.1165  0.4019  0.4631
  152SAPE  H19R16866   5.146   1.354   8.455 -0.7664  1.1540  0.6939
  152SAPE  H19S16867   5.163   1.527   8.468 -3.5717 -0.4007 -1.3903
  152SAPE  C22016868   5.352   1.418   8.476  0.0361 -0.1462  0.7808
  152SAPE  H20R16869   5.390   1.317   8.450  1.9013  1.0555 -1.3949
  152SAPE  H20S16870   5.337   1.432   8.585 -0.4040 -0.4969  0.7650
  152SAPE  H20T16871   5.419   1.502   8.447 -4.2105  3.6727  1.4956
  152SAPE   C3316872   5.487   0.851   6.963  0.4872 -0.2420 -0.2569
  152SAPE   H3X16873   5.594   0.878   6.982  0.5519  0.2031 -1.2154
  152SAPE   H3Y16874   5.482   0.805   6.862 -1.2981  1.2079 -0.8545
  152SAPE   C3416875   5.455   0.749   7.082  0.9988 -0.5299  0.0296
  152SAPE   H4X16876   5.535   0.672   7.085  0.0234 -1.6239 -1.0313
  152SAPE   H4Y16877   5.365   0.692   7.049  0.4451  0.2440  0.1820
  152SAPE   C3516878   5.440   0.805   7.228 -1.0522 -0.1048 -0.5324
  152SAPE   H5X16879   5.353   0.873   7.212 -0.1567  0.9487 -0.9504
  152SAPE   H5Y16880   5.525   0.868   7.262 -0.1768  0.2682 -3.3212
  152SAPE   C3616881   5.399   0.697   7.328  0.0724  0.1206 -0.5453
  152SAPE   H6X16882   5.442   0.596   7.314 -0.1855  0.2190 -2.1021
  152SAPE   H6Y16883   5.288   0.687   7.323  0.0601 -0.6848  1.0022
  152SAPE   C3716884   5.444   0.736   7.474  0.1872  0.1322  0.4616
  152SAPE   H7X16885   5.389   0.828   7.504 -1.2651 -0.7813  0.6946
  152SAPE   H7Y16886   5.552   0.754   7.490  0.4094  1.3057 -2.1450
  152SAPE   C3816887   5.396   0.624   7.566  0.6659 -0.2495  0.4931
  152SAPE   H8X16888   5.435   0.526   7.532  1.3189  0.4335 -0.7694
  152SAPE   H8Y16889   5.286   0.629   7.553  0.7226 -0.1463  0.0529
  152SAPE   C3916890   5.430   0.645   7.711  0.5661 -0.6006 -0.1595
  152SAPE   H9X16891   5.502   0.728   7.724  0.5308 -0.4943 -0.6347
  152SAPE   H9Y16892   5.460   0.552   7.764 -0.1311 -0.9963 -0.4587
  152SAPE  C31016893   5.302   0.673   7.793 -0.6760 -0.3325 -0.1855
  152SAPE  H10X16894   5.218   0.611   7.755 -1.2945  0.5198 -0.2304
  152SAPE  H10Y16895   5.281   0.781   7.773  0.5579 -0.5162 -2.7563
  152SAPE  C31116896   5.307   0.641   7.946 -1.0364 -0.1497  0.9768
  152SAPE  H11X16897   5.378   0.711   7.995  0.2909  0.0797 -1.2123
  152SAPE  H11Y16898   5.348   0.539   7.963  0.9532  0.8167  2.1715
  152SAPE  C31216899   5.170   0.657   8.007  0.0676 -0.2726 -0.6183
  152SAPE  H12X16900   5.088   0.595   7.966  1.7240 -0.6733 -3.4642
  152SAPE  H12Y16901   5.137   0.763   8.019 -2.7116 -1.1894  0.3353
  152SAPE  C31316902   5.192   0.615   8.158  1.2728 -0.1833  0.5094
  152SAPE  H13X16903   5.269   0.690   8.186  2.8807 -1.2377 -0.8975
  152SAPE  H13Y16904   5.232   0.511   8.149  2.7726  0.2777  1.5929
  152SAPE  C31416905   5.067   0.627   8.254  0.0859 -0.3545 -0.4662
  152SAPE  H14X16906   4.974   0.595   8.204  0.0528 -0.5202 -0.2975
  152SAPE  H14Y16907   5.060   0.735   8.282 -0.7136 -0.3983 -0.4894
  152SAPE  C31516908   5.091   0.541   8.381  0.1688  0.4859  0.1214
  152SAPE  H15X16909   5.194   0.543   8.422  0.0377 -3.4258  0.8678
  152SAPE  H15Y16910   5.085   0.433   8.354 -1.8371  0.3403  1.0141
  152SAPE  C31616911   4.978   0.570   8.479 -0.3820 -0.2237  1.2817
  152SAPE  H16X16912   4.887   0.593   8.419  0.3880 -0.3396  0.0574
  152SAPE  H16Y16913   5.014   0.659   8.534  1.6848  0.4309 -1.0768
  152SAPE  C31716914   4.941   0.454   8.576 -0.6641  0.3008 -0.2588
  152SAPE  H17X16915   4.903   0.370   8.514  0.8626  1.2124 -2.4958
  152SAPE  H17Y16916   4.844   0.469   8.629 -0.8320 -2.6232  0.3081
  152SAPE  C31816917   5.058   0.413   8.666 -0.2139  0.7838  0.2842
  152SAPE  H18X16918   5.144   0.380   8.604 -0.4365  2.4702 -0.9417
  152SAPE  H18Y16919   5.026   0.322   8.721  1.3071 -0.2637 -0.5125
  152SAPE  H18Z16920   5.096   0.491   8.735 -0.2610  1.3590 -0.3472
  153SAPE     N16921   2.291   0.997   6.192  0.3468 -0.4040  0.1037
  153SAPE   HN116922   2.339   1.087   6.213 -1.1082  0.0694  1.4307
  153SAPE   HN216923   2.368   0.945   6.145  2.6838  1.6119  1.5531
  153SAPE   HN316924   2.215   1.028   6.127  0.7537 -0.1025 -0.2363
  153SAPE   C1216925   2.242   0.922   6.314 -0.4560 -0.3641  0.2670
  153SAPE  H12A16926   2.324   0.889   6.382  0.5352 -0.3994 -0.9188
  153SAPE  H12B16927   2.183   0.837   6.274 -2.2736  0.6372  0.7690
  153SAPE   C1116928   2.147   1.011   6.393 -0.4046  0.0340  0.6416
  153SAPE  H11A16929   2.197   1.106   6.420 -0.2502  0.6816 -1.7570
  153SAPE  H11B16930   2.127   0.953   6.486  3.2513 -2.2769  0.1114
  153SAPE     P16931   1.900   1.096   6.411  0.2810 -0.3451  0.0781
  153SAPE   O1316932   1.790   1.152   6.327  0.1559  0.6838 -0.1347
  153SAPE   O1416933   1.865   0.991   6.506  0.0674 -0.6014 -0.1398
  153SAPE   O1216934   2.021   1.042   6.321  0.3533  0.1407  0.2753
  153SAPE   O1116935   1.967   1.218   6.481 -0.1414 -0.0187 -0.4725
  153SAPE    C116936   2.034   1.329   6.411 -0.4535 -0.3778  0.8458
  153SAPE    HA16937   2.116   1.289   6.349 -1.3118  0.8296 -1.1009
  153SAPE    HB16938   1.962   1.390   6.352  0.2952 -0.2234  0.0890
  153SAPE    C216939   2.083   1.432   6.522  0.6124 -0.1567  0.4250
  153SAPE    HS16940   2.103   1.522   6.460  1.6344 -0.6500  0.0164
  153SAPE   O2116941   2.212   1.388   6.572  0.4147  0.0691 -1.1055
  153SAPE   C2116942   2.281   1.464   6.651  1.1859  0.1217 -0.6786
  153SAPE   O2216943   2.275   1.587   6.666  0.4508  0.0016 -0.5063
  153SAPE   C2216944   2.368   1.371   6.737  0.5480 -0.4434 -0.0671
  153SAPE   H2R16945   2.300   1.302   6.791  0.8750 -2.0363 -1.6386
  153SAPE   H2S16946   2.421   1.307   6.662 -0.5665 -0.4808 -0.8300
  153SAPE    C316947   1.974   1.450   6.632 -0.2438  0.0064  0.1103
  153SAPE    HX16948   1.966   1.354   6.687 -0.1109  1.0242  1.9667
  153SAPE    HY16949   1.880   1.478   6.578  0.1762  0.8179 -0.2093
  153SAPE   O3116950   2.004   1.551   6.735 -0.0150  0.6439  0.6499
  153SAPE   C3116951   1.990   1.675   6.687 -0.2468 -0.0800 -0.1008
  153SAPE   O3216952   1.946   1.711   6.575  0.6269  0.0579 -0.5472
  153SAPE   C3216953   2.046   1.773   6.788 -0.1144 -0.3864 -0.3821
  153SAPE   H2X16954   2.067   1.869   6.736  1.0357 -0.4679 -0.0740
  153SAPE   H2Y16955   2.127   1.723   6.845 -1.4128 -2.9817 -0.7410
  153SAPE   C2316956   2.488   1.439   6.814  0.2627 -0.6540  0.0781
  153SAPE   H3R16957   2.511   1.537   6.767 -1.9664  0.0754  0.4684
  153SAPE   H3S16958   2.566   1.361   6.798 -0.1343 -1.1697  0.6184
  153SAPE   C2416959   2.465   1.452   6.965  0.6989  0.4848 -0.4213
  153SAPE   H4R16960   2.563   1.478   7.010 -0.8409  2.9062  1.6898
  153SAPE   H4S16961   2.429   1.352   6.997  3.9800 -1.7420 -3.3352
  153SAPE   C2516962   2.358   1.562   6.980 -0.4897  0.2671  0.4709
  153SAPE   H5R16963   2.382   1.661   6.938  2.8180 -1.3409 -1.6211
  153SAPE   C2616964   2.238   1.539   7.037 -0.9734 -0.8806  0.4792
  153SAPE   H6R16965   2.181   1.630   7.057 -0.5114 -0.6816  0.9238
  153SAPE   C2716966   2.179   1.413   7.100  0.6108 -0.2729  0.6925
  153SAPE   H7R16967   2.243   1.372   7.181  1.0480  1.6714  1.3509
  153SAPE   H7S16968   2.186   1.330   7.026  0.4080  1.4937 -1.3545
  153SAPE   C2816969   2.033   1.422   7.139 -0.7108  0.2553  0.3559
  153SAPE   H8R16970   1.963   1.402   7.056  1.6877 -0.9355 -1.4247
  153SAPE   C2916971   1.982   1.442   7.261  0.2390  0.4208 -0.3904
  153SAPE   H9R16972   1.873   1.453   7.268  0.0857  0.3958 -2.3722
  153SAPE  C21016973   2.051   1.470   7.389  0.1664 -0.2414 -0.3099
  153SAPE  H10R16974   2.119   1.389   7.423  0.8292  1.7503  3.4521
  153SAPE  H10S16975   1.969   1.465   7.464 -0.3475 -1.7635 -0.9503
  153SAPE  C21116976   2.095   1.607   7.403  0.3789 -0.3410  0.1331
  153SAPE  H11R16977   2.142   1.651   7.314 -0.4092  0.0334 -0.1028
  153SAPE  C21216978   2.094   1.681   7.516 -0.4034  0.4409 -0.6427
  153SAPE  H12R16979   2.138   1.782   7.513  1.3765 -0.3339 -0.6108
  153SAPE  C21316980   2.044   1.636   7.652 -0.5973  0.1216  0.1871
  153SAPE  H13R16981   2.047   1.525   7.654 -1.5643  0.1166  2.9943
  153SAPE  H13S16982   1.936   1.664   7.655 -1.4625 -2.8107 -1.1070
  153SAPE  C21416983   2.123   1.695   7.764 -0.0853  0.5415 -0.1990
  153SAPE  H14R16984   2.212   1.752   7.735  1.2601 -1.5914 -0.3643
  153SAPE  C21516985   2.098   1.677   7.895  0.4785 -0.4895 -0.1725
  153SAPE  H15R16986   2.166   1.712   7.974  1.7172  0.0253 -1.4543
  153SAPE  C21616987   1.986   1.585   7.949 -0.5559  0.0911 -0.4606
  153SAPE  H16R16988   2.026   1.490   7.992 -1.8085  0.5561  1.7847
  153SAPE  H16S16989   1.908   1.570   7.871 -1.8183  0.6543  0.6757
  153SAPE  C21716990   1.913   1.660   8.058 -0.5762 -0.2294  0.1018
  153SAPE  H17R16991   1.823   1.601   8.084 -0.7191 -0.4879 -0.9631
  153SAPE  H17S16992   1.870   1.756   8.022  0.9873 -0.1561 -1.6222
  153SAPE  C21816993   1.990   1.690   8.192  0.3330  0.2608  0.1767
  153SAPE  H18R16994   2.073   1.762   8.171 -0.7126  1.9150  1.5525
  153SAPE  H18S16995   2.038   1.603   8.241  0.8892  1.0183  1.0069
  153SAPE  C21916996   1.907   1.771   8.293  0.4499 -1.1155 -1.3183
  153SAPE  H19R16997   1.877   1.859   8.233 -1.9567 -0.0731  1.3289
  153SAPE  H19S16998   1.968   1.800   8.381  1.5586  1.3718 -2.8722
  153SAPE  C22016999   1.773   1.705   8.343 -0.2441 -0.0102 -0.0544
  153SAPE  H20R17000   1.734   1.773   8.422 -1.1213  0.2327 -0.6826
  153SAPE  H20S17001   1.795   1.607   8.391 -2.3523  0.2465  1.5708
  153SAPE  H20T17002   1.701   1.704   8.258  1.3244  0.1442 -1.3945
  153SAPE   C3317003   1.939   1.804   6.902 -0.2774  0.1286  0.4302
  153SAPE   H3X17004   1.897   1.712   6.948  0.4559 -0.4071  0.0311
  153SAPE   H3Y17005   1.851   1.856   6.856  0.1452 -1.0341 -1.7540
  153SAPE   C3417006   1.987   1.881   7.010 -0.7591 -0.4965 -0.3344
  153SAPE   H4X17007   2.006   1.987   6.984 -1.3442  1.0770  5.0144
  153SAPE   H4Y17008   2.084   1.837   7.042 -0.6490  0.6314  0.9313
  153SAPE   C3517009   1.889   1.887   7.130  0.1044  0.3253  0.2062
  153SAPE   H5X17010   1.842   1.788   7.147 -0.0715  0.1505 -1.2500
  153SAPE   H5Y17011   1.812   1.957   7.092 -0.3048 -0.3870 -0.2923
  153SAPE   C3617012   1.933   1.961   7.257 -0.3057 -0.0964  0.1523
  153SAPE   H6X17013   1.923   2.069   7.232  1.0396 -0.2122 -0.9430
  153SAPE   H6Y17014   2.043   1.945   7.265 -0.1485  0.1661 -1.3742
  153SAPE   C3717015   1.855   1.945   7.391 -0.1014 -0.3778 -0.6888
  153SAPE   H7X17016   1.897   1.853   7.437  1.4778  1.3895  1.5139
  153SAPE   H7Y17017   1.749   1.936   7.357 -0.6680 -0.5443  1.0612
  153SAPE   C3817018   1.873   2.060   7.491  0.2698  1.0133 -0.1645
  153SAPE   H8X17019   1.791   2.054   7.566  2.8639 -0.5081  2.6598
  153SAPE   H8Y17020   1.848   2.152   7.433 -0.9106 -0.8164 -2.6731
  153SAPE   C3917021   2.010   2.053   7.546  0.0096 -0.6337 -0.2858
  153SAPE   H9X17022   2.084   2.091   7.473 -1.1470 -0.1157 -1.2086
  153SAPE   H9Y17023   2.028   1.948   7.580 -2.7648 -0.9589  0.2866
  153SAPE  C31017024   2.029   2.146   7.671  0.4490 -0.4134  0.4583
  153SAPE  H10X17025   2.038   2.249   7.631 -2.0691 -0.7675 -1.1640
  153SAPE  H10Y17026   2.126   2.122   7.719  0.6510  0.4476  0.4903
  153SAPE  C31117027   1.918   2.145   7.781 -0.7725  0.1314  0.2456
  153SAPE  H11X17028   1.896   2.040   7.809 -1.1974  0.3903  0.9076
  153SAPE  H11Y17029   1.822   2.188   7.744  0.2452  2.8550  0.6306
  153SAPE  C31217030   1.949   2.233   7.903 -0.2580  0.0094 -0.1222
  153SAPE  H12X17031   1.988   2.327   7.858 -0.1617  2.3582  4.6145
  153SAPE  H12Y17032   2.036   2.191   7.958  0.3755 -0.3128 -1.3412
  153SAPE  C31317033   1.834   2.260   7.991 -0.1763 -0.5162 -0.1944
  153SAPE  H13X17034   1.759   2.312   7.927 -0.4665 -0.1853  0.4172
  153SAPE  H13Y17035   1.852   2.312   8.087 -0.7877 -2.5601  1.0454
  153SAPE  C31417036   1.762   2.141   8.043 -0.5253  0.2973  0.5544
  153SAPE  H14X17037   1.825   2.054   8.072 -1.4599 -0.4049  0.5044
  153SAPE  H14Y17038   1.700   2.098   7.962  0.6803  0.1708 -0.3119
  153SAPE  C31517039   1.682   2.164   8.173  0.7398 -0.4865 -0.2859
  153SAPE  H15X17040   1.614   2.075   8.173  0.1620 -0.0482 -0.7274
  153SAPE  H15Y17041   1.618   2.253   8.154  0.6566 -0.5429 -0.2733
  153SAPE  C31617042   1.765   2.172   8.303 -0.2183 -0.6635 -0.0436
  153SAPE  H16X17043   1.842   2.250   8.286 -0.9789  0.6536  2.2924
  153SAPE  H16Y17044   1.809   2.073   8.325  0.4311 -0.2318  0.6200
  153SAPE  C31717045   1.684   2.200   8.435 -0.1639 -0.1468 -0.5092
  153SAPE  H17X17046   1.620   2.289   8.419 -1.4165 -0.8288  0.5634
  153SAPE  H17Y17047   1.754   2.225   8.517 -0.0329  0.7584 -0.8875
  153SAPE  C31817048   1.592   2.086   8.474  0.7060  0.2605 -0.7953
  153SAPE  H18X17049   1.532   2.103   8.566 -0.7681 -1.5627 -1.3857
  153SAPE  H18Y17050   1.635   1.984   8.475 -1.8426 -0.8552  2.1381
  153SAPE  H18Z17051   1.519   2.080   8.390  2.6423 -0.9560 -2.4392
  154SAPE     N17052   0.109   6.754   5.807  0.6043 -0.5363 -0.4779
  154SAPE   HN117053   0.133   6.712   5.899  0.7999 -1.1615 -0.8058
  154SAPE   HN217054   0.176   6.706   5.744 -1.2255 -3.1558 -0.5134
  154SAPE   HN317055   0.127   6.856   5.801  2.3722 -0.8929 -1.9011
  154SAPE   C1217056  -0.032   6.713   5.777  0.6997  0.2445 -0.6222
  154SAPE  H12A17057  -0.030   6.604   5.759  0.3209 -0.1441  1.5712
  154SAPE  H12B17058  -0.070   6.760   5.684  1.0973  2.3110  0.2274
  154SAPE   C1117059  -0.131   6.742   5.886  0.7525  0.5289 -0.3656
  154SAPE  H11A17060  -0.228   6.690   5.870  0.0770  1.6391  0.0680
  154SAPE  H11B17061  -0.151   6.851   5.885  1.4008  0.6532 -1.4057
  154SAPE     P17062  -0.128   6.594   6.112 -0.0114  0.3874  0.4190
  154SAPE   O1317063  -0.276   6.576   6.083 -0.1024  0.2081  0.0554
  154SAPE   O1417064  -0.055   6.464   6.110 -0.4704  0.3284  0.1614
  154SAPE   O1217065  -0.066   6.700   6.009 -0.0962 -0.1657  0.0869
  154SAPE   O1117066  -0.092   6.655   6.248  0.1651 -0.0887 -0.5427
  154SAPE    C117067  -0.103   6.805   6.257  0.4245  0.3213  1.1075
  154SAPE    HA17068  -0.016   6.855   6.210 -0.3655  0.1683 -0.5264
  154SAPE    HB17069  -0.198   6.843   6.215  1.6071  2.7427  0.5613
  154SAPE    C217070  -0.105   6.856   6.412  0.1752 -0.6170 -0.0679
  154SAPE    HS17071  -0.123   6.965   6.403 -0.2978 -0.8644 -2.2615
  154SAPE   O2117072   0.021   6.816   6.467 -0.0275 -0.9914 -0.8577
  154SAPE   C2117073   0.067   6.899   6.563  0.1552 -0.2700 -0.0520
  154SAPE   O2217074   0.008   6.989   6.611 -0.0088  0.2167  0.5438
  154SAPE   C2217075   0.207   6.859   6.608 -0.0848  0.5107  0.0660
  154SAPE   H2R17076   0.211   6.752   6.634  0.8101  0.3352 -0.7435
  154SAPE   H2S17077   0.279   6.873   6.524  2.0691  1.3315  1.9853
  154SAPE    C317078  -0.222   6.788   6.492 -0.0295 -0.0099  0.3817
  154SAPE    HX17079  -0.181   6.687   6.514 -0.6094 -0.3182  0.0729
  154SAPE    HY17080  -0.309   6.770   6.425 -0.0169 -1.5439  0.7441
  154SAPE   O3117081  -0.269   6.848   6.612 -0.0259 -0.2205  0.5219
  154SAPE   C3117082  -0.338   6.951   6.618  0.0244 -0.4596 -0.4240
  154SAPE   O3217083  -0.387   7.015   6.524 -0.0080 -0.1793  0.5823
  154SAPE   C3217084  -0.342   6.999   6.766  0.0517  0.1350 -0.0645
  154SAPE   H2X17085  -0.238   6.990   6.805  0.0761  2.5773  0.4945
  154SAPE   H2Y17086  -0.410   6.926   6.815 -0.4498  1.0355  0.5893
  154SAPE   C2317087   0.257   6.946   6.725 -0.8493 -0.7420 -0.2185
  154SAPE   H3R17088   0.182   6.960   6.805 -0.6678  1.6643 -0.4358
  154SAPE   H3S17089   0.271   7.045   6.678  1.0973 -0.1841  1.4732
  154SAPE   C2417090   0.392   6.895   6.776 -0.5296  0.6985  0.5743
  154SAPE   H4R17091   0.442   6.987   6.813  2.1961 -0.8947  0.9608
  154SAPE   H4S17092   0.445   6.860   6.685  0.1238 -1.6426  1.8325
  154SAPE   C2517093   0.389   6.789   6.883  0.7277  0.4787  0.4883
  154SAPE   H5R17094   0.374   6.687   6.844  0.3996  0.1689  1.4019
  154SAPE   C2617095   0.402   6.811   7.011 -0.3752 -0.7011  0.4027
  154SAPE   H6R17096   0.414   6.726   7.079  0.6034  0.4693  1.7162
  154SAPE   C2717097   0.433   6.943   7.079 -0.4467 -0.6136 -0.2956
  154SAPE   H7R17098   0.340   7.002   7.093 -0.4708 -0.2988 -1.6965
  154SAPE   H7S17099   0.495   7.001   7.007 -3.2367  4.2545  1.0141
  154SAPE   C2817100   0.518   6.943   7.203  0.1428  0.2830  0.0365
  154SAPE   H8R17101   0.626   6.930   7.188 -0.0105  0.0574 -0.8736
  154SAPE   C2917102   0.486   6.967   7.330  0.1071  0.7758  0.7887
  154SAPE   H9R17103   0.553   6.946   7.415  0.1260  0.1232  0.6079
  154SAPE  C21017104   0.346   7.001   7.386 -0.1717  0.6836  1.1272
  154SAPE  H10R17105   0.310   6.939   7.471  0.5085 -1.0621  0.1830
  154SAPE  H10S17106   0.270   6.975   7.310  1.0780 -1.7208  0.6421
  154SAPE  C21117107   0.339   7.140   7.425 -0.0946 -0.7906  0.2102
  154SAPE  H11R17108   0.291   7.208   7.353 -0.6851 -2.0298 -0.5697
  154SAPE  C21217109   0.378   7.189   7.543 -0.1300 -0.8136  0.0923
  154SAPE  H12R17110   0.353   7.294   7.563 -1.3368 -1.0090 -0.3345
  154SAPE  C21317111   0.439   7.115   7.657  0.1110 -0.2914  0.3782
  154SAPE  H13R17112   0.542   7.076   7.648 -0.3487 -1.5584  0.4694
  154SAPE  H13S17113   0.373   7.026   7.665 -0.4479  0.0822 -0.0390
  154SAPE  C21417114   0.420   7.203   7.783  0.8152 -0.5524 -0.5675
  154SAPE  H14R17115   0.449   7.308   7.767  1.1026 -0.9396 -2.8266
  154SAPE  C21517116   0.361   7.171   7.899 -0.1745  0.1000  0.1154
  154SAPE  H15R17117   0.353   7.261   7.962  1.2878  1.0270 -0.9790
  154SAPE  C21617118   0.299   7.042   7.956  0.0400  0.1765 -0.0425
  154SAPE  H16R17119   0.315   6.968   7.875 -0.0232 -0.1057  0.2029
  154SAPE  H16S17120   0.196   7.062   7.994  0.2027  3.0728 -0.9751
  154SAPE  C21717121   0.369   6.979   8.084 -0.4342  0.5033  0.6170
  154SAPE  H17R17122   0.472   6.960   8.047 -0.5356  2.3638 -0.7039
  154SAPE  H17S17123   0.319   6.881   8.098 -0.3958  0.2574 -0.9348
  154SAPE  C21817124   0.368   7.073   8.202  0.4162  0.1510  0.0211
  154SAPE  H18R17125   0.263   7.109   8.200  0.6454  0.8143 -0.2919
  154SAPE  H18S17126   0.408   7.177   8.190  1.3553 -0.3307 -1.1996
  154SAPE  C21917127   0.412   7.013   8.335  0.6089  0.0339 -0.5070
  154SAPE  H19R17128   0.364   6.915   8.355  0.9617  0.0571  0.5136
  154SAPE  H19S17129   0.365   7.072   8.417  0.8246  0.5221 -0.7380
  154SAPE  C22017130   0.567   7.002   8.362 -0.4577 -0.0602  0.0215
  154SAPE  H20R17131   0.627   6.957   8.280 -0.6021 -1.0629  0.4586
  154SAPE  H20S17132   0.592   6.943   8.453 -0.0556 -0.3707 -0.2856
  154SAPE  H20T17133   0.622   7.097   8.379  0.4189 -0.5911  0.2191
  154SAPE   C3317134  -0.397   7.144   6.778 -0.5536 -0.2391 -0.5245
  154SAPE   H3X17135  -0.501   7.146   6.740 -1.6482  1.1660  2.4126
  154SAPE   H3Y17136  -0.341   7.213   6.711 -1.8375  0.8374 -0.5136
  154SAPE   C3417137  -0.383   7.203   6.919  0.8522 -0.1086 -0.8745
  154SAPE   H4X17138  -0.281   7.207   6.963 -0.0250 -2.2441  1.4635
  154SAPE   H4Y17139  -0.440   7.129   6.980 -1.0723  0.4848 -1.9179
  154SAPE   C3517140  -0.449   7.340   6.935  0.2538 -0.3267 -0.2079
  154SAPE   H5X17141  -0.538   7.344   6.868  0.5201  0.4299 -0.5211
  154SAPE   H5Y17142  -0.375   7.412   6.895  0.6569 -0.8123 -0.3330
  154SAPE   C3617143  -0.494   7.361   7.076  0.1812 -0.0348 -0.3505
  154SAPE   H6X17144  -0.502   7.470   7.095 -0.4989 -0.4747  2.0126
  154SAPE   H6Y17145  -0.423   7.317   7.149 -0.5867  0.3512  0.6441
  154SAPE   C3717146  -0.628   7.291   7.119 -0.1489  0.1791 -0.1390
  154SAPE   H7X17147  -0.648   7.194   7.069  3.2137 -0.9944  0.6636
  154SAPE   H7Y17148  -0.711   7.353   7.079 -0.1841  0.7540  0.8112
  154SAPE   C3817149  -0.646   7.258   7.268 -0.1309 -0.6557  0.0370
  154SAPE   H8X17150  -0.577   7.181   7.309  0.5327  0.8312  1.7945
  154SAPE   H8Y17151  -0.748   7.212   7.275 -1.1853  1.5160 -0.7928
  154SAPE   C3917152  -0.646   7.384   7.362  0.0980  0.6362 -0.3187
  154SAPE   H9X17153  -0.715   7.463   7.323 -1.8635  0.4317  2.5949
  154SAPE   H9Y17154  -0.542   7.422   7.371  0.1161  0.2459  1.2496
  154SAPE  C31017155  -0.694   7.346   7.505 -0.0876 -0.0594 -0.4340
  154SAPE  H10X17156  -0.652   7.247   7.534 -0.0287  0.6678  2.0628
  154SAPE  H10Y17157  -0.805   7.350   7.503 -0.1368 -1.7152 -1.6801
  154SAPE  C31117158  -0.628   7.438   7.604  0.7421 -0.2295  0.3576
  154SAPE  H11X17159  -0.666   7.541   7.588  0.4137 -0.5140 -0.7586
  154SAPE  H11Y17160  -0.518   7.442   7.590  0.4693  0.8816 -1.5306
  154SAPE  C31217161  -0.656   7.382   7.746 -0.3437  0.6549 -0.4508
  154SAPE  H12X17162  -0.596   7.291   7.770  1.7498  1.5330 -2.2123
  154SAPE  H12Y17163  -0.765   7.361   7.757 -0.2209 -0.8237 -1.7074
  154SAPE  C31317164  -0.623   7.487   7.853 -0.0448 -0.6703 -0.1107
  154SAPE  H13X17165  -0.678   7.583   7.842 -0.7646 -0.8857  1.4222
  154SAPE  H13Y17166  -0.513   7.502   7.854 -0.3099  1.6711  2.8535
  154SAPE  C31417167  -0.647   7.434   7.996  0.4151  0.7974  0.0172
  154SAPE  H14X17168  -0.589   7.339   8.001  1.1662  1.3382  2.3291
  154SAPE  H14Y17169  -0.755   7.412   7.996  0.5833 -0.1364  1.8808
  154SAPE  C31517170  -0.613   7.534   8.102 -0.1759 -0.7658  0.6808
  154SAPE  H15X17171  -0.672   7.628   8.096  2.7683  1.0651 -0.4001
  154SAPE  H15Y17172  -0.507   7.565   8.089 -0.6011 -0.1430 -1.6117
  154SAPE  C31617173  -0.640   7.472   8.241  0.2617  0.3699 -0.6147
  154SAPE  H16X17174  -0.584   7.381   8.273 -0.8522  0.6324  2.2690
  154SAPE  H16Y17175  -0.744   7.443   8.267  0.4761 -0.1164 -0.2900
  154SAPE  C31717176  -0.606   7.577   8.356 -0.2307 -0.9424  0.6777
  154SAPE  H17X17177  -0.679   7.657   8.333  1.1317  0.1026 -0.1003
  154SAPE  H17Y17178  -0.502   7.610   8.336 -0.2489 -1.5940 -0.5026
  154SAPE  C31817179  -0.607   7.535   8.507  0.0037  0.0984  0.0845
  154SAPE  H18X17180  -0.527   7.458   8.516  1.9391  2.1386  0.7072
  154SAPE  H18Y17181  -0.709   7.502   8.537 -0.4990  0.6909 -0.9556
  154SAPE  H18Z17182  -0.578   7.617   8.576 -0.1961 -0.5681  0.9806
  155SAPE     N17183   6.410   0.738   6.551 -0.6353  0.6250  0.1054
  155SAPE   HN117184   6.470   0.653   6.561 -0.5849  0.5770 -0.5785
  155SAPE   HN217185   6.336   0.733   6.624 -0.3041 -1.8109  0.3225
  155SAPE   HN317186   6.367   0.726   6.458  2.4928  2.2044 -1.6297
  155SAPE   C1217187   6.482   0.862   6.544  0.0085  0.3898  0.1587
  155SAPE  H12A17188   6.537   0.887   6.638  2.3629  2.0430 -1.6134
  155SAPE  H12B17189   6.409   0.945   6.530  0.2476  0.3950 -1.0906
  155SAPE   C1117190   6.581   0.860   6.430 -0.1832 -0.2935 -0.6182
  155SAPE  H11A17191   6.523   0.848   6.336 -3.3374  2.4024  0.9097
  155SAPE  H11B17192   6.654   0.776   6.439  0.5195  0.3215 -0.5272
  155SAPE     P17193   6.812   0.995   6.426  0.7812  0.0108  0.0723
  155SAPE   O1317194   6.866   0.852   6.419 -0.2751 -0.4122  0.7209
  155SAPE   O1417195   6.854   1.090   6.325  0.1252 -0.5347 -0.2350
  155SAPE   O1217196   6.653   0.980   6.419 -0.0648 -0.3691 -0.7413
  155SAPE   O1117197   6.836   1.050   6.577  0.8350  0.1073  0.1814
  155SAPE    C117198   6.765   1.170   6.602  0.0500 -0.0674  1.0380
  155SAPE    HA17199   6.775   1.247   6.523  1.3256 -1.5435 -0.2658
  155SAPE    HB17200   6.655   1.153   6.603  0.2333 -1.3747  1.4984
  155SAPE    C217201   6.797   1.228   6.739 -0.9209 -0.4383  0.1088
  155SAPE    HS17202   6.904   1.256   6.739 -1.2122  0.7012  0.4159
  155SAPE   O2117203   6.761   1.145   6.848  0.4722 -0.0652  0.1825
  155SAPE   C2117204   6.858   1.059   6.893 -0.1835 -0.0462 -0.6062
  155SAPE   O2217205   6.963   1.027   6.834  0.4349 -0.1657  0.0195
  155SAPE   C2217206   6.820   1.017   7.032 -0.1462 -0.9348 -0.5464
  155SAPE   H2R17207   6.732   1.074   7.069  1.1220 -1.1744  3.0385
  155SAPE   H2S17208   6.797   0.909   7.029 -0.8383 -0.8004 -0.2352
  155SAPE    C317209   6.733   1.371   6.753 -0.2219  0.0790 -0.4359
  155SAPE    HX17210   6.629   1.364   6.790 -0.2540 -1.5536 -0.7923
  155SAPE    HY17211   6.734   1.426   6.656 -1.6059  1.6395  0.4166
  155SAPE   O3117212   6.816   1.455   6.843  1.0886  0.0625  0.5564
  155SAPE   C3117213   6.763   1.464   6.965  0.0744  0.4711 -0.8397
  155SAPE   O3217214   6.643   1.442   6.991  0.4035  0.3650  0.2289
  155SAPE   C3217215   6.873   1.500   7.060 -0.0114 -0.4386 -0.0033
  155SAPE   H2X17216   6.915   1.597   7.025  1.8035 -1.3415 -0.4161
  155SAPE   H2Y17217   6.951   1.424   7.041  3.9017  3.6338 -1.1295
  155SAPE   C2317218   6.940   1.035   7.138 -0.2878 -0.4687 -0.6889
  155SAPE   H3R17219   6.900   1.027   7.241  0.3852 -0.1262 -0.4025
  155SAPE   H3S17220   6.978   1.138   7.122 -1.0399 -0.1769 -0.6535
  155SAPE   C2417221   7.046   0.927   7.124 -0.9977  0.1258 -0.2454
  155SAPE   H4R17222   7.077   0.916   7.018 -2.1738  0.3241 -0.6215
  155SAPE   H4S17223   6.997   0.834   7.159 -2.9832  2.0519  2.3628
  155SAPE   C2517224   7.162   0.961   7.209 -0.1956  0.5932  0.1137
  155SAPE   H5R17225   7.255   0.984   7.155  0.4491 -1.2000  0.4391
  155SAPE   C2617226   7.176   0.939   7.340 -0.0630  0.5180 -0.2677
  155SAPE   H6R17227   7.266   0.969   7.394 -0.1265  1.6731 -0.8000
  155SAPE   C2717228   7.069   0.880   7.427  0.0820  0.5267 -0.2464
  155SAPE   H7R17229   7.106   0.789   7.479  2.0889  1.3330 -0.1814
  155SAPE   H7S17230   6.987   0.839   7.365 -0.6657 -0.7885  1.5571
  155SAPE   C2817231   7.015   0.976   7.530  0.6961 -0.1583 -0.3637
  155SAPE   H8R17232   6.953   1.053   7.482 -0.8418 -0.2413  1.4247
  155SAPE   C2917233   7.036   0.974   7.661 -0.2099  0.1449 -0.6112
  155SAPE   H9R17234   7.012   1.056   7.731 -1.1651 -0.1963 -0.5253
  155SAPE  C21017235   7.104   0.857   7.738 -0.0937 -0.4604 -0.2119
  155SAPE  H10R17236   7.133   0.888   7.841  0.2941  0.9663 -0.7406
  155SAPE  H10S17237   7.199   0.823   7.691 -1.4164 -2.7546 -1.3291
  155SAPE  C21117238   7.021   0.741   7.762 -0.4507 -0.1017  0.1025
  155SAPE  H11R17239   7.017   0.674   7.674  0.5859  1.0892 -0.8771
  155SAPE  C21217240   6.924   0.723   7.852 -0.1247 -0.0141 -0.6060
  155SAPE  H12R17241   6.870   0.628   7.857 -2.6756  1.5069  2.1509
  155SAPE  C21317242   6.875   0.815   7.964  0.7980  0.3723 -0.3931
  155SAPE  H13R17243   6.765   0.813   7.950  1.0195  0.7073 -2.2902
  155SAPE  H13S17244   6.906   0.921   7.948  0.3423  0.7694  1.2299
  155SAPE  C21417245   6.908   0.765   8.098 -1.0799 -0.2078  0.1463
  155SAPE  H14R17246   7.011   0.794   8.124 -0.3534 -0.9493 -1.8235
  155SAPE  C21517247   6.837   0.692   8.186  0.0485  0.5001  0.1292
  155SAPE  H15R17248   6.881   0.679   8.286 -0.6388 -1.0466  0.2436
  155SAPE  C21617249   6.699   0.638   8.163  0.0818 -0.5356  0.4745
  155SAPE  H16R17250   6.659   0.666   8.063 -0.3157  0.0531  0.7952
  155SAPE  H16S17251   6.630   0.683   8.237 -0.8899 -0.0050 -0.7424
  155SAPE  C21717252   6.680   0.486   8.182 -0.2072  0.3105  0.1217
  155SAPE  H17R17253   6.742   0.443   8.101 -1.3568  0.2213 -0.7293
  155SAPE  H17S17254   6.574   0.462   8.156 -0.6091  0.9770  1.1344
  155SAPE  C21817255   6.726   0.427   8.317  0.0589 -0.0295  0.7517
  155SAPE  H18R17256   6.829   0.460   8.343 -1.1816  0.8034  5.0138
  155SAPE  H18S17257   6.747   0.317   8.316  1.8324  0.2774 -1.6678
  155SAPE  C21917258   6.642   0.461   8.438 -0.3066  0.8989  0.6989
  155SAPE  H19R17259   6.535   0.434   8.419 -0.1077  0.1777  0.5782
  155SAPE  H19S17260   6.655   0.570   8.457  2.5641  0.5112  1.0964
  155SAPE  C22017261   6.684   0.377   8.557  0.2775 -0.1873 -0.2673
  155SAPE  H20R17262   6.756   0.423   8.629 -0.5737 -0.1944  0.6056
  155SAPE  H20S17263   6.736   0.287   8.520  0.6324 -0.7206  1.4486
  155SAPE  H20T17264   6.599   0.341   8.619 -0.7623 -2.3414 -2.8609
  155SAPE   C3317265   6.828   1.496   7.205  0.4137 -0.0467  0.3663
  155SAPE   H3X17266   6.740   1.565   7.209  0.1489 -0.2370 -1.7029
  155SAPE   H3Y17267   6.909   1.538   7.269  0.0460  2.5582 -0.8151
  155SAPE   C3417268   6.794   1.358   7.263 -0.3569  0.1487  0.0712
  155SAPE   H4X17269   6.890   1.303   7.253 -0.2231  0.3451  0.2487
  155SAPE   H4Y17270   6.711   1.310   7.208 -2.6467  1.8044  1.9553
  155SAPE   C3517271   6.760   1.373   7.413 -0.3657  0.5244  0.2400
  155SAPE   H5X17272   6.725   1.276   7.454  1.1310 -0.1034  0.0621
  155SAPE   H5Y17273   6.670   1.434   7.436  1.2021  1.9893  2.6794
  155SAPE   C3617274   6.871   1.421   7.497  0.1922 -0.5268 -0.5754
  155SAPE   H6X17275   6.908   1.523   7.473  1.0762 -0.8036 -0.4124
  155SAPE   H6Y17276   6.963   1.359   7.485  1.5310  0.9692  1.5369
  155SAPE   C3717277   6.828   1.431   7.654  0.3250 -0.0141  0.3536
  155SAPE   H7X17278   6.718   1.412   7.662  0.3495 -0.3507 -0.0978
  155SAPE   H7Y17279   6.844   1.529   7.703  1.9849 -0.9909  1.8370
  155SAPE   C3817280   6.893   1.329   7.753  0.5720  0.5329  0.2638
  155SAPE   H8X17281   7.002   1.332   7.732 -0.0349  1.0786 -3.2141
  155SAPE   H8Y17282   6.854   1.227   7.734 -0.8656  0.5848  2.7340
  155SAPE   C3917283   6.873   1.362   7.902  0.6926 -0.1168 -0.6705
  155SAPE   H9X17284   6.766   1.390   7.915  0.7848 -0.3886  0.7322
  155SAPE   H9Y17285   6.946   1.437   7.939  0.6574 -0.0754 -0.6859
  155SAPE  C31017286   6.904   1.236   7.988 -0.2781 -0.0469  0.1914
  155SAPE  H10X17287   6.981   1.185   7.926 -0.5339 -0.6256  0.3528
  155SAPE  H10Y17288   6.819   1.165   7.986  0.5082 -0.9711 -2.0555
  155SAPE  C31117289   6.932   1.264   8.139 -0.5057 -0.1233 -0.4217
  155SAPE  H11X17290   6.828   1.268   8.178 -1.1176  1.5255 -2.1088
  155SAPE  H11Y17291   6.989   1.358   8.153 -0.2759 -0.1308 -1.2489
  155SAPE  C31217292   7.016   1.146   8.200 -0.1077  0.0078  0.1960
  155SAPE  H12X17293   7.104   1.135   8.134 -0.7038  0.5935 -0.7009
  155SAPE  H12Y17294   6.944   1.061   8.203 -1.8970  1.5255  1.6365
  155SAPE  C31317295   7.070   1.162   8.341  0.5990  0.0817 -0.5067
  155SAPE  H13X17296   6.976   1.171   8.400  1.5257  1.2870  0.7981
  155SAPE  H13Y17297   7.129   1.254   8.360  0.3326  0.6207 -2.1795
  155SAPE  C31417298   7.133   1.044   8.411  0.6586 -0.7475  0.9079
  155SAPE  H14X17299   7.225   1.025   8.353  1.6387 -2.8947  3.0987
  155SAPE  H14Y17300   7.064   0.961   8.385 -0.7082  0.9473 -1.1144
  155SAPE  C31517301   7.162   1.053   8.558 -0.0085  0.4490 -0.0315
  155SAPE  H15X17302   7.197   1.156   8.580  1.3601 -0.3723  1.8058
  155SAPE  H15Y17303   7.247   0.987   8.585 -2.4293 -2.7279  0.0339
  155SAPE  C31617304   7.041   1.025   8.648 -0.1185  0.0148 -0.2694
  155SAPE  H16X17305   6.953   1.082   8.609 -1.3406 -1.0102  0.9462
  155SAPE  H16Y17306   7.063   1.056   8.752  1.9517 -1.0975 -0.3539
  155SAPE  C31717307   6.997   0.876   8.663 -0.0237  0.2103 -0.5153
  155SAPE  H17X17308   7.083   0.825   8.710  2.0049  1.3924 -2.7857
  155SAPE  H17Y17309   6.994   0.827   8.563  1.4597  0.8879 -0.9170
  155SAPE  C31817310   6.874   0.862   8.752 -0.0014  0.5939 -0.9597
  155SAPE  H18X17311   6.894   0.883   8.860  0.7459  0.9232 -1.1567
  155SAPE  H18Y17312   6.859   0.752   8.756  2.6700  0.2151  0.1502
  155SAPE  H18Z17313   6.784   0.914   8.712  0.2538 -0.4364 -2.8949
  156SAPE     N17314   4.197   1.822   6.617 -0.3236  0.4877 -0.2301
  156SAPE   HN117315   4.124   1.854   6.549  0.2600 -0.5639 -1.3802
  156SAPE   HN217316   4.252   1.753   6.562 -2.0548 -3.3040  2.5476
  156SAPE   HN317317   4.149   1.767   6.691  0.6614  1.5520  1.2286
  156SAPE   C1217318   4.278   1.948   6.661 -0.2904 -0.1681  0.8928
  156SAPE  H12A17319   4.328   1.913   6.754 -0.3656  0.3868  1.1451
  156SAPE  H12B17320   4.201   2.028   6.666  0.9175  1.1570 -0.9481
  156SAPE   C1117321   4.388   1.972   6.552  0.6459 -0.2757  0.3986
  156SAPE  H11A17322   4.443   2.062   6.589 -0.3895  1.0661 -1.2466
  156SAPE  H11B17323   4.361   2.003   6.449  0.2047  1.9293  1.1417
  156SAPE     P17324   4.627   1.872   6.492 -0.1372  0.7002 -0.3678
  156SAPE   O1317325   4.645   1.780   6.382  0.0308 -0.2493  0.0811
  156SAPE   O1417326   4.647   2.012   6.465  0.3705 -0.0112 -0.8039
  156SAPE   O1217327   4.479   1.857   6.550  0.3027 -0.4737 -0.3523
  156SAPE   O1117328   4.717   1.821   6.616  0.1688  0.2450  0.0279
  156SAPE    C117329   4.682   1.701   6.683 -0.7422 -0.4868 -0.1790
  156SAPE    HA17330   4.626   1.627   6.622 -1.5063  0.7923 -1.0534
  156SAPE    HB17331   4.775   1.645   6.709 -1.5636 -1.6500  0.3097
  156SAPE    C217332   4.587   1.721   6.811  0.1208 -0.1652 -0.4774
  156SAPE    HS17333   4.488   1.771   6.803  1.1477  1.9235 -0.4089
  156SAPE   O2117334   4.663   1.790   6.918 -0.5248  0.5634 -0.5942
  156SAPE   C2117335   4.663   1.920   6.907 -0.2428  0.3083 -0.1928
  156SAPE   O2217336   4.605   1.986   6.822  0.1291 -0.5959 -0.7605
  156SAPE   C2217337   4.757   1.984   7.021  0.4163 -0.0799 -0.2921
  156SAPE   H2R17338   4.767   1.908   7.102  0.5241 -0.6764 -0.8525
  156SAPE   H2S17339   4.857   1.983   6.973 -0.6178  0.8279 -2.5901
  156SAPE    C317340   4.539   1.585   6.868 -0.3858  0.4647 -0.2625
  156SAPE    HX17341   4.632   1.524   6.882 -1.5476 -0.7971  2.4324
  156SAPE    HY17342   4.470   1.528   6.802  0.0734  0.1137 -0.4510
  156SAPE   O3117343   4.470   1.609   6.996 -0.6671  0.7501  0.0128
  156SAPE   C3117344   4.535   1.557   7.102 -0.3105 -0.4138 -0.1738
  156SAPE   O3217345   4.645   1.511   7.102 -0.6694  0.3587  0.1893
  156SAPE   C3217346   4.451   1.577   7.227  0.1259 -0.1346  0.0003
  156SAPE   H2X17347   4.508   1.514   7.299 -0.4423  1.7149  2.1386
  156SAPE   H2Y17348   4.351   1.536   7.203  0.1757  0.5332 -1.3990
  156SAPE   C2317349   4.713   2.126   7.063 -0.4168  0.3266  0.3423
  156SAPE   H3R17350   4.605   2.127   7.091 -0.4294 -0.2338  0.3268
  156SAPE   H3S17351   4.734   2.192   6.976 -1.4020  0.4349  0.1824
  156SAPE   C2417352   4.797   2.176   7.178 -0.1460 -0.2281  0.1346
  156SAPE   H4R17353   4.906   2.186   7.159 -0.4029  1.8227 -0.3543
  156SAPE   H4S17354   4.787   2.102   7.261 -2.6679 -2.0261 -1.6609
  156SAPE   C2517355   4.750   2.311   7.226  0.1475 -0.5987  0.6757
  156SAPE   H5R17356   4.756   2.392   7.151  1.5089 -1.0445  0.2919
  156SAPE   C2617357   4.696   2.336   7.355 -0.3771  0.6325  0.3836
  156SAPE   H6R17358   4.660   2.437   7.380 -1.1861  0.0061  1.8381
  156SAPE   C2717359   4.678   2.234   7.469  0.6820 -0.2823 -0.6118
  156SAPE   H7R17360   4.740   2.277   7.551  0.2669 -1.1118  0.1331
  156SAPE   H7S17361   4.727   2.138   7.443  0.9398 -0.0109 -1.1284
  156SAPE   C2817362   4.537   2.200   7.528  0.0809  0.4998 -0.1863
  156SAPE   H8R17363   4.458   2.243   7.466  0.0306 -0.4843 -0.8191
  156SAPE   C2917364   4.499   2.152   7.650 -0.8426  0.8269  0.1145
  156SAPE   H9R17365   4.393   2.129   7.670 -0.0930 -1.9460  1.0754
  156SAPE  C21017366   4.600   2.108   7.758 -0.5085  0.5545 -0.1812
  156SAPE  H10R17367   4.692   2.064   7.712 -0.0420 -1.0392  2.1995
  156SAPE  H10S17368   4.556   2.022   7.813  0.7833  1.6386  2.6017
  156SAPE  C21117369   4.644   2.218   7.853 -0.2464  0.4162  0.3425
  156SAPE  H11R17370   4.739   2.267   7.827 -0.0236 -0.7584 -1.1192
  156SAPE  C21217371   4.597   2.239   7.973 -0.1965 -0.3317 -0.5657
  156SAPE  H12R17372   4.641   2.316   8.038  1.4990  0.1150 -2.2234
  156SAPE  C21317373   4.487   2.166   8.040 -0.5032  0.0534 -0.6198
  156SAPE  H13R17374   4.527   2.131   8.138 -2.7581  1.2794  0.7793
  156SAPE  H13S17375   4.463   2.076   7.979 -1.2143 -1.5331  1.8770
  156SAPE  C21417376   4.360   2.250   8.063  0.1188 -0.2110  0.2747
  156SAPE  H14R17377   4.329   2.323   7.987 -0.7174 -1.5501 -0.6952
  156SAPE  C21517378   4.276   2.231   8.163  0.1303 -0.2862 -0.2437
  156SAPE  H15R17379   4.183   2.289   8.163 -0.6252 -1.4847 -0.4677
  156SAPE  C21617380   4.294   2.126   8.275 -0.8822  0.2132 -0.9206
  156SAPE  H16R17381   4.383   2.059   8.273 -1.1405 -0.2124  1.1173
  156SAPE  H16S17382   4.198   2.069   8.281 -0.5624 -0.3449 -1.0618
  156SAPE  C21717383   4.299   2.200   8.414  0.5179 -0.1722 -0.0943
  156SAPE  H17R17384   4.222   2.280   8.422  1.6203  0.7704  1.4956
  156SAPE  H17S17385   4.397   2.253   8.425 -0.4653  1.8244 -0.6662
  156SAPE  C21817386   4.289   2.109   8.535  0.3372  0.6005 -0.4526
  156SAPE  H18R17387   4.368   2.035   8.510 -0.4808 -0.3665 -0.1953
  156SAPE  H18S17388   4.186   2.067   8.542 -0.3203  2.0531 -1.2640
  156SAPE  C21917389   4.318   2.165   8.675  0.3067  0.4754  0.0432
  156SAPE  H19R17390   4.416   2.216   8.662  1.3361 -1.8058 -1.3465
  156SAPE  H19S17391   4.317   2.079   8.746 -1.5728  1.9292  1.8528
  156SAPE  C22017392   4.219   2.266   8.714 -0.2471 -0.6279 -0.1323
  156SAPE  H20R17393   4.118   2.219   8.714 -0.7354  0.3583 -1.9784
  156SAPE  H20S17394   4.207   2.360   8.655 -3.2982 -0.8082  0.1048
  156SAPE  H20T17395   4.243   2.303   8.816 -1.1872  2.8449 -1.0852
  156SAPE   C3317396   4.446   1.716   7.293 -0.0249 -0.7838 -0.5672
  156SAPE   H3X17397   4.395   1.792   7.230 -0.6372 -1.9491 -1.5036
  156SAPE   H3Y17398   4.552   1.751   7.301 -0.8064  1.3011  1.2364
  156SAPE   C3417399   4.377   1.720   7.430 -0.1894  0.7238  0.1768
  156SAPE   H4X17400   4.432   1.654   7.500 -0.3064 -1.0106 -1.3085
  156SAPE   H4Y17401   4.269   1.695   7.423  0.0256  0.1060 -1.2904
  156SAPE   C3517402   4.382   1.863   7.495 -0.0102 -0.0209 -0.1531
  156SAPE   H5X17403   4.350   1.929   7.411 -1.2756 -0.5753 -0.1277
  156SAPE   H5Y17404   4.486   1.891   7.521  0.5506  0.5370 -2.8636
  156SAPE   C3617405   4.284   1.874   7.623 -0.5334  0.2392 -0.2942
  156SAPE   H6X17406   4.183   1.843   7.589 -0.2799  1.6859 -2.4544
  156SAPE   H6Y17407   4.277   1.980   7.655  0.6198  0.7212 -1.5717
  156SAPE   C3717408   4.336   1.787   7.741 -0.0523 -0.3213  1.8434
  156SAPE   H7X17409   4.445   1.789   7.758  0.1625  0.2499  0.4712
  156SAPE   H7Y17410   4.308   1.680   7.727 -2.1150  0.5271 -1.3158
  156SAPE   C3817411   4.262   1.823   7.870  0.2640  0.1140  0.6210
  156SAPE   H8X17412   4.155   1.802   7.850  0.3709 -0.4146  0.6111
  156SAPE   H8Y17413   4.267   1.930   7.900  0.1528  0.3360 -0.1554
  156SAPE   C3917414   4.313   1.739   7.989  0.2912  0.0544  0.7874
  156SAPE   H9X17415   4.420   1.752   8.018  1.4271 -2.9648 -1.8336
  156SAPE   H9Y17416   4.304   1.634   7.956  1.9875  0.5998 -1.5690
  156SAPE  C31017417   4.242   1.765   8.122 -0.2356 -0.5257 -1.0461
  156SAPE  H10X17418   4.142   1.716   8.132 -0.0507 -0.6048  0.4848
  156SAPE  H10Y17419   4.235   1.875   8.132  0.0359 -0.4804 -1.3575
  156SAPE  C31117420   4.303   1.711   8.251  0.0736  0.1699  0.5763
  156SAPE  H11X17421   4.409   1.744   8.258  0.2061 -0.1504  0.0877
  156SAPE  H11Y17422   4.306   1.600   8.244 -0.0000  0.1228  1.2482
  156SAPE  C31217423   4.242   1.755   8.386 -0.1929 -0.6675  0.2075
  156SAPE  H12X17424   4.218   1.863   8.374  1.0454 -0.4960 -0.8321
  156SAPE  H12Y17425   4.323   1.743   8.461 -0.9629 -2.3192  0.7958
  156SAPE  C31317426   4.105   1.679   8.423 -0.4593  0.7004  0.4182
  156SAPE  H13X17427   4.127   1.572   8.444  1.1536  1.3934  2.4078
  156SAPE  H13Y17428   4.061   1.679   8.321  1.3179 -0.2920 -0.3804
  156SAPE  C31417429   4.029   1.737   8.545 -0.1798 -0.2301  0.2535
  156SAPE  H14X17430   3.937   1.677   8.561 -0.0108 -0.7597 -0.7288
  156SAPE  H14Y17431   3.999   1.836   8.507  0.9419 -0.3064 -0.8679
  156SAPE  C31517432   4.104   1.749   8.678  0.1640  0.6573 -0.5382
  156SAPE  H15X17433   4.198   1.803   8.655  0.6228 -0.2059 -0.7033
  156SAPE  H15Y17434   4.133   1.648   8.715 -0.7447  0.2921 -0.7962
  156SAPE  C31617435   4.043   1.816   8.805 -0.1854 -0.5104  0.0154
  156SAPE  H16X17436   3.977   1.750   8.865  0.1248  0.9516  2.0251
  156SAPE  H16Y17437   3.990   1.908   8.773  1.0752  0.7138  1.3894
  156SAPE  C31717438   4.147   1.857   8.906 -0.8293 -0.6700 -0.2088
  156SAPE  H17X17439   4.090   1.937   8.958 -2.0359 -1.3390 -0.4845
  156SAPE  H17Y17440   4.226   1.914   8.853 -3.4262  0.8738 -2.5187
  156SAPE  C31817441   4.201   1.755   9.003  0.4912  0.0641 -0.0951
  156SAPE  H18X17442   4.280   1.803   9.064  0.5748 -0.1018 -0.0712
  156SAPE  H18Y17443   4.255   1.675   8.949  1.0805 -0.1419  0.7844
  156SAPE  H18Z17444   4.121   1.714   9.068 -0.5277  0.5536 -1.0237
  157SAPE     N17445   1.851   4.500   6.429 -0.0732  0.0963  0.1733
  157SAPE   HN117446   1.858   4.401   6.398  0.8342 -0.4338  1.9734
  157SAPE   HN217447   1.784   4.545   6.364  1.6369  1.0242 -0.9930
  157SAPE   HN317448   1.945   4.546   6.435 -0.6942  1.4677 -0.2960
  157SAPE   C1217449   1.779   4.472   6.557 -0.1982  0.2837 -1.0417
  157SAPE  H12A17450   1.748   4.570   6.599  1.9440  1.3208 -1.8723
  157SAPE  H12B17451   1.856   4.437   6.629  0.1914  2.2637 -0.4895
  157SAPE   C1117452   1.674   4.358   6.518 -0.0785  0.1939 -0.1085
  157SAPE  H11A17453   1.614   4.397   6.432  1.8526  0.5097 -1.3424
  157SAPE  H11B17454   1.610   4.332   6.605 -1.3210  0.5029 -0.9075
  157SAPE     P17455   1.680   4.116   6.419 -0.0841  0.1106  0.1935
  157SAPE   O1317456   1.547   4.141   6.372  0.7532 -0.2317 -0.2840
  157SAPE   O1417457   1.772   4.048   6.323 -0.4817 -0.1583  0.1328
  157SAPE   O1217458   1.752   4.246   6.473  0.2716 -0.5139  0.0493
  157SAPE   O1117459   1.683   4.033   6.552 -0.2076  0.5455  0.3733
  157SAPE    C117460   1.798   3.996   6.630  0.1139  0.2726 -0.0733
  157SAPE    HA17461   1.783   3.890   6.662  2.4020 -0.5754 -1.6532
  157SAPE    HB17462   1.889   3.982   6.568 -0.7363 -1.1090 -1.0586
  157SAPE    C217463   1.806   4.084   6.749 -0.1304  0.0448  0.2837
  157SAPE    HS17464   1.842   4.186   6.724 -0.2533  0.4739  1.7682
  157SAPE   O2117465   1.891   4.030   6.852 -1.1457 -0.3009  0.5428
  157SAPE   C2117466   2.020   4.058   6.854  0.5803  0.1298  0.6452
  157SAPE   O2217467   2.074   4.129   6.775 -0.4438  0.3440  0.1203
  157SAPE   C2217468   2.093   3.990   6.968  0.0096  0.5087  0.2756
  157SAPE   H2R17469   2.013   3.935   7.022  1.0041 -0.3100  0.9284
  157SAPE   H2S17470   2.158   3.916   6.918  0.8338 -0.2042  2.3438
  157SAPE    C317471   1.665   4.113   6.808 -0.5582  0.2645 -0.0871
  157SAPE    HX17472   1.619   4.012   6.817  1.0028 -0.5363 -1.1220
  157SAPE    HY17473   1.597   4.171   6.742 -1.7098  1.7586  2.3362
  157SAPE   O3117474   1.684   4.171   6.938 -0.0437 -0.3727  0.0558
  157SAPE   C3117475   1.734   4.286   6.954  0.3097 -0.0980 -0.2738
  157SAPE   O3217476   1.785   4.364   6.873 -0.5536 -0.1254  0.6069
  157SAPE   C3217477   1.727   4.311   7.103 -0.7964 -0.2598  0.1994
  157SAPE   H2X17478   1.771   4.218   7.145 -1.6480 -0.4607  0.6457
  157SAPE   H2Y17479   1.621   4.319   7.134 -1.4674 -0.8454 -1.8751
  157SAPE   C2317480   2.175   4.073   7.061  0.3663  0.5424  0.2023
  157SAPE   H3R17481   2.239   4.142   7.002 -0.1817  0.7678 -0.1225
  157SAPE   H3S17482   2.254   4.015   7.115 -1.7478 -1.3599  1.3308
  157SAPE   C2417483   2.096   4.161   7.161 -0.0713  0.3628  0.2239
  157SAPE   H4R17484   2.030   4.228   7.102 -2.0435 -2.0055 -0.3519
  157SAPE   H4S17485   2.161   4.237   7.209  1.2032  0.6209 -1.8797
  157SAPE   C2517486   2.021   4.073   7.267 -0.1775  0.0566  0.6323
  157SAPE   H5R17487   1.930   4.022   7.232 -0.6411  0.0382  1.8410
  157SAPE   C2617488   2.051   4.067   7.393  0.1380 -1.1905 -0.6857
  157SAPE   H6R17489   1.992   4.006   7.464  1.6155  0.0391  1.6600
  157SAPE   C2717490   2.169   4.141   7.453  0.0666  0.2060  0.0893
  157SAPE   H7R17491   2.147   4.247   7.475 -0.7380 -0.3186  1.8665
  157SAPE   H7S17492   2.252   4.139   7.379  0.4585 -3.5685  0.5430
  157SAPE   C2817493   2.214   4.086   7.592 -1.0085  0.5410 -0.3063
  157SAPE   H8R17494   2.303   4.022   7.584 -2.5177 -1.8910  1.5586
  157SAPE   C2917495   2.155   4.099   7.711 -0.4272 -0.2561  0.1093
  157SAPE   H9R17496   2.209   4.063   7.799 -0.9299 -2.6768 -0.5486
  157SAPE  C21017497   2.025   4.169   7.747 -0.9243  0.2157 -0.0272
  157SAPE  H10R17498   1.939   4.098   7.749 -1.5223  0.8489 -2.0997
  157SAPE  H10S17499   1.996   4.245   7.672  1.3920 -0.5007 -1.6839
  157SAPE  C21117500   2.037   4.237   7.880 -0.9260 -0.5678  0.6087
  157SAPE  H11R17501   2.048   4.346   7.870 -0.3287 -0.7904 -1.2857
  157SAPE  C21217502   2.038   4.191   8.008  0.1545 -0.3032  1.0271
  157SAPE  H12R17503   2.047   4.266   8.088 -0.5506  0.9285 -0.0240
  157SAPE  C21317504   2.036   4.048   8.051  0.2857 -0.1240 -0.1354
  157SAPE  H13R17505   2.035   3.991   7.955  0.7775 -0.0079 -0.2117
  157SAPE  H13S17506   1.944   4.027   8.109 -0.5900  0.1733 -1.3831
  157SAPE  C21417507   2.162   4.016   8.133  0.2667 -0.2221 -0.6006
  157SAPE  H14R17508   2.197   4.095   8.202  1.7490 -0.3164 -1.2334
  157SAPE  C21517509   2.234   3.902   8.136 -0.7349 -0.0614 -0.5086
  157SAPE  H15R17510   2.316   3.895   8.209  0.5790 -0.2966 -1.9849
  157SAPE  C21617511   2.213   3.772   8.056 -0.3365  0.2147  0.4325
  157SAPE  H16R17512   2.308   3.760   7.999 -0.0717  1.5325  0.5981
  157SAPE  H16S17513   2.125   3.781   7.990  0.5843  3.8535 -0.3969
  157SAPE  C21717514   2.175   3.645   8.138  0.2574  0.6173  0.6061
  157SAPE  H17R17515   2.147   3.559   8.074 -0.8122  1.3831  0.0098
  157SAPE  H17S17516   2.077   3.662   8.189  0.3671  2.8562  0.1269
  157SAPE  C21817517   2.272   3.612   8.248  0.0132 -0.1963  0.0514
  157SAPE  H18R17518   2.225   3.528   8.304  1.0513  0.7453  2.3893
  157SAPE  H18S17519   2.277   3.697   8.319 -0.6014 -1.0652  1.1555
  157SAPE  C21917520   2.414   3.592   8.202 -1.0515  0.0628  0.0986
  157SAPE  H19R17521   2.454   3.685   8.157 -1.5713  1.3263  2.1244
  157SAPE  H19S17522   2.413   3.513   8.124 -1.0328  0.5038 -0.3482
  157SAPE  C22017523   2.502   3.543   8.320  0.5289  0.2599 -0.6319
  157SAPE  H20R17524   2.487   3.618   8.400 -0.5659 -1.9323  1.2704
  157SAPE  H20S17525   2.611   3.546   8.296  0.6644 -2.4306 -0.5320
  157SAPE  H20T17526   2.483   3.441   8.357 -0.3309  0.6090 -0.1162
  157SAPE   C3317527   1.807   4.435   7.139 -0.1424 -0.5360 -0.5384
  157SAPE   H3X17528   1.778   4.525   7.081  1.8853 -0.0774 -0.8964
  157SAPE   H3Y17529   1.914   4.414   7.118  0.0825 -1.2854  1.2335
  157SAPE   C3417530   1.803   4.469   7.283 -0.0543 -0.0803 -0.5409
  157SAPE   H4X17531   1.836   4.373   7.328  0.6198 -0.5277 -1.9646
  157SAPE   H4Y17532   1.708   4.496   7.335 -1.0059 -2.5483 -0.9507
  157SAPE   C3517533   1.903   4.587   7.310  0.7521  0.0649 -0.0895
  157SAPE   H5X17534   1.912   4.637   7.211 -1.1079  0.6286  0.0144
  157SAPE   H5Y17535   2.004   4.546   7.332 -0.6331 -1.2807  4.1805
  157SAPE   C3617536   1.871   4.705   7.407  0.2961  0.1587 -0.5120
  157SAPE   H6X17537   1.766   4.728   7.379 -0.5080 -0.8722  1.5328
  157SAPE   H6Y17538   1.932   4.798   7.401  2.9546 -1.2495  3.0040
  157SAPE   C3717539   1.872   4.661   7.556  0.1989  0.4452  0.0984
  157SAPE   H7X17540   1.820   4.563   7.546  0.4501  0.3301 -0.0853
  157SAPE   H7Y17541   1.815   4.727   7.624 -1.9608  0.2359 -1.4544
  157SAPE   C3817542   2.005   4.634   7.618 -0.7609 -0.7603 -0.0833
  157SAPE   H8X17543   2.069   4.722   7.598 -1.3372 -0.4144 -0.4046
  157SAPE   H8Y17544   2.053   4.539   7.587 -0.2850 -0.1565 -1.2241
  157SAPE   C3917545   1.998   4.629   7.769 -0.3062 -0.0377  0.2289
  157SAPE   H9X17546   1.938   4.548   7.815 -2.3627  1.5668  0.4648
  157SAPE   H9Y17547   1.948   4.719   7.811 -1.7436 -1.1253  0.8939
  157SAPE  C31017548   2.134   4.616   7.835 -0.1987 -0.6272 -0.0642
  157SAPE  H10X17549   2.219   4.682   7.809 -0.8417  0.3916  0.3802
  157SAPE  H10Y17550   2.166   4.513   7.806 -2.9980 -1.4051 -0.5191
  157SAPE  C31117551   2.125   4.592   7.990 -0.2094 -0.0583  0.8255
  157SAPE  H11X17552   2.062   4.507   8.023  1.1284 -1.1388  0.6277
  157SAPE  H11Y17553   2.085   4.687   8.030 -1.2869 -0.3862  0.5423
  157SAPE  C31217554   2.265   4.572   8.050 -0.0405 -0.3227 -0.1643
  157SAPE  H12X17555   2.326   4.661   8.026 -1.1373  0.6721  0.6204
  157SAPE  H12Y17556   2.302   4.481   8.000  3.5204 -0.1975  2.0737
  157SAPE  C31317557   2.269   4.553   8.201 -0.0549  0.5105  0.2997
  157SAPE  H13X17558   2.199   4.473   8.234 -0.5990  1.1129  0.6211
  157SAPE  H13Y17559   2.232   4.652   8.233 -0.3803  0.8403 -1.0517
  157SAPE  C31417560   2.416   4.534   8.250 -0.0742  0.1286 -0.3536
  157SAPE  H14X17561   2.460   4.634   8.229 -0.7770  0.3602 -0.7353
  157SAPE  H14Y17562   2.469   4.457   8.190 -0.3660 -0.4574  0.1467
  157SAPE  C31517563   2.426   4.500   8.392  0.4700  0.0070  0.1350
  157SAPE  H15X17564   2.382   4.398   8.392  0.1134  0.1515  1.3088
  157SAPE  H15Y17565   2.370   4.567   8.461  0.1718 -0.1217  0.0199
  157SAPE  C31617566   2.570   4.485   8.439  0.2361  0.1104  0.0326
  157SAPE  H16X17567   2.606   4.590   8.441  2.4939 -0.6339 -0.6787
  157SAPE  H16Y17568   2.633   4.430   8.366 -0.5537 -0.4619 -0.2404
  157SAPE  C31717569   2.588   4.423   8.582  0.3732 -0.4850  0.2174
  157SAPE  H17X17570   2.695   4.438   8.607 -0.8545  5.8050  2.9417
  157SAPE  H17Y17571   2.570   4.314   8.575  0.7825 -0.5657  0.4207
  157SAPE  C31817572   2.494   4.477   8.688 -0.0635 -0.0611  0.7563
  157SAPE  H18X17573   2.386   4.451   8.679 -0.2277  1.1088 -1.0131
  157SAPE  H18Y17574   2.502   4.588   8.677  1.6455 -0.5677 -4.3960
  157SAPE  H18Z17575   2.545   4.436   8.778  2.3307 -1.7939 -1.3403
  158SAPE     N17576   3.349   0.487   5.935 -0.6897  0.0672 -0.0064
  158SAPE   HN117577   3.333   0.401   5.993  0.6480 -0.7646 -0.8615
  158SAPE   HN217578   3.259   0.536   5.918 -1.0568 -0.2642  0.8732
  158SAPE   HN317579   3.380   0.456   5.841  3.4684  1.3841  0.8488
  158SAPE   C1217580   3.458   0.573   5.997 -0.2772  0.0791 -0.0528
  158SAPE  H12A17581   3.417   0.675   6.009 -2.3951 -0.8299  0.6414
  158SAPE  H12B17582   3.541   0.577   5.923  0.4746  2.9091  0.8694
  158SAPE   C1117583   3.512   0.529   6.134  1.1865 -0.2302 -0.2562
  158SAPE  H11A17584   3.517   0.418   6.137 -1.1173 -0.3702 -0.1400
  158SAPE  H11B17585   3.440   0.555   6.215 -0.0125  0.4484 -1.5052
  158SAPE     P17586   3.647   0.734   6.215 -0.3047 -0.1005  0.2102
  158SAPE   O1317587   3.785   0.752   6.270 -0.1514  0.6225 -0.4053
  158SAPE   O1417588   3.597   0.837   6.118 -0.1701  0.0523  0.2732
  158SAPE   O1217589   3.643   0.584   6.153  0.5662 -0.3528 -0.6908
  158SAPE   O1117590   3.547   0.741   6.333  0.2762  0.4833 -0.1552
  158SAPE    C117591   3.578   0.831   6.444  0.1316 -0.8226  0.7668
  158SAPE    HA17592   3.643   0.916   6.415 -0.7983  0.3283  1.9560
  158SAPE    HB17593   3.486   0.885   6.475 -0.7187 -2.9935  2.1832
  158SAPE    C217594   3.627   0.762   6.579 -0.1293 -0.1713 -0.5430
  158SAPE    HS17595   3.707   0.694   6.544  1.3069  2.3242 -2.2995
  158SAPE   O2117596   3.508   0.701   6.638  0.2270  0.0487 -0.5061
  158SAPE   C2117597   3.530   0.570   6.672 -0.5650  0.9194  0.6746
  158SAPE   O2217598   3.627   0.507   6.632  0.8313 -0.0769  0.5387
  158SAPE   C2217599   3.418   0.523   6.767 -0.1944 -0.5562 -0.5919
  158SAPE   H2R17600   3.341   0.602   6.774 -1.1730 -1.4328 -1.4493
  158SAPE   H2S17601   3.378   0.426   6.729 -1.1455 -1.7824  3.2667
  158SAPE    C317602   3.702   0.860   6.678  0.0102 -0.4332  0.7096
  158SAPE    HX17603   3.797   0.871   6.621 -0.5919  0.3770 -0.1357
  158SAPE    HY17604   3.716   0.806   6.775 -1.2080 -1.6311  0.2346
  158SAPE   O3117605   3.630   0.982   6.703 -0.4950  0.7889 -0.5150
  158SAPE   C3117606   3.674   1.101   6.666 -0.6209  0.1254 -0.4615
  158SAPE   O3217607   3.767   1.120   6.586 -0.8075 -0.6015  0.5113
  158SAPE   C3217608   3.586   1.206   6.736 -0.6666 -0.0411 -0.2170
  158SAPE   H2X17609   3.501   1.215   6.665  1.9137  0.2902 -3.4069
  158SAPE   H2Y17610   3.642   1.302   6.733  2.6138 -1.8322  0.6181
  158SAPE   C2317611   3.461   0.497   6.915  0.4110 -0.1993 -0.1101
  158SAPE   H3R17612   3.570   0.475   6.923  0.6096  0.7326 -0.1940
  158SAPE   H3S17613   3.397   0.412   6.948 -2.7711  1.4397 -1.8462
  158SAPE   C2417614   3.436   0.615   7.004  0.7293 -0.0167 -0.1718
  158SAPE   H4R17615   3.328   0.639   7.010  1.3104  3.2296 -1.6291
  158SAPE   H4S17616   3.490   0.707   6.974  1.1123 -0.2976 -0.3388
  158SAPE   C2517617   3.491   0.583   7.139  0.3494  0.6183  0.4366
  158SAPE   H5R17618   3.440   0.497   7.184 -0.6281  1.7101  1.4372
  158SAPE   C2617619   3.596   0.637   7.188  0.5887 -0.1558 -0.1832
  158SAPE   H6R17620   3.609   0.610   7.294  1.0211  0.7176 -0.0067
  158SAPE   C2717621   3.694   0.738   7.137  0.2255 -0.4311 -0.2222
  158SAPE   H7R17622   3.704   0.733   7.026 -0.4520 -3.1106 -0.2008
  158SAPE   H7S17623   3.796   0.709   7.170  0.7715  1.6218 -0.0546
  158SAPE   C2817624   3.660   0.883   7.181 -0.4277  0.3598 -0.0349
  158SAPE   H8R17625   3.631   0.941   7.092 -1.5607 -0.2643 -0.0825
  158SAPE   C2917626   3.669   0.936   7.304 -0.4124 -0.0626 -0.3390
  158SAPE   H9R17627   3.639   1.041   7.316 -0.9548 -0.4353  1.6249
  158SAPE  C21017628   3.719   0.864   7.423  0.3011  0.5484 -0.8766
  158SAPE  H10R17629   3.730   0.757   7.396 -1.3018 -0.0514  0.7572
  158SAPE  H10S17630   3.627   0.865   7.484 -1.1747  1.8530 -3.0483
  158SAPE  C21117631   3.837   0.921   7.501  0.1007 -0.3560  0.1469
  158SAPE  H11R17632   3.931   0.912   7.444 -0.7839  0.8320 -1.5226
  158SAPE  C21217633   3.838   0.983   7.623  0.1239 -0.4254 -0.8729
  158SAPE  H12R17634   3.933   1.015   7.668  0.2806 -2.8390  0.6235
  158SAPE  C21317635   3.719   1.018   7.707  0.5182 -0.1224  0.5954
  158SAPE  H13R17636   3.647   0.934   7.719  1.0380 -1.1056 -2.7113
  158SAPE  H13S17637   3.655   1.094   7.658  0.7726  0.2061  0.7746
  158SAPE  C21417638   3.747   1.079   7.845 -0.0036  0.2234  0.2141
  158SAPE  H14R17639   3.777   1.184   7.844  0.5057  0.1347  2.8358
  158SAPE  C21517640   3.742   1.011   7.966 -0.0018 -0.3884  1.3906
  158SAPE  H15R17641   3.764   1.073   8.055 -0.0127 -0.5644  1.5149
  158SAPE  C21617642   3.713   0.867   7.989  0.2193  0.3582  0.4269
  158SAPE  H16R17643   3.763   0.806   7.910  0.9843  2.3406 -0.6675
  158SAPE  H16S17644   3.605   0.860   7.966  0.0548  0.1761  1.2416
  158SAPE  C21717645   3.750   0.810   8.128  0.2166 -0.6769  0.4195
  158SAPE  H17R17646   3.842   0.857   8.170  0.5314 -0.7318 -0.2124
  158SAPE  H17S17647   3.777   0.703   8.119  1.4568 -0.4534  1.2250
  158SAPE  C21817648   3.633   0.821   8.225 -0.1102  0.6622 -0.2830
  158SAPE  H18R17649   3.547   0.760   8.190  2.2388 -2.2358 -1.1612
  158SAPE  H18S17650   3.596   0.925   8.209 -1.5987 -0.3005 -3.6628
  158SAPE  C21917651   3.671   0.815   8.380  0.0388 -0.1169 -0.2964
  158SAPE  H19R17652   3.766   0.870   8.395  0.9178 -1.9521  0.9897
  158SAPE  H19S17653   3.694   0.713   8.419  0.0514  0.0963  0.2558
  158SAPE  C22017654   3.570   0.870   8.476  0.5744  0.3279  0.4958
  158SAPE  H20R17655   3.480   0.807   8.460  1.4152 -1.1182  1.2810
  158SAPE  H20S17656   3.547   0.976   8.454 -1.3135 -0.2833 -0.6570
  158SAPE  H20T17657   3.591   0.856   8.584  0.7769  0.3879  0.4646
  158SAPE   C3317658   3.549   1.170   6.885  0.0560 -0.4951  0.4607
  158SAPE   H3X17659   3.625   1.112   6.941  1.5742  0.3189 -0.7038
  158SAPE   H3Y17660   3.455   1.114   6.869 -1.3782  2.2104 -0.8743
  158SAPE   C3417661   3.512   1.296   6.967  0.2883  0.4926  0.6546
  158SAPE   H4X17662   3.448   1.366   6.910  0.9348  0.6342  0.1012
  158SAPE   H4Y17663   3.599   1.361   6.993  1.2164 -1.3982  2.5080
  158SAPE   C3517664   3.457   1.273   7.113  0.1806 -0.2546  0.1164
  158SAPE   H5X17665   3.509   1.192   7.168  0.8385 -0.3941 -0.7039
  158SAPE   H5Y17666   3.350   1.246   7.100 -0.1665 -0.3342  2.8687
  158SAPE   C3617667   3.464   1.402   7.202  0.1874 -0.1324  0.0295
  158SAPE   H6X17668   3.402   1.480   7.154  0.5377 -0.3714 -0.8134
  158SAPE   H6Y17669   3.566   1.447   7.193 -1.1792  2.6543 -2.6177
  158SAPE   C3717670   3.412   1.377   7.346  0.3444 -0.8728 -0.3257
  158SAPE   H7X17671   3.313   1.327   7.346 -1.1198  1.8762  1.4109
  158SAPE   H7Y17672   3.491   1.340   7.414  3.3032  1.8768 -2.1176
  158SAPE   C3817673   3.378   1.509   7.414 -0.0472 -0.5346 -0.3049
  158SAPE   H8X17674   3.281   1.542   7.371  0.5400  1.4060 -0.1833
  158SAPE   H8Y17675   3.457   1.587   7.409  0.0391 -0.5403  0.8580
  158SAPE   C3917676   3.347   1.487   7.562  0.0211  0.0190 -0.4581
  158SAPE   H9X17677   3.442   1.448   7.604  0.4500  0.8919 -0.6011
  158SAPE   H9Y17678   3.270   1.408   7.576 -0.0910  0.1616 -0.2575
  158SAPE  C31017679   3.301   1.617   7.635 -0.5993  0.1572  0.0151
  158SAPE  H10X17680   3.215   1.657   7.578 -0.1012 -0.1053 -0.9252
  158SAPE  H10Y17681   3.385   1.690   7.636 -1.5544  1.2779  2.4514
  158SAPE  C31117682   3.273   1.599   7.786 -0.4939  0.2043 -0.2129
  158SAPE  H11X17683   3.240   1.699   7.821  0.9290  0.2177  1.1531
  158SAPE  H11Y17684   3.364   1.579   7.846 -1.6752 -2.7800  0.7062
  158SAPE  C31217685   3.155   1.497   7.803 -1.0110 -0.4387  0.5442
  158SAPE  H12X17686   3.192   1.395   7.782 -3.0091 -1.0910  0.0387
  158SAPE  H12Y17687   3.073   1.510   7.729 -0.9848  1.5459  0.8411
  158SAPE  C31317688   3.092   1.508   7.946 -0.4584  0.1918 -0.4733
  158SAPE  H13X17689   3.072   1.613   7.977  3.8178  0.3649  2.1733
  158SAPE  H13Y17690   3.160   1.465   8.023 -1.1577 -0.4150 -0.1938
  158SAPE  C31417691   2.958   1.436   7.950 -0.4333  0.2186 -0.1854
  158SAPE  H14X17692   2.968   1.331   7.912 -3.4132  0.8021 -2.8389
  158SAPE  H14Y17693   2.892   1.485   7.875  0.0150 -0.7450 -1.2265
  158SAPE  C31517694   2.903   1.418   8.092  0.0164  0.0323  0.4631
  158SAPE  H15X17695   2.794   1.397   8.083  0.4728 -2.5228  0.6411
  158SAPE  H15Y17696   2.916   1.509   8.154 -0.6584  1.1206 -0.9692
  158SAPE  C31617697   2.957   1.300   8.171 -0.2902 -0.4210  0.4568
  158SAPE  H16X17698   3.068   1.311   8.177 -0.1822 -1.3508  0.2342
  158SAPE  H16Y17699   2.930   1.205   8.121 -1.6292  0.6084 -0.8183
  158SAPE  C31717700   2.917   1.291   8.318 -0.6000 -0.2709 -0.6789
  158SAPE  H17X17701   2.970   1.366   8.380 -0.3641 -0.0909 -1.0924
  158SAPE  H17Y17702   2.951   1.198   8.368  1.8783  0.8507 -0.2058
  158SAPE  C31817703   2.767   1.307   8.331 -0.3431 -0.4330 -1.0209
  158SAPE  H18X17704   2.715   1.226   8.275  1.5081 -1.7897 -0.8474
  158SAPE  H18Y17705   2.731   1.408   8.302 -0.0241  0.3346  1.2121
  158SAPE  H18Z17706   2.744   1.280   8.436 -0.2679 -0.0961 -0.9190
  159SAPE     N17707   3.595   4.554   6.234 -0.2378 -0.0248  0.3006
  159SAPE   HN117708   3.555   4.644   6.202 -0.7455 -0.9765 -1.8132
  159SAPE   HN217709   3.511   4.495   6.252 -0.9152  0.1262 -2.2537
  159SAPE   HN317710   3.633   4.577   6.328 -0.7089  0.6170  0.3389
  159SAPE   C1217711   3.683   4.502   6.124 -0.0366 -0.1465  0.0652
  159SAPE  H12A17712   3.779   4.558   6.122 -0.7088  0.9804 -2.0407
  159SAPE  H12B17713   3.640   4.532   6.026 -2.8058 -0.5702  1.0936
  159SAPE   C1117714   3.701   4.350   6.121 -0.3594 -0.2170  0.1143
  159SAPE  H11A17715   3.781   4.307   6.185 -0.1095 -1.2469 -0.8740
  159SAPE  H11B17716   3.737   4.332   6.017 -1.5002  0.0864 -0.3362
  159SAPE     P17717   3.563   4.130   6.157  0.1512  0.2182 -0.4888
  159SAPE   O1317718   3.421   4.103   6.114 -0.0818  0.3186  0.2931
  159SAPE   O1417719   3.676   4.061   6.088 -0.4703 -0.5272  0.5320
  159SAPE   O1217720   3.578   4.285   6.152 -0.2356  0.4265  0.1767
  159SAPE   O1117721   3.579   4.107   6.313  0.4257 -0.2501  0.0362
  159SAPE    C117722   3.674   4.174   6.400 -0.1896 -0.5700  0.5695
  159SAPE    HA17723   3.777   4.155   6.363 -0.7147 -1.1711 -0.6218
  159SAPE    HB17724   3.671   4.284   6.390 -0.0691 -0.6447 -0.2670
  159SAPE    C217725   3.656   4.132   6.549 -0.3766  0.5405 -0.3149
  159SAPE    HS17726   3.678   4.023   6.547  1.6196  0.8875  1.0154
  159SAPE   O2117727   3.524   4.136   6.592  0.4271  0.0653 -0.9740
  159SAPE   C2117728   3.455   4.248   6.579 -0.0401 -0.1880  0.4740
  159SAPE   O2217729   3.502   4.354   6.543  0.1869  0.2887 -0.1313
  159SAPE   C2217730   3.309   4.228   6.618 -0.2834  0.0511  1.0204
  159SAPE   H2R17731   3.258   4.326   6.609 -1.1366 -0.7016 -3.6651
  159SAPE   H2S17732   3.266   4.161   6.541  0.4549  0.0514  0.5965
  159SAPE    C317733   3.763   4.201   6.641 -0.4484 -0.3804 -0.2000
  159SAPE    HX17734   3.773   4.311   6.634 -0.0597 -0.2769  1.7622
  159SAPE    HY17735   3.857   4.153   6.607 -1.6286 -2.6110 -0.4560
  159SAPE   O3117736   3.726   4.162   6.779  0.0291 -0.0813 -0.6801
  159SAPE   C3117737   3.797   4.073   6.845 -0.5843  0.0010 -0.1929
  159SAPE   O3217738   3.907   4.038   6.805 -0.2010 -0.8501  0.4213
  159SAPE   C3217739   3.708   4.032   6.968 -0.3380  0.5441  0.4199
  159SAPE   H2X17740   3.612   3.997   6.922  0.3964  1.3278 -1.7760
  159SAPE   H2Y17741   3.692   4.120   7.033 -2.7987  0.7804 -0.4254
  159SAPE   C2317742   3.288   4.176   6.767  0.6563 -0.5537 -0.3772
  159SAPE   H3R17743   3.365   4.100   6.790  0.8560  0.0843  1.1030
  159SAPE   H3S17744   3.193   4.121   6.776  1.3543 -1.5337  1.2189
  159SAPE   C2417745   3.293   4.297   6.871  0.0054  0.2125 -0.0347
  159SAPE   H4R17746   3.242   4.253   6.960  1.0297 -0.7369  0.0912
  159SAPE   H4S17747   3.226   4.378   6.835 -1.2214  0.2996  2.3144
  159SAPE   C2517748   3.431   4.347   6.899  0.3667 -0.9296 -0.5670
  159SAPE   H5R17749   3.485   4.381   6.809 -0.4006 -1.2003 -1.1304
  159SAPE   C2617750   3.495   4.349   7.017  0.1754 -0.2533 -0.3379
  159SAPE   H6R17751   3.599   4.383   7.024  0.5605 -1.2259 -1.2707
  159SAPE   C2717752   3.444   4.302   7.157 -0.3498 -0.1344 -1.0371
  159SAPE   H7R17753   3.506   4.222   7.202  1.4419  2.5794  1.4907
  159SAPE   H7S17754   3.342   4.259   7.144 -1.1389  1.0791  0.8931
  159SAPE   C2817755   3.423   4.416   7.249 -0.1231 -0.2835 -0.0152
  159SAPE   H8R17756   3.426   4.515   7.202 -1.7032 -0.2471 -0.0551
  159SAPE   C2917757   3.405   4.403   7.382  0.1223  0.0736  0.4552
  159SAPE   H9R17758   3.380   4.490   7.445 -0.3087  0.9538 -0.8930
  159SAPE  C21017759   3.397   4.276   7.464 -0.6162  0.0828  0.3731
  159SAPE  H10R17760   3.491   4.267   7.522 -1.0537 -1.0706  0.9295
  159SAPE  H10S17761   3.388   4.183   7.403 -0.9744  1.2701 -1.4405
  159SAPE  C21117762   3.284   4.273   7.566  1.0927 -0.0106 -0.0740
  159SAPE  H11R17763   3.201   4.339   7.535  0.9641  0.2099  0.7208
  159SAPE  C21217764   3.272   4.193   7.680  0.2773 -0.1576  0.1757
  159SAPE  H12R17765   3.183   4.209   7.743  2.3039  3.4240  2.3583
  159SAPE  C21317766   3.379   4.091   7.731  0.3054  0.2637  0.6457
  159SAPE  H13R17767   3.464   4.081   7.660  0.1240  0.7139  0.3653
  159SAPE  H13S17768   3.333   3.990   7.726  0.8906  0.0002  0.5211
  159SAPE  C21417769   3.430   4.131   7.872 -0.1974  0.5794 -0.4962
  159SAPE  H14R17770   3.524   4.189   7.874  0.5832 -0.6517 -0.1733
  159SAPE  C21517771   3.381   4.085   7.991 -0.3590 -0.4538 -0.2289
  159SAPE  H15R17772   3.443   4.112   8.078  0.5999  0.5215 -1.1864
  159SAPE  C21617773   3.258   3.998   8.006  0.2142  0.6915 -0.0534
  159SAPE  H16R17774   3.279   3.895   8.042 -1.1082  0.8701  1.2661
  159SAPE  H16S17775   3.215   3.994   7.903 -0.0436  2.3986 -0.0253
  159SAPE  C21717776   3.148   4.066   8.082 -0.9505 -0.1674 -0.4370
  159SAPE  H17R17777   3.056   4.009   8.060  0.1496 -1.5418 -1.5568
  159SAPE  H17S17778   3.123   4.166   8.039 -2.2016 -1.3103 -2.4560
  159SAPE  C21817779   3.164   4.082   8.240  0.7244  0.1515 -0.2256
  159SAPE  H18R17780   3.247   4.154   8.259  1.0772 -0.3700  0.2269
  159SAPE  H18S17781   3.174   3.987   8.296 -0.3871  0.0586 -0.1792
  159SAPE  C21917782   3.044   4.155   8.306  0.6844  0.2948 -0.4072
  159SAPE  H19R17783   2.955   4.090   8.290 -0.5999  1.6018  1.1300
  159SAPE  H19S17784   3.031   4.260   8.274 -0.2388  0.1312 -0.5943
  159SAPE  C22017785   3.077   4.169   8.449 -0.5841  0.4124  0.0718
  159SAPE  H20R17786   3.152   4.247   8.472  0.5428 -0.9928  1.2287
  159SAPE  H20S17787   3.093   4.070   8.497 -2.7749 -0.4017 -0.7976
  159SAPE  H20T17788   2.986   4.208   8.499 -1.4747  2.0473 -2.7090
  159SAPE   C3317789   3.752   3.907   7.050 -0.0542  0.1584 -0.0523
  159SAPE   H3X17790   3.861   3.915   7.070 -0.0686 -1.2968  0.7036
  159SAPE   H3Y17791   3.747   3.810   6.995 -1.7377 -0.8049  1.7369
  159SAPE   C3417792   3.681   3.892   7.186 -0.7804  0.0820  0.9135
  159SAPE   H4X17793   3.617   3.801   7.200 -1.8692  0.7459  0.3489
  159SAPE   H4Y17794   3.626   3.986   7.210 -1.9592 -0.7072  1.3741
  159SAPE   C3517795   3.779   3.886   7.307  0.1014 -0.4581 -0.1849
  159SAPE   H5X17796   3.864   3.956   7.295  0.7603 -1.2703 -0.2508
  159SAPE   H5Y17797   3.824   3.785   7.307 -1.0081 -0.9600  0.4285
  159SAPE   C3617798   3.704   3.918   7.441  0.8763  0.5555 -0.5957
  159SAPE   H6X17799   3.613   3.855   7.441  0.8971  0.5245 -0.0617
  159SAPE   H6Y17800   3.676   4.025   7.432 -1.3990 -0.2193 -3.1432
  159SAPE   C3717801   3.792   3.888   7.560  0.5197  0.1393 -0.4897
  159SAPE   H7X17802   3.878   3.959   7.552 -0.5547  1.2829 -2.2373
  159SAPE   H7Y17803   3.826   3.782   7.566 -0.1199  0.0231  1.4637
  159SAPE   C3817804   3.735   3.920   7.698 -0.2956  0.3344 -1.2014
  159SAPE   H8X17805   3.657   3.850   7.734  1.8951 -0.6255  1.9733
  159SAPE   H8Y17806   3.689   4.021   7.695 -3.0505 -0.7961  0.4616
  159SAPE   C3917807   3.851   3.915   7.798 -0.3185  0.5015 -0.2603
  159SAPE   H9X17808   3.950   3.943   7.755 -0.9335 -2.1830 -3.6369
  159SAPE   H9Y17809   3.873   3.811   7.830  0.2314  0.9592  0.8916
  159SAPE  C31017810   3.842   3.996   7.923 -0.0175 -0.3330 -0.2012
  159SAPE  H10X17811   3.735   4.000   7.952 -0.2950 -1.3388 -1.0619
  159SAPE  H10Y17812   3.875   4.102   7.914 -1.0274  0.0432  0.3348
  159SAPE  C31117813   3.905   3.921   8.043  0.2490 -0.8312 -0.4812
  159SAPE  H11X17814   4.008   3.889   8.019  0.9395  1.1392 -0.2577
  159SAPE  H11Y17815   3.861   3.821   8.064  1.0001 -0.2482  4.5257
  159SAPE  C31217816   3.894   3.993   8.181 -0.0939  0.1322 -0.3511
  159SAPE  H12X17817   3.789   3.985   8.217 -0.3307  1.7886 -0.6013
  159SAPE  H12Y17818   3.926   4.100   8.180  1.7193 -0.3878  0.7952
  159SAPE  C31317819   3.987   3.929   8.286 -0.6742 -0.2556  0.2786
  159SAPE  H13X17820   4.086   3.978   8.287 -0.5712 -0.4742  0.9836
  159SAPE  H13Y17821   4.002   3.819   8.280  0.1205 -0.0121 -2.4939
  159SAPE  C31417822   3.928   3.953   8.427 -0.0896 -0.6631  0.4240
  159SAPE  H14X17823   3.834   3.897   8.442  0.7751 -2.2811 -0.0227
  159SAPE  H14Y17824   3.901   4.060   8.439  1.9040 -0.3451  2.5430
  159SAPE  C31517825   4.028   3.920   8.535 -0.2698  1.0285  0.5992
  159SAPE  H15X17826   4.121   3.981   8.534 -0.3540  1.1517 -0.2536
  159SAPE  H15Y17827   4.066   3.817   8.516  1.2398  1.5017  0.9732
  159SAPE  C31617828   3.962   3.922   8.675  0.7039  1.2491 -0.4785
  159SAPE  H16X17829   3.865   3.868   8.682  0.4569  1.8151  0.5600
  159SAPE  H16Y17830   3.937   4.026   8.705  0.4663  0.9258  0.4650
  159SAPE  C31717831   4.037   3.852   8.784  0.6535  0.0357 -0.0114
  159SAPE  H17X17832   4.141   3.890   8.793  0.5725  0.6004 -1.3656
  159SAPE  H17Y17833   4.030   3.746   8.752 -2.5743 -0.2350  1.3998
  159SAPE  C31817834   3.967   3.875   8.912 -0.8479  0.6988  0.4010
  159SAPE  H18X17835   3.999   3.969   8.961 -1.2502  0.3582  1.3345
  159SAPE  H18Y17836   3.992   3.793   8.983 -0.5807 -1.0363 -1.6271
  159SAPE  H18Z17837   3.856   3.879   8.906 -0.8300  0.3489 -0.1644
  160SAPE     N17838   4.253   2.443   6.306  0.0503  0.2518  0.2346
  160SAPE   HN117839   4.292   2.517   6.244 -2.0035  0.8408 -0.4019
  160SAPE   HN217840   4.221   2.491   6.392  2.0274 -1.4647  1.9784
  160SAPE   HN317841   4.326   2.374   6.335  0.4465 -1.1412 -3.7049
  160SAPE   C1217842   4.145   2.361   6.242 -0.0032 -0.7943  0.4601
  160SAPE  H12A17843   4.193   2.287   6.176  0.0646  0.4445 -0.8919
  160SAPE  H12B17844   4.076   2.429   6.188  0.2824 -0.9155 -0.0618
  160SAPE   C1117845   4.078   2.269   6.349 -0.4590 -0.1121 -0.1482
  160SAPE  H11A17846   4.156   2.217   6.408  0.5216  1.5320  0.0043
  160SAPE  H11B17847   4.031   2.194   6.280  1.0446 -2.1893  1.0208
  160SAPE     P17848   3.854   2.384   6.425  0.2454 -0.5515 -0.1110
  160SAPE   O1317849   3.828   2.534   6.402  0.2925 -0.7416  0.8240
  160SAPE   O1417850   3.793   2.290   6.328 -0.0895  0.4349 -0.2139
  160SAPE   O1217851   4.008   2.350   6.435  0.1005  0.2797  0.1361
  160SAPE   O1117852   3.801   2.349   6.572 -0.2019  0.3619 -0.2326
  160SAPE    C117853   3.850   2.235   6.638 -0.5798 -0.2426  0.4625
  160SAPE    HA17854   3.769   2.167   6.675  0.2039 -1.3168  0.2115
  160SAPE    HB17855   3.925   2.187   6.573 -0.5900 -1.5236  1.3841
  160SAPE    C217856   3.918   2.273   6.776 -0.2291  0.8460 -0.5755
  160SAPE    HS17857   3.961   2.176   6.810 -1.4340  0.5361  0.0775
  160SAPE   O2117858   3.816   2.318   6.868  0.0386  0.1257 -0.4363
  160SAPE   C2117859   3.826   2.281   6.992 -0.0505  0.4635 -0.1925
  160SAPE   O2217860   3.911   2.211   7.045  0.1235  0.1372  0.7097
  160SAPE   C2217861   3.711   2.347   7.070  0.6695  0.2966 -0.1922
  160SAPE   H2R17862   3.613   2.325   7.023  0.6090  2.4130 -1.1338
  160SAPE   H2S17863   3.715   2.296   7.168  0.2389  0.8526  0.1207
  160SAPE    C317864   4.036   2.376   6.768 -0.4510 -0.1588  0.8024
  160SAPE    HX17865   3.989   2.471   6.735  0.7664  0.2950  0.3352
  160SAPE    HY17866   4.102   2.348   6.683 -2.2456  1.0028 -1.0050
  160SAPE   O3117867   4.102   2.416   6.889 -0.0692  0.5498  0.0143
  160SAPE   C3117868   4.199   2.337   6.933 -0.6428  0.1833  0.0993
  160SAPE   O3217869   4.225   2.229   6.886  0.2952 -0.1139 -0.4978
  160SAPE   C3217870   4.276   2.411   7.041  0.0423  0.4013  0.3603
  160SAPE   H2X17871   4.212   2.493   7.081 -2.1230 -1.1131  0.0602
  160SAPE   H2Y17872   4.361   2.460   6.989 -0.5179  0.1054 -0.8754
  160SAPE   C2317873   3.717   2.503   7.091  0.1435  0.4799 -1.0190
  160SAPE   H3R17874   3.623   2.542   7.135  1.0103 -0.7353  1.9884
  160SAPE   H3S17875   3.706   2.537   6.986 -0.5284  1.3132 -0.6759
  160SAPE   C2417876   3.848   2.541   7.167  0.8937 -0.5545 -0.0109
  160SAPE   H4R17877   3.939   2.491   7.128  1.4312  0.3509  0.0651
  160SAPE   H4S17878   3.824   2.501   7.268 -0.1415 -0.8906 -0.3815
  160SAPE   C2517879   3.867   2.689   7.168 -0.2502 -0.2547  0.6626
  160SAPE   H5R17880   3.859   2.739   7.070 -0.2510  1.9788  1.7639
  160SAPE   C2617881   3.888   2.767   7.280 -0.6320  0.0629  0.6957
  160SAPE   H6R17882   3.895   2.874   7.255  0.1423 -0.6591 -2.4137
  160SAPE   C2717883   3.883   2.728   7.426 -0.3162 -0.7166 -1.1170
  160SAPE   H7R17884   3.930   2.629   7.441  1.1967  0.0802 -0.4658
  160SAPE   H7S17885   3.775   2.706   7.440 -0.8754  2.7889  0.7405
  160SAPE   C2817886   3.915   2.835   7.525  0.3940  0.3696  0.1539
  160SAPE   H8R17887   3.895   2.937   7.487  0.5709  1.3133  2.5071
  160SAPE   C2917888   3.971   2.821   7.645  0.3055  0.4342  0.1635
  160SAPE   H9R17889   3.984   2.913   7.703  0.3836  0.1632  0.5811
  160SAPE  C21017890   4.007   2.686   7.703 -0.2525 -0.0012  0.7000
  160SAPE  H10R17891   4.110   2.668   7.664 -0.9474 -2.4299 -0.1234
  160SAPE  H10S17892   3.952   2.600   7.660  3.0687 -1.5727 -0.6736
  160SAPE  C21117893   4.008   2.678   7.850 -0.4381  0.1030 -0.2755
  160SAPE  H11R17894   4.096   2.714   7.906  0.0634  1.3949 -1.8560
  160SAPE  C21217895   3.911   2.626   7.929 -0.0456 -0.5656 -0.2466
  160SAPE  H12R17896   3.925   2.638   8.038 -1.3729 -1.0848 -0.0090
  160SAPE  C21317897   3.780   2.561   7.888  0.2252 -0.2082  0.4856
  160SAPE  H13R17898   3.764   2.570   7.779 -0.5761 -1.1872  0.5114
  160SAPE  H13S17899   3.698   2.621   7.934 -1.3179  1.2867 -3.9708
  160SAPE  C21417900   3.755   2.411   7.923  0.2612 -0.2080  0.4586
  160SAPE  H14R17901   3.803   2.342   7.852 -2.5750 -2.1430  0.3414
  160SAPE  C21517902   3.693   2.354   8.028 -0.3459 -0.5442  0.0482
  160SAPE  H15R17903   3.684   2.245   8.034 -1.3169 -0.5901 -1.8966
  160SAPE  C21617904   3.629   2.434   8.135 -0.2467 -0.5122  0.2028
  160SAPE  H16R17905   3.526   2.464   8.105 -0.9406 -2.9757  0.0026
  160SAPE  H16S17906   3.685   2.528   8.155  1.8614 -1.3985 -1.4810
  160SAPE  C21717907   3.619   2.357   8.273  0.3369 -0.6722  0.0764
  160SAPE  H17R17908   3.592   2.251   8.249  1.5977 -0.9406 -0.2127
  160SAPE  H17S17909   3.530   2.395   8.327  0.6760  0.5483 -0.2019
  160SAPE  C21817910   3.739   2.381   8.360  0.8030 -0.1245  0.6796
  160SAPE  H18R17911   3.742   2.492   8.367 -2.8094  0.1785 -1.2532
  160SAPE  H18S17912   3.830   2.354   8.303 -1.2710  1.2005 -3.4527
  160SAPE  C21917913   3.717   2.312   8.495  1.1398  0.3240 -0.8257
  160SAPE  H19R17914   3.610   2.315   8.524  0.7850  0.0561 -2.0506
  160SAPE  H19S17915   3.785   2.366   8.564 -0.1999 -2.4896  2.8143
  160SAPE  C22017916   3.768   2.164   8.499  0.0801  0.0619  0.9537
  160SAPE  H20R17917   3.867   2.150   8.451 -1.3396  0.1846 -2.1353
  160SAPE  H20S17918   3.699   2.100   8.439  2.3295  0.4028 -2.1378
  160SAPE  H20T17919   3.783   2.126   8.602  1.4145 -0.9175  0.4097
  160SAPE   C3317920   4.331   2.319   7.148 -0.5274 -0.4901 -0.0952
  160SAPE   H3X17921   4.412   2.371   7.204  0.4487 -1.6275 -0.4336
  160SAPE   H3Y17922   4.372   2.226   7.105  1.0569 -0.7208  1.8604
  160SAPE   C3417923   4.229   2.278   7.264 -1.0906  0.2682  0.3327
  160SAPE   H4X17924   4.278   2.192   7.315  0.6127  1.0827  0.1200
  160SAPE   H4Y17925   4.137   2.233   7.221 -0.8773 -0.7497  0.9407
  160SAPE   C3517926   4.210   2.388   7.366 -0.3936 -0.2257 -0.2080
  160SAPE   H5X17927   4.186   2.483   7.315 -2.0524 -0.1309  0.7320
  160SAPE   H5Y17928   4.303   2.398   7.426  0.2130  2.0215 -1.4622
  160SAPE   C3617929   4.091   2.351   7.451  0.6414 -0.6231  0.1466
  160SAPE   H6X17930   4.009   2.326   7.381 -0.7409 -0.7077  1.7836
  160SAPE   H6Y17931   4.069   2.448   7.499 -1.7920  0.2251 -2.5436
  160SAPE   C3717932   4.123   2.235   7.550 -0.6327 -0.0403 -0.3497
  160SAPE   H7X17933   4.233   2.243   7.565 -0.6420  0.2847 -0.4492
  160SAPE   H7Y17934   4.112   2.138   7.496  1.3469 -0.6432  0.2722
  160SAPE   C3817935   4.021   2.221   7.664 -0.5432 -0.1454 -0.2833
  160SAPE   H8X17936   3.922   2.184   7.629 -0.3913 -1.1248  0.3116
  160SAPE   H8Y17937   4.008   2.323   7.708  0.2624  0.0569 -0.5071
  160SAPE   C3917938   4.074   2.132   7.773  0.7623 -0.0273 -1.1576
  160SAPE   H9X17939   4.178   2.169   7.789  2.0366 -2.9075 -2.3211
  160SAPE   H9Y17940   4.088   2.026   7.744 -0.0959 -0.3060 -0.5492
  160SAPE  C31017941   3.980   2.135   7.897 -0.0638 -1.1082 -0.0008
  160SAPE  H10X17942   3.881   2.118   7.850 -1.3501  2.6128  1.1365
  160SAPE  H10Y17943   4.000   2.235   7.942 -1.4067 -0.7850 -0.0924
  160SAPE  C31117944   4.002   2.021   8.000 -0.6034  0.1378  0.0863
  160SAPE  H11X17945   4.098   2.051   8.046  1.3319 -1.0583 -3.0697
  160SAPE  H11Y17946   4.011   1.925   7.945 -1.1988  0.1375 -0.0221
  160SAPE  C31217947   3.892   2.005   8.111  0.0720  0.6170 -0.2531
  160SAPE  H12X17948   3.858   2.103   8.152 -0.5749  0.3885 -0.2276
  160SAPE  H12Y17949   3.932   1.943   8.194 -1.5857  0.3605  0.3701
  160SAPE  C31317950   3.764   1.939   8.058 -0.3130  0.7169 -0.0580
  160SAPE  H13X17951   3.797   1.840   8.020  0.9193  0.2792  2.0634
  160SAPE  H13Y17952   3.732   1.988   7.964  3.5205  0.4509 -1.5830
  160SAPE  C31417953   3.652   1.923   8.161 -0.1022 -0.1247  0.5630
  160SAPE  H14X17954   3.563   1.886   8.105  0.5558  1.3754 -1.5594
  160SAPE  H14Y17955   3.641   2.028   8.196  2.3042  0.9922 -1.7812
  160SAPE  C31517956   3.685   1.827   8.278 -0.1597 -0.0955 -0.2481
  160SAPE  H15X17957   3.777   1.850   8.337 -0.0398 -1.9120  0.3073
  160SAPE  H15Y17958   3.684   1.723   8.239 -0.5963  0.6443 -2.2224
  160SAPE  C31617959   3.578   1.824   8.388 -0.1671 -0.3591 -0.5879
  160SAPE  H16X17960   3.482   1.800   8.337  0.4183  0.1915 -1.9614
  160SAPE  H16Y17961   3.564   1.918   8.446  2.4735  0.3481 -1.0374
  160SAPE  C31717962   3.598   1.717   8.496  0.3218  0.4698 -0.1438
  160SAPE  H17X17963   3.637   1.627   8.443 -0.2287  1.0743 -1.5799
  160SAPE  H17Y17964   3.500   1.688   8.538  1.5646  1.0940  3.4208
  160SAPE  C31817965   3.666   1.767   8.625 -0.1920  0.3100  0.0615
  160SAPE  H18X17966   3.602   1.836   8.683 -0.1437 -0.2320  0.7682
  160SAPE  H18Y17967   3.760   1.817   8.594 -0.3468 -0.8603 -2.4142
  160SAPE  H18Z17968   3.696   1.682   8.690  0.3660 -0.6409 -1.4149
  161SOPE     N17969   2.708   4.847  10.732 -0.1289  0.1964  0.0346
  161SOPE   HN117970   2.682   4.913  10.656  3.3185  0.7311 -0.7719
  161SOPE   HN217971   2.631   4.848  10.802 -0.3091 -3.7282 -0.0005
  161SOPE   HN317972   2.798   4.876  10.776  0.6502 -1.2307 -0.5879
  161SOPE   C1217973   2.711   4.714  10.662  0.2007 -0.0599 -0.4555
  161SOPE  H12A17974   2.616   4.706  10.605  0.4822 -0.3169 -0.8883
  161SOPE  H12B17975   2.718   4.637  10.743 -0.7972  0.0954 -0.2228
  161SOPE   C1117976   2.828   4.684  10.575 -0.4933  0.0411 -0.4680
  161SOPE  H11A17977   2.812   4.746  10.483  0.8274  0.7276 -0.2385
  161SOPE  H11B17978   2.830   4.577  10.548 -0.2561 -0.3778  1.1902
  161SOPE     P17979   3.058   4.808  10.574 -0.1582 -0.0410 -0.0825
  161SOPE   O1317980   3.190   4.779  10.634 -0.0453  0.4819 -0.2871
  161SOPE   O1417981   3.011   4.952  10.573 -0.3582 -0.0192  0.1319
  161SOPE   O1217982   2.951   4.712  10.647 -0.4477  0.2059 -0.3788
  161SOPE   O1117983   3.055   4.758  10.427 -0.1424  0.2442  0.4844
  161SOPE    C117984   3.116   4.630  10.395 -0.5556 -0.6336 -1.0828
  161SOPE    HA17985   3.075   4.545  10.453 -2.2950  0.3021 -0.9288
  161SOPE    HB17986   3.223   4.639  10.424 -1.2887  1.5388  1.1235
  161SOPE    C217987   3.098   4.590  10.245 -0.1216 -0.2077  0.8087
  161SOPE    HS17988   3.111   4.685  10.190  0.7457 -0.5300  0.4573
  161SOPE   O2117989   2.960   4.543  10.235 -0.2063  0.2688 -0.3219
  161SOPE   C2117990   2.864   4.638  10.208 -0.8223 -0.1214  0.2151
  161SOPE   O2217991   2.884   4.758  10.197  0.0945 -0.0419 -0.1980
  161SOPE   C2217992   2.731   4.573  10.201 -0.2366  0.9075  0.1970
  161SOPE   H2R17993   2.652   4.651  10.209 -0.1455  0.8517  1.8110
  161SOPE   H2S17994   2.720   4.495  10.280 -2.1813  1.3723  0.4165
  161SOPE    C317995   3.201   4.482  10.195  0.6042  0.5047  0.1525
  161SOPE    HX17996   3.188   4.388  10.254 -0.5347 -0.4586 -1.5958
  161SOPE    HY17997   3.300   4.526  10.221  1.5739 -1.7592  0.4748
  161SOPE   O3117998   3.196   4.456  10.053 -0.4021 -0.1455  0.0983
  161SOPE   C3117999   3.213   4.332  10.016 -0.0253 -0.5972  0.0051
  161SOPE   O3218000   3.220   4.234  10.086 -0.2303 -0.1575  0.1107
  161SOPE   C3218001   3.245   4.312   9.865  0.0227  0.1802  0.0854
  161SOPE   H2X18002   3.162   4.369   9.817  0.0509  0.9858  0.9737
  161SOPE   H2Y18003   3.230   4.205   9.841  2.9601 -0.8492  2.5307
  161SOPE   C2318004   2.710   4.498  10.065 -0.4878 -0.2562  0.6342
  161SOPE   H3R18005   2.801   4.436  10.047  0.0024  1.0198 -1.5007
  161SOPE   H3S18006   2.699   4.575   9.986 -1.4391 -1.7312 -0.6977
  161SOPE   C2418007   2.581   4.414  10.073  0.1458 -0.5430 -0.0890
  161SOPE   H4R18008   2.577   4.339   9.992  1.4035 -1.8121  1.0041
  161SOPE   H4S18009   2.586   4.361  10.170  0.3071  0.5443  0.5065
  161SOPE   C2518010   2.445   4.491  10.080 -0.4240  0.4200  0.1033
  161SOPE   H5R18011   2.364   4.421  10.108 -1.5287  1.3170 -0.8188
  161SOPE   H5S18012   2.453   4.566  10.162 -2.2027  1.9167 -1.0416
  161SOPE   C2618013   2.417   4.573   9.959 -0.3905 -0.0637  0.3276
  161SOPE   H6R18014   2.314   4.613   9.969 -0.8118 -1.1231  0.3475
  161SOPE   H6S18015   2.493   4.653   9.967  0.0913 -0.4965  0.1321
  161SOPE   C2718016   2.426   4.476   9.838  0.5472 -0.3010 -0.3408
  161SOPE   H7R18017   2.431   4.366   9.853 -1.9173 -0.5200 -0.8252
  161SOPE   H7S18018   2.331   4.486   9.781 -0.2349  0.0862  1.0154
  161SOPE   C2818019   2.545   4.511   9.742 -0.2242 -0.0169  0.4813
  161SOPE   H8R18020   2.641   4.499   9.797 -0.3302 -0.7545  0.5069
  161SOPE   H8S18021   2.546   4.432   9.664  1.0694  1.4173 -0.9851
  161SOPE   C2918022   2.521   4.646   9.676  0.2776 -0.3070  0.4522
  161SOPE   H9118023   2.444   4.707   9.728  3.8608  4.3042  0.6946
  161SOPE  C21018024   2.574   4.676   9.563  0.9034 -0.0783  0.3813
  161SOPE  H10118025   2.558   4.779   9.528  0.8139 -0.2679 -0.1396
  161SOPE  C21118026   2.665   4.595   9.475  0.0229  0.4218 -0.5683
  161SOPE  H11R18027   2.702   4.510   9.537 -1.7422  0.3162  0.3910
  161SOPE  H11S18028   2.752   4.656   9.445  0.6856 -0.8682 -1.3337
  161SOPE  C21218029   2.605   4.556   9.347 -0.8249 -0.0638 -0.0989
  161SOPE  H12R18030   2.503   4.511   9.354 -1.7671  1.8861 -1.1751
  161SOPE  H12S18031   2.663   4.466   9.317 -1.1125 -1.5973  3.6135
  161SOPE  C21318032   2.598   4.666   9.236  0.4809  0.0374 -0.1384
  161SOPE  H13R18033   2.702   4.689   9.203  0.3106 -0.0641 -0.7455
  161SOPE  H13S18034   2.560   4.758   9.286  2.8397  1.3797 -0.7431
  161SOPE  C21418035   2.504   4.627   9.117 -0.3047  0.0501 -0.4298
  161SOPE  H14R18036   2.403   4.605   9.159 -0.1768 -0.5681 -0.4478
  161SOPE  H14S18037   2.545   4.528   9.089  0.3486 -0.5967  2.6036
  161SOPE  C21518038   2.513   4.725   9.000  0.3080 -0.8102 -0.3780
  161SOPE  H15R18039   2.463   4.821   9.025  2.3936 -0.1896  1.5488
  161SOPE  H15S18040   2.436   4.693   8.926 -0.7299 -0.1582  0.4011
  161SOPE  C21618041   2.651   4.730   8.937 -0.1574 -0.0778 -0.2528
  161SOPE  H16R18042   2.656   4.627   8.897 -1.0007 -0.1375 -0.2165
  161SOPE  H16S18043   2.735   4.768   8.999 -1.0497  0.5167  0.6222
  161SOPE  C21718044   2.650   4.834   8.825 -0.3916  0.0324 -0.0998
  161SOPE  H17R18045   2.695   4.932   8.851 -0.2440 -0.1548  0.3567
  161SOPE  H17S18046   2.544   4.844   8.794 -0.0457 -0.2041 -1.3674
  161SOPE  C21818047   2.738   4.784   8.701  0.6241  0.8621 -0.0925
  161SOPE  H18R18048   2.684   4.706   8.643  0.3952  0.1148  1.0899
  161SOPE  H18S18049   2.833   4.738   8.737 -0.2369 -0.9748 -0.1079
  161SOPE  H18T18050   2.770   4.869   8.639  0.7136 -0.7496 -2.3093
  161SOPE   C3318051   3.378   4.362   9.808  0.1311 -0.3611 -0.1688
  161SOPE   H3X18052   3.461   4.308   9.858 -0.4627  0.1827  1.4401
  161SOPE   H3Y18053   3.402   4.468   9.832 -2.6784  0.3251 -0.2633
  161SOPE   C3418054   3.395   4.344   9.652  0.7854 -0.7037 -0.3289
  161SOPE   H4X18055   3.502   4.364   9.629  0.4938  1.5452  0.1445
  161SOPE   H4Y18056   3.327   4.420   9.608 -0.4689 -2.2612 -1.1311
  161SOPE   C3518057   3.366   4.207   9.591  0.4511 -0.5218  0.2841
  161SOPE   H5X18058   3.260   4.185   9.614  0.1779  0.6090  0.0918
  161SOPE   H5Y18059   3.432   4.131   9.638  1.1987  1.0457  1.8271
  161SOPE   C3618060   3.393   4.207   9.436  0.4567  0.9346  0.4565
  161SOPE   H6X18061   3.501   4.221   9.416  0.3031 -1.8475 -2.8406
  161SOPE   H6Y18062   3.335   4.284   9.381  1.3381 -0.6759 -2.8485
  161SOPE   C3718063   3.356   4.069   9.359  0.4600  0.6065 -0.0114
  161SOPE   H7X18064   3.391   3.987   9.426 -0.6298  0.0378 -0.1388
  161SOPE   H7Y18065   3.413   4.052   9.265 -0.3274 -3.4119  0.1458
  161SOPE   C3818066   3.207   4.058   9.348  0.1074 -0.0007  0.3178
  161SOPE   H8X18067   3.171   4.123   9.265 -0.9510 -1.4514 -0.3824
  161SOPE   H8Y18068   3.167   4.108   9.439  0.9051  0.1768  0.5775
  161SOPE   C3918069   3.159   3.920   9.320  0.7476  0.6704  0.0792
  161SOPE   H9X18070   3.048   3.920   9.311  0.7772  0.0789 -0.3749
  161SOPE   H9Y18071   3.182   3.845   9.399  0.4906  0.9376  0.4063
  161SOPE  C31018072   3.188   3.860   9.182  0.7232 -0.6699  0.4669
  161SOPE  H10X18073   3.146   3.757   9.190 -3.3286  0.7425 -1.4714
  161SOPE  H10Y18074   3.298   3.845   9.172  1.0327  1.1735  0.9924
  161SOPE  C31118075   3.122   3.932   9.063  0.2056  0.2986 -0.2474
  161SOPE  H11X18076   3.179   4.022   9.031 -0.4485  0.6353 -0.4681
  161SOPE  H11Y18077   3.022   3.971   9.091 -0.6237  0.4515 -3.2925
  161SOPE  C31218078   3.092   3.828   8.955 -0.5768 -0.5846 -0.0474
  161SOPE  H12X18079   3.032   3.877   8.876  1.2281  0.0980 -1.0290
  161SOPE  H12Y18080   3.043   3.737   8.996 -2.1129  0.6732  0.9868
  161SOPE  C31318081   3.230   3.799   8.883 -0.3822 -0.3345  0.4888
  161SOPE  H13X18082   3.285   3.725   8.945  1.0781  0.1901 -0.1620
  161SOPE  H13Y18083   3.287   3.894   8.884  0.0508 -0.5390 -1.8682
  161SOPE  C31418084   3.229   3.753   8.739 -0.1093 -0.3827 -0.2245
  161SOPE  H14X18085   3.323   3.699   8.713 -0.1713 -0.5290 -0.1442
  161SOPE  H14Y18086   3.222   3.838   8.669  0.0975  0.6685  1.0051
  161SOPE  C31518087   3.118   3.649   8.705  0.3283  0.2732  0.2503
  161SOPE  H15X18088   3.019   3.696   8.723  0.9461  2.1454 -1.0081
  161SOPE  H15Y18089   3.132   3.556   8.763  0.0361 -1.1985 -1.9590
  161SOPE  C31618090   3.132   3.607   8.561 -0.2511 -0.7816 -0.2665
  161SOPE  H16X18091   3.089   3.506   8.546 -0.2332 -0.9416  0.7372
  161SOPE  H16Y18092   3.240   3.605   8.535 -0.2031  2.4299 -0.4793
  161SOPE  C31718093   3.050   3.698   8.460  0.4784  0.3899 -0.7582
  161SOPE  H17X18094   3.069   3.658   8.358  2.2455  0.7535 -0.5777
  161SOPE  H17Y18095   3.089   3.802   8.460 -1.0336  1.0021  1.7474
  161SOPE  C31818096   2.900   3.689   8.483 -0.2301 -0.2741 -0.1728
  161SOPE  H18X18097   2.869   3.584   8.500 -0.8093 -0.3151 -1.4431
  161SOPE  H18Y18098   2.854   3.730   8.391  1.4207 -0.8631 -1.2673
  161SOPE  H18Z18099   2.875   3.761   8.565  1.6645 -0.3797  0.5137
  162SOPE     N18100   1.772   4.732  11.000 -0.1509 -0.8002 -0.2846
  162SOPE   HN118101   1.780   4.740  11.104 -1.3916  0.9809 -0.3063
  162SOPE   HN218102   1.783   4.822  10.950 -1.3237  0.6127  1.9236
  162SOPE   HN318103   1.675   4.697  10.985 -1.2589  2.4782 -1.1021
  162SOPE   C1218104   1.875   4.648  10.935  0.0211  0.1600  0.1501
  162SOPE  H12A18105   1.909   4.579  11.014  0.7297 -0.2696 -0.5206
  162SOPE  H12B18106   1.964   4.708  10.909 -0.8788  1.4764  0.0333
  162SOPE   C1118107   1.816   4.563  10.819  0.6693 -0.1672 -0.4775
  162SOPE  H11A18108   1.900   4.529  10.754  1.1002 -4.6409  2.1621
  162SOPE  H11B18109   1.756   4.638  10.765  0.4410  1.1908  1.6014
  162SOPE     P18110   1.809   4.315  10.918 -0.1315  0.1828 -0.2782
  162SOPE   O1318111   1.721   4.251  11.019  0.1615 -0.1573  0.0490
  162SOPE   O1418112   1.948   4.353  10.966  0.4206 -0.8615  0.6045
  162SOPE   O1218113   1.747   4.454  10.870  0.4488  0.2937 -0.3250
  162SOPE   O1118114   1.820   4.220  10.791  0.0581  0.0141 -0.2533
  162SOPE    C118115   1.714   4.195  10.699 -0.1295 -0.3140 -0.0563
  162SOPE    HA18116   1.739   4.248  10.604  0.8032 -0.6575 -0.0086
  162SOPE    HB18117   1.626   4.244  10.746  0.1107  0.7192 -0.6534
  162SOPE    C218118   1.694   4.048  10.665  0.9300 -0.5715 -0.4728
  162SOPE    HS18119   1.710   3.992  10.759  0.9768  2.0621  1.1231
  162SOPE   O2118120   1.787   4.007  10.567 -0.7468 -0.5154 -0.0062
  162SOPE   C2118121   1.802   3.875  10.552 -0.2410  0.4857  0.5146
  162SOPE   O2218122   1.739   3.792  10.624 -0.1778 -0.0677  0.0180
  162SOPE   C2218123   1.895   3.852  10.442 -0.3076 -0.1111  0.7780
  162SOPE   H2R18124   1.943   3.752  10.455 -1.1053 -0.8471 -1.7502
  162SOPE   H2S18125   1.978   3.926  10.434  1.1587 -1.9663 -2.0961
  162SOPE    C318126   1.540   4.011  10.622 -0.0727  0.8519 -0.0735
  162SOPE    HX18127   1.476   4.041  10.707 -0.6267 -0.4034 -0.0397
  162SOPE    HY18128   1.527   3.900  10.624 -0.7794  0.9457  1.4608
  162SOPE   O3118129   1.513   4.077  10.495  0.8220 -0.0318  0.5287
  162SOPE   C3118130   1.491   4.021  10.378 -0.6960  0.8130 -0.0515
  162SOPE   O3218131   1.483   3.902  10.354 -0.2769 -0.1274 -0.1066
  162SOPE   C3218132   1.485   4.122  10.271 -0.0922 -0.1043  0.4758
  162SOPE   H2X18133   1.583   4.174  10.282  0.6198 -1.8879  2.8952
  162SOPE   H2Y18134   1.409   4.195  10.306  0.3347  0.4285  0.2941
  162SOPE   C2318135   1.829   3.850  10.306 -0.0189 -0.3995 -0.6385
  162SOPE   H3R18136   1.772   3.942  10.281  3.2577  1.8562 -0.1885
  162SOPE   H3S18137   1.768   3.759  10.294 -1.6129  0.5974 -0.2445
  162SOPE   C2418138   1.920   3.841  10.191  0.6435  0.3596 -0.2831
  162SOPE   H4R18139   1.960   3.944  10.191  0.1182  0.5789 -2.0643
  162SOPE   H4S18140   2.000   3.764  10.201  0.8682  0.6598  0.2650
  162SOPE   C2518141   1.847   3.817  10.053 -0.0171 -0.0174  0.5477
  162SOPE   H5R18142   1.834   3.708  10.036  1.4532  0.0091 -0.9537
  162SOPE   H5S18143   1.744   3.858  10.049 -0.9720 -2.4226 -1.1570
  162SOPE   C2618144   1.914   3.882   9.936 -0.0478 -0.0239  0.1309
  162SOPE   H6R18145   1.921   3.991   9.958  0.3104  0.1118 -0.6230
  162SOPE   H6S18146   2.017   3.842   9.941  0.8715  2.0808 -1.1935
  162SOPE   C2718147   1.850   3.827   9.803 -0.4304  0.3158  0.3774
  162SOPE   H7R18148   1.918   3.836   9.715  0.7903 -0.0421  1.2777
  162SOPE   H7S18149   1.817   3.721   9.818 -0.1889  0.2968  0.7600
  162SOPE   C2818150   1.727   3.911   9.756  0.1491 -0.6725 -0.0519
  162SOPE   H8R18151   1.639   3.883   9.818  0.1630  1.4265  0.9467
  162SOPE   H8S18152   1.743   4.020   9.770 -2.7283 -0.1170 -0.6816
  162SOPE   C2918153   1.691   3.886   9.609  0.4980 -0.1482 -0.4752
  162SOPE   H9118154   1.649   3.786   9.589  1.1832  0.4072 -5.4283
  162SOPE  C21018155   1.735   3.955   9.498 -0.3557 -0.6628 -0.4516
  162SOPE  H10118156   1.704   3.924   9.397 -1.5013  0.3733 -0.4192
  162SOPE  C21118157   1.829   4.078   9.506 -0.4175  0.2046 -0.6143
  162SOPE  H11R18158   1.933   4.038   9.505  0.0109  1.2336  0.9633
  162SOPE  H11S18159   1.806   4.133   9.600  2.5364  0.1447  0.1890
  162SOPE  C21218160   1.816   4.175   9.391  0.3388  1.0735 -0.0235
  162SOPE  H12R18161   1.872   4.267   9.418  3.2528 -1.5100  3.0838
  162SOPE  H12S18162   1.711   4.210   9.376 -0.5032 -1.8964 -1.5730
  162SOPE  C21318163   1.870   4.126   9.256  0.0706 -0.5072 -0.0842
  162SOPE  H13R18164   1.800   4.046   9.225  1.1316 -0.4621 -2.7365
  162SOPE  H13S18165   1.975   4.090   9.261  0.5376  0.8185  0.0585
  162SOPE  C21418166   1.866   4.244   9.159 -0.0971  0.0827  1.1832
  162SOPE  H14R18167   1.949   4.314   9.185  0.7051 -0.4386  0.0332
  162SOPE  H14S18168   1.766   4.291   9.172 -0.2867 -0.1154  0.4348
  162SOPE  C21518169   1.893   4.221   9.008 -0.1398 -0.0171  0.0021
  162SOPE  H15R18170   1.819   4.145   8.974 -0.3612 -0.2907  1.0626
  162SOPE  H15S18171   1.993   4.175   8.989  0.7058  1.2037  1.3672
  162SOPE  C21618172   1.892   4.344   8.924  0.7588 -0.7288  0.2322
  162SOPE  H16R18173   1.941   4.333   8.825  1.2952 -1.1848  0.5428
  162SOPE  H16S18174   1.944   4.431   8.971 -0.1182 -0.9286  1.5968
  162SOPE  C21718175   1.746   4.383   8.887  0.0108  0.4862  0.1168
  162SOPE  H17R18176   1.693   4.421   8.977 -0.0079  0.0896  0.2762
  162SOPE  H17S18177   1.699   4.287   8.857  2.9073 -0.1789 -2.5411
  162SOPE  C21818178   1.740   4.474   8.763 -0.2689  0.1235 -0.1579
  162SOPE  H18R18179   1.642   4.525   8.765  0.4325  1.5310  3.2893
  162SOPE  H18S18180   1.772   4.434   8.664  2.5736 -1.2350  1.2298
  162SOPE  H18T18181   1.809   4.561   8.775  0.0140  0.0247 -1.0402
  162SOPE   C3318182   1.463   4.067  10.123  0.0782 -0.3693  0.2441
  162SOPE   H3X18183   1.383   3.990  10.118 -0.8528  0.4504  2.2322
  162SOPE   H3Y18184   1.548   4.000  10.098 -0.3207 -0.0015 -2.2492
  162SOPE   C3418185   1.448   4.182  10.022  0.1491  0.1079  0.4655
  162SOPE   H4X18186   1.528   4.256  10.041 -1.7961  1.9858  1.6346
  162SOPE   H4Y18187   1.352   4.235  10.040  0.1257  0.5281 -0.8373
  162SOPE   C3518188   1.447   4.142   9.881 -0.2782  0.1821  0.3898
  162SOPE   H5X18189   1.391   4.047   9.868  0.3349  0.0316 -1.2473
  162SOPE   H5Y18190   1.551   4.122   9.847  0.2670 -0.1609  2.1744
  162SOPE   C3618191   1.396   4.246   9.780 -0.9138 -0.0837 -0.3890
  162SOPE   H6X18192   1.438   4.344   9.812 -1.0821 -0.0853 -0.1648
  162SOPE   H6Y18193   1.285   4.255   9.786 -0.6859  1.7489  2.1024
  162SOPE   C3718194   1.449   4.216   9.636 -0.0894 -0.1444  0.1882
  162SOPE   H7X18195   1.405   4.118   9.607  1.5894 -0.9937  0.4213
  162SOPE   H7Y18196   1.560   4.205   9.644 -0.1363 -0.0725  0.9869
  162SOPE   C3818197   1.413   4.320   9.533  0.5984 -1.0192  0.0664
  162SOPE   H8X18198   1.304   4.329   9.551  0.6728  0.9732 -0.4033
  162SOPE   H8Y18199   1.420   4.283   9.428  0.7899 -0.3905 -0.1452
  162SOPE   C3918200   1.476   4.463   9.537  0.2901  0.4779  0.0993
  162SOPE   H9X18201   1.584   4.447   9.555  0.2240 -0.0700  0.0350
  162SOPE   H9Y18202   1.416   4.515   9.615 -3.6053  0.0179 -2.4447
  162SOPE  C31018203   1.465   4.530   9.401 -0.3924 -0.3240 -0.2406
  162SOPE  H10X18204   1.484   4.634   9.434 -2.0603  0.3792 -1.4301
  162SOPE  H10Y18205   1.362   4.529   9.359 -0.2658  0.6022 -0.5957
  162SOPE  C31118206   1.578   4.494   9.302 -0.1948  0.6273 -0.2574
  162SOPE  H11X18207   1.574   4.390   9.265  0.3399 -0.0638  1.5808
  162SOPE  H11Y18208   1.674   4.533   9.342 -0.0907  0.3348 -0.2265
  162SOPE  C31218209   1.556   4.591   9.174 -0.2089 -0.0121 -0.2109
  162SOPE  H12X18210   1.654   4.607   9.124  0.1353 -0.9047  0.1672
  162SOPE  H12Y18211   1.527   4.691   9.211  2.8471 -0.0737  2.6039
  162SOPE  C31318212   1.439   4.544   9.074  0.2635 -0.4886 -0.6004
  162SOPE  H13X18213   1.338   4.542   9.120  0.0126  0.5822 -1.0864
  162SOPE  H13Y18214   1.462   4.440   9.043  3.8176  0.1258 -0.1540
  162SOPE  C31418215   1.430   4.639   8.959  0.5376 -0.1751  0.0503
  162SOPE  H14X18216   1.535   4.649   8.923  0.8255 -0.3383  0.8420
  162SOPE  H14Y18217   1.405   4.744   8.989  0.6761 -0.5821  1.6387
  162SOPE  C31518218   1.338   4.596   8.840  0.1001  0.5111  0.9108
  162SOPE  H15X18219   1.361   4.492   8.810 -0.9991  0.6858 -0.5534
  162SOPE  H15Y18220   1.364   4.674   8.765  1.9227  0.4823  1.4700
  162SOPE  C31618221   1.190   4.588   8.874 -0.0188  0.6313 -0.1235
  162SOPE  H16X18222   1.152   4.678   8.927 -0.9864 -0.2628  0.7440
  162SOPE  H16Y18223   1.186   4.509   8.952 -3.2401  1.0319  0.1841
  162SOPE  C31718224   1.088   4.553   8.765 -0.0300 -0.9002  0.0203
  162SOPE  H17X18225   1.076   4.630   8.687 -0.4052 -1.9377 -0.9615
  162SOPE  H17Y18226   0.987   4.555   8.810 -0.2561  0.7036 -0.5371
  162SOPE  C31818227   1.102   4.411   8.716 -0.2016  0.5270  0.0070
  162SOPE  H18X18228   1.204   4.385   8.682 -0.7308  0.8108 -1.8654
  162SOPE  H18Y18229   1.041   4.391   8.626 -0.0528  0.5991 -0.1104
  162SOPE  H18Z18230   1.075   4.344   8.801  3.5337  1.0235  1.7127
  163SOPE     N18231   2.913   1.841  10.690 -0.3890 -0.3475 -0.5946
  163SOPE   HN118232   2.945   1.829  10.788  1.3693  0.1977 -1.0690
  163SOPE   HN218233   2.955   1.930  10.656 -2.2069  0.6726 -0.2035
  163SOPE   HN318234   2.814   1.864  10.710  0.0165  0.2222  0.8457
  163SOPE   C1218235   2.918   1.730  10.599 -0.8274 -0.0126  0.2926
  163SOPE  H12A18236   3.023   1.697  10.583 -0.7746  0.0072  0.5933
  163SOPE  H12B18237   2.899   1.769  10.497  1.1937  2.5010  0.8271
  163SOPE   C1118238   2.834   1.617  10.646  0.1728 -0.2532 -0.4140
  163SOPE  H11A18239   2.871   1.581  10.745  1.5369 -1.3866 -1.3172
  163SOPE  H11B18240   2.842   1.532  10.575 -1.2443  0.0663 -0.9727
  163SOPE     P18241   2.577   1.564  10.684 -0.6466 -0.2461  0.3027
  163SOPE   O1318242   2.501   1.614  10.801 -0.3001 -0.1774 -0.1630
  163SOPE   O1418243   2.633   1.425  10.692 -0.4917  0.1665 -0.7885
  163SOPE   O1218244   2.702   1.663  10.666 -0.0600  0.6530 -0.0331
  163SOPE   O1118245   2.485   1.574  10.563  0.1455  0.6805 -0.2658
  163SOPE    C118246   2.553   1.568  10.429  0.0159 -0.3731 -0.2638
  163SOPE    HA18247   2.644   1.503  10.427 -0.7757 -1.5975  1.8563
  163SOPE    HB18248   2.586   1.668  10.395 -1.9768  0.4082  0.0424
  163SOPE    C218249   2.458   1.527  10.316 -0.2788  0.4741  0.7479
  163SOPE    HS18250   2.526   1.522  10.228 -1.3393 -0.5544 -0.0324
  163SOPE   O2118251   2.353   1.621  10.301  0.0199 -0.4004  0.2638
  163SOPE   C2118252   2.382   1.732  10.232  0.0890 -0.7327  0.1416
  163SOPE   O2218253   2.492   1.756  10.182 -0.3342 -0.5785  0.2556
  163SOPE   C2218254   2.260   1.826  10.229  0.4182  0.8076 -0.2405
  163SOPE   H2R18255   2.250   1.876  10.328 -0.7734  1.9081 -0.9017
  163SOPE   H2S18256   2.172   1.760  10.214 -0.6761  1.2614  3.6078
  163SOPE    C318257   2.405   1.385  10.343 -0.1163  0.2342 -0.0602
  163SOPE    HX18258   2.345   1.389  10.436  1.2283 -1.1191  0.8955
  163SOPE    HY18259   2.501   1.330  10.357 -1.0037 -0.9372  1.6249
  163SOPE   O3118260   2.339   1.333  10.224 -0.1329  0.1606  0.0877
  163SOPE   C3118261   2.328   1.204  10.227 -0.1537  0.0240  0.1471
  163SOPE   O3218262   2.374   1.129  10.316 -0.1306  0.3568  0.5912
  163SOPE   C3218263   2.272   1.151  10.091  0.2708 -0.1864  0.5509
  163SOPE   H2X18264   2.348   1.196  10.023 -0.1782  2.0149  1.4842
  163SOPE   H2Y18265   2.172   1.195  10.071  0.0380 -0.5984  0.7977
  163SOPE   C2318266   2.250   1.927  10.108 -0.2227 -0.1587 -0.2065
  163SOPE   H3R18267   2.323   2.007  10.086 -0.2145 -0.0459  0.2314
  163SOPE   H3S18268   2.158   1.981  10.139 -0.6641 -1.9006  1.5941
  163SOPE   C2418269   2.218   1.846   9.980 -0.4324 -0.4502 -0.6297
  163SOPE   H4R18270   2.315   1.795   9.966 -0.2721 -1.1531  2.5477
  163SOPE   H4S18271   2.135   1.773   9.995 -0.1673 -1.1381 -2.4206
  163SOPE   C2518272   2.200   1.945   9.861  0.4998 -0.7852 -0.1707
  163SOPE   H5R18273   2.120   2.016   9.891  0.6857 -1.2874  1.5576
  163SOPE   H5S18274   2.293   1.993   9.822  0.1030 -0.4148 -0.6696
  163SOPE   C2618275   2.152   1.884   9.722  0.4681 -0.1580 -0.0729
  163SOPE   H6R18276   2.053   1.842   9.752  0.7682 -0.4929  0.4373
  163SOPE   H6S18277   2.120   1.969   9.657 -2.3652 -1.3868 -0.3502
  163SOPE   C2718278   2.254   1.786   9.674 -0.0439 -0.1267 -0.4469
  163SOPE   H7R18279   2.350   1.827   9.711 -0.6931  1.5240 -0.5382
  163SOPE   H7S18280   2.230   1.684   9.710  1.9909 -1.2389 -2.0946
  163SOPE   C2818281   2.262   1.789   9.519  0.4334  0.8072  0.2655
  163SOPE   H8R18282   2.323   1.700   9.492  0.6485  0.2433  2.4871
  163SOPE   H8S18283   2.161   1.771   9.477  0.8608 -1.0962  0.0027
  163SOPE   C2918284   2.309   1.922   9.473  0.6725  0.1915 -0.1261
  163SOPE   H9118285   2.353   1.981   9.555 -1.0550 -1.0036  1.7070
  163SOPE  C21018286   2.303   1.977   9.352 -0.2082  0.6636  0.1622
  163SOPE  H10118287   2.324   2.085   9.347  0.1601  0.5555 -0.7998
  163SOPE  C21118288   2.258   1.908   9.224 -0.3360 -0.3074 -0.1466
  163SOPE  H11R18289   2.148   1.917   9.214 -0.5515 -2.7266 -0.3198
  163SOPE  H11S18290   2.276   1.798   9.229 -3.8539 -0.9347  0.0758
  163SOPE  C21218291   2.319   1.966   9.088 -0.6102 -0.0759  0.3666
  163SOPE  H12R18292   2.428   1.945   9.074 -0.7376  0.1383 -1.0436
  163SOPE  H12S18293   2.291   2.073   9.086 -0.3998 -0.0039  1.0550
  163SOPE  C21318294   2.265   1.918   8.952 -0.4815 -0.3548 -0.5239
  163SOPE  H13R18295   2.271   2.001   8.879 -2.6176  1.3431  1.1479
  163SOPE  H13S18296   2.158   1.893   8.968 -0.5113 -1.1552 -1.8864
  163SOPE  C21418297   2.328   1.794   8.887  0.2544 -0.0819  0.6412
  163SOPE  H14R18298   2.314   1.698   8.942 -0.6261 -1.5478 -2.0524
  163SOPE  H14S18299   2.436   1.820   8.884  0.0939  0.5294  0.0525
  163SOPE  C21518300   2.278   1.755   8.750 -0.8592 -0.1308  0.2972
  163SOPE  H15R18301   2.259   1.844   8.685  2.0886  0.3355  0.0010
  163SOPE  H15S18302   2.190   1.688   8.750 -0.8416 -0.1536 -0.2108
  163SOPE  C21618303   2.378   1.675   8.677  0.2289 -0.2434  0.5648
  163SOPE  H16R18304   2.418   1.607   8.755 -1.5593 -2.9488 -0.7994
  163SOPE  H16S18305   2.453   1.742   8.630 -0.0263 -0.3669 -0.0195
  163SOPE  C21718306   2.317   1.580   8.566  0.1302 -0.8109 -0.2560
  163SOPE  H17R18307   2.234   1.637   8.519  2.7991  0.5939 -3.5299
  163SOPE  H17S18308   2.263   1.496   8.615 -0.8736  1.4368  2.6055
  163SOPE  C21818309   2.430   1.538   8.475 -0.4761 -0.0255  0.2627
  163SOPE  H18R18310   2.461   1.633   8.425  0.5800 -1.5757 -2.1091
  163SOPE  H18S18311   2.396   1.463   8.401  2.8036  0.8371 -2.2046
  163SOPE  H18T18312   2.519   1.495   8.524 -0.4200 -1.5201 -1.1207
  163SOPE   C3318313   2.254   0.997  10.070 -0.0146 -0.0961 -0.1848
  163SOPE   H3X18314   2.145   0.975  10.081 -0.3180  1.1917 -0.5777
  163SOPE   H3Y18315   2.306   0.926  10.138  1.0347 -1.9882 -2.8766
  163SOPE   C3418316   2.302   0.954   9.925 -1.2393  0.1160 -0.2507
  163SOPE   H4X18317   2.281   0.845   9.920  0.6537 -0.4519  2.7765
  163SOPE   H4Y18318   2.412   0.968   9.916 -1.2188  0.3055  0.2437
  163SOPE   C3518319   2.223   1.020   9.806 -0.8758  0.6937  0.7453
  163SOPE   H5X18320   2.235   1.130   9.819  2.1705  0.3097  1.5478
  163SOPE   H5Y18321   2.121   0.979   9.819 -0.2533 -1.2819 -0.4546
  163SOPE   C3618322   2.281   0.987   9.670 -0.3235  0.6955 -0.2699
  163SOPE   H6X18323   2.280   0.878   9.648  1.2681  1.2724 -3.4491
  163SOPE   H6Y18324   2.389   1.010   9.664  0.0254 -1.2251 -2.0649
  163SOPE   C3718325   2.218   1.052   9.549  0.3128  0.8385  0.2517
  163SOPE   H7X18326   2.266   1.149   9.523 -0.4845  0.9418 -0.9039
  163SOPE   H7Y18327   2.111   1.077   9.569  0.3235  1.9406 -0.9816
  163SOPE   C3818328   2.217   0.959   9.429  0.6649  0.5006  0.0130
  163SOPE   H8X18329   2.159   0.874   9.471  2.1686  0.6402  2.4641
  163SOPE   H8Y18330   2.319   0.921   9.405  0.0569 -0.3039 -1.3826
  163SOPE   C3918331   2.142   1.013   9.310 -0.1527 -0.1659  0.4111
  163SOPE   H9X18332   2.201   1.092   9.260 -0.3301 -1.1470 -1.3868
  163SOPE   H9Y18333   2.045   1.057   9.343 -0.1958  0.6014 -0.7135
  163SOPE  C31018334   2.121   0.894   9.206  0.4960  0.1619  0.1248
  163SOPE  H10X18335   2.037   0.836   9.251 -0.1837  1.3343  0.4000
  163SOPE  H10Y18336   2.200   0.817   9.190  1.7721  1.7109 -1.1551
  163SOPE  C31118337   2.063   0.950   9.074 -1.1518 -0.5964  0.1760
  163SOPE  H11X18338   1.989   1.027   9.103 -0.3987  1.0998 -2.2190
  163SOPE  H11Y18339   2.020   0.867   9.013 -1.0677  0.1498 -0.9223
  163SOPE  C31218340   2.168   1.024   8.989  0.6353  0.4134 -0.7625
  163SOPE  H12X18341   2.268   0.975   8.995  0.1805 -0.3832  0.4936
  163SOPE  H12Y18342   2.181   1.125   9.035 -1.6445 -0.1595  1.2678
  163SOPE  C31318343   2.136   1.021   8.839  0.7341  0.3832 -0.6756
  163SOPE  H13X18344   2.039   1.073   8.829 -0.0035 -0.9538 -0.5830
  163SOPE  H13Y18345   2.118   0.917   8.804  0.2622  0.5196 -0.8331
  163SOPE  C31418346   2.240   1.080   8.748 -0.0058  0.3144 -0.7296
  163SOPE  H14X18347   2.263   1.188   8.759 -1.8336  0.6902 -0.4476
  163SOPE  H14Y18348   2.191   1.081   8.648  0.0363 -1.7717 -0.8038
  163SOPE  C31518349   2.373   1.008   8.746  0.3732 -0.0567 -0.3350
  163SOPE  H15X18350   2.354   0.902   8.721  0.3067  0.2494 -1.6381
  163SOPE  H15Y18351   2.438   1.011   8.836 -0.6135  0.1595  0.3732
  163SOPE  C31618352   2.472   1.050   8.636 -0.0618 -0.4089 -0.8959
  163SOPE  H16X18353   2.445   1.011   8.536 -0.6196  0.7660 -1.2169
  163SOPE  H16Y18354   2.564   0.997   8.665  0.4125  1.8254  1.9256
  163SOPE  C31718355   2.520   1.201   8.631 -0.2929  0.2588 -0.1904
  163SOPE  H17X18356   2.430   1.257   8.597  1.4644  2.7431 -0.8146
  163SOPE  H17Y18357   2.594   1.217   8.551  2.1178 -0.7731  1.7670
  163SOPE  C31818358   2.576   1.251   8.765 -0.7873  0.4963 -0.4662
  163SOPE  H18X18359   2.519   1.226   8.857 -0.8224  1.8604 -0.1053
  163SOPE  H18Y18360   2.588   1.361   8.775 -0.4826  0.4052  0.1352
  163SOPE  H18Z18361   2.681   1.215   8.768 -0.5043  1.2564 -0.8836
  164SOPE     N18362   5.029   6.044  11.018  0.2790 -0.1791  0.2136
  164SOPE   HN118363   5.130   6.059  11.033  0.8702 -2.2911 -1.4370
  164SOPE   HN218364   4.982   6.054  11.111  0.2523 -1.0499  0.2962
  164SOPE   HN318365   5.007   5.948  10.986 -1.2948  1.4999 -4.0567
  164SOPE   C1218366   4.988   6.155  10.919 -0.1468  0.4136 -0.0628
  164SOPE  H12A18367   4.985   6.251  10.975 -1.3444  1.6739 -2.2252
  164SOPE  H12B18368   4.889   6.118  10.886 -0.4634  0.7192  0.5420
  164SOPE   C1118369   5.091   6.148  10.802  0.4191 -0.2564 -0.0571
  164SOPE  H11A18370   5.063   6.220  10.722  1.9378  0.7996  0.3442
  164SOPE  H11B18371   5.078   6.053  10.746  0.0409 -1.4885  2.0514
  164SOPE     P18372   5.304   6.300  10.839 -0.1233  0.4250 -0.1159
  164SOPE   O1318373   5.435   6.288  10.912 -0.4041  0.1284 -0.0363
  164SOPE   O1418374   5.208   6.411  10.870 -0.6309  0.6611 -0.1161
  164SOPE   O1218375   5.225   6.165  10.844 -0.5354  0.3448 -0.1437
  164SOPE   O1118376   5.344   6.306  10.694  0.0265  0.3902 -0.4605
  164SOPE    C118377   5.387   6.190  10.624  0.1248 -0.3701 -0.0476
  164SOPE    HA18378   5.300   6.122  10.610 -0.4042 -0.2685  2.4532
  164SOPE    HB18379   5.477   6.138  10.664 -0.0585  1.4423  2.8423
  164SOPE    C218380   5.421   6.231  10.474  0.3843  0.1929  0.6228
  164SOPE    HS18381   5.439   6.131  10.429  0.9656  0.5744 -0.0041
  164SOPE   O2118382   5.528   6.323  10.454 -0.4868  0.7588  0.1752
  164SOPE   C2118383   5.651   6.282  10.483 -0.3049  0.4161 -0.6710
  164SOPE   O2218384   5.682   6.172  10.520 -0.5007  0.0883  0.3142
  164SOPE   C2218385   5.736   6.412  10.494 -0.1275 -1.0862 -0.1461
  164SOPE   H2R18386   5.776   6.421  10.598 -2.2210  3.1508  0.3998
  164SOPE   H2S18387   5.673   6.504  10.492  1.0819 -0.2399 -0.1622
  164SOPE    C318388   5.297   6.296  10.412 -0.0657 -0.1880  0.1361
  164SOPE    HX18389   5.294   6.403  10.442 -0.7956  0.0261 -0.6707
  164SOPE    HY18390   5.201   6.257  10.453 -1.0923  2.2722  0.1651
  164SOPE   O3118391   5.298   6.284  10.268  0.2373  0.7163  0.3786
  164SOPE   C3118392   5.345   6.389  10.203  1.0734 -0.1900  0.2134
  164SOPE   O3218393   5.397   6.484  10.253 -0.3041 -0.0903  0.0022
  164SOPE   C3218394   5.338   6.368  10.051 -0.0365 -0.1022  0.2734
  164SOPE   H2X18395   5.231   6.368  10.024 -0.0785  1.0404  0.4181
  164SOPE   H2Y18396   5.371   6.264  10.031 -0.9668 -0.7892  2.1922
  164SOPE   C2318397   5.857   6.408  10.400 -0.4430  0.3993  0.7689
  164SOPE   H3R18398   5.914   6.313  10.411 -0.8310 -0.0581 -0.9990
  164SOPE   H3S18399   5.927   6.489  10.431 -2.4644  1.2282  3.2646
  164SOPE   C2418400   5.825   6.431  10.252  0.5681 -0.1095 -0.7359
  164SOPE   H4R18401   5.795   6.332  10.209  4.0432 -1.3645 -0.4580
  164SOPE   H4S18402   5.753   6.515  10.255  2.2122  1.2892  0.2470
  164SOPE   C2518403   5.950   6.467  10.170 -0.3273 -0.6402  0.3244
  164SOPE   H5R18404   6.004   6.549  10.222 -0.4200  0.3233 -1.0685
  164SOPE   H5S18405   6.016   6.379  10.159  1.0381  0.4395 -0.2044
  164SOPE   C2618406   5.927   6.511  10.032 -0.0911 -0.3390  0.4607
  164SOPE   H6R18407   6.022   6.491   9.976 -1.0172 -0.8040 -0.9846
  164SOPE   H6S18408   5.850   6.457   9.973 -0.5728  1.1377 -0.3065
  164SOPE   C2718409   5.895   6.659  10.021 -0.1354 -0.1076  0.0883
  164SOPE   H7R18410   5.800   6.687  10.070  1.1290  1.2324  1.8259
  164SOPE   H7S18411   5.976   6.716  10.072 -0.0824  0.7740 -0.9724
  164SOPE   C2818412   5.876   6.706   9.873  0.1792 -0.0643 -0.3600
  164SOPE   H8R18413   5.790   6.653   9.825 -0.3309  1.2684 -0.9352
  164SOPE   H8S18414   5.836   6.809   9.872  0.7403  0.1808 -3.3131
  164SOPE   C2918415   6.005   6.694   9.800  0.3230  0.4651 -0.1511
  164SOPE   H9118416   6.044   6.592   9.804 -1.5984 -0.2285  1.7893
  164SOPE  C21018417   6.072   6.780   9.725 -0.4693 -0.0933 -0.3090
  164SOPE  H10118418   6.170   6.768   9.678  0.7779  0.6397  2.0204
  164SOPE  C21118419   6.024   6.917   9.685  0.1720  0.2328 -1.1524
  164SOPE  H11R18420   6.093   6.988   9.736 -0.5692  0.1566 -0.0088
  164SOPE  H11S18421   5.920   6.930   9.724  0.3927 -1.7719  0.2181
  164SOPE  C21218422   6.038   6.930   9.531 -0.4911 -0.0102 -1.0298
  164SOPE  H12R18423   6.136   6.888   9.501 -1.0389 -2.8349  1.0400
  164SOPE  H12S18424   6.044   7.040   9.518  0.7759  0.1265  0.6187
  164SOPE  C21318425   5.925   6.866   9.451  0.0391 -0.2930 -0.9386
  164SOPE  H13R18426   5.834   6.923   9.481  0.6702  2.3852 -3.8851
  164SOPE  H13S18427   5.923   6.761   9.486  0.0181  1.3347  4.4278
  164SOPE  C21418428   5.941   6.887   9.300  0.5644  0.1882 -0.4265
  164SOPE  H14R18429   6.036   6.843   9.263  0.9675  0.9706 -0.3261
  164SOPE  H14S18430   5.941   6.998   9.299  1.4935  0.2400  1.7095
  164SOPE  C21518431   5.824   6.837   9.215  0.2075  0.7816  0.4775
  164SOPE  H15R18432   5.736   6.902   9.234 -0.7631 -0.1954 -0.5831
  164SOPE  H15S18433   5.791   6.734   9.240  1.0181  0.4542  0.1996
  164SOPE  C21618434   5.861   6.835   9.068  0.1869  0.8044  0.2611
  164SOPE  H16R18435   5.768   6.803   9.015  0.5180  1.6306 -0.8599
  164SOPE  H16S18436   5.944   6.768   9.039  0.4815  2.0603 -1.9943
  164SOPE  C21718437   5.905   6.973   9.019 -0.4956 -0.2710  0.5168
  164SOPE  H17R18438   5.992   7.009   9.078  0.7815 -0.2518 -1.3454
  164SOPE  H17S18439   5.821   7.041   9.046 -1.7675 -2.3074  1.8148
  164SOPE  C21818440   5.930   6.994   8.865 -0.3308 -0.3354  0.0000
  164SOPE  H18R18441   5.883   6.921   8.796  0.7051  0.0779 -1.1554
  164SOPE  H18S18442   6.037   7.009   8.840  0.3817  0.0077  3.0221
  164SOPE  H18T18443   5.886   7.093   8.838  1.0831  0.3678  0.2410
  164SOPE   C3318444   5.426   6.468   9.977  0.1802  0.2806  0.1850
  164SOPE   H3X18445   5.530   6.455  10.012  0.4978  0.3258 -0.7360
  164SOPE   H3Y18446   5.392   6.571  10.003  1.1709  0.7829 -0.4842
  164SOPE   C3418447   5.408   6.451   9.828 -0.1823 -0.4063 -0.3187
  164SOPE   H4X18448   5.305   6.490   9.810  0.8947  0.6642 -4.6833
  164SOPE   H4Y18449   5.414   6.348   9.787  1.6904 -0.3702 -0.1802
  164SOPE   C3518450   5.505   6.544   9.743 -0.1364 -0.1525 -0.0813
  164SOPE   H5X18451   5.590   6.479   9.711  0.9818  1.3519 -0.2180
  164SOPE   H5Y18452   5.532   6.628   9.810  0.2258  0.0477 -0.4815
  164SOPE   C3618453   5.436   6.598   9.615 -0.5668 -0.7770 -0.4179
  164SOPE   H6X18454   5.339   6.634   9.654  0.0154 -1.6046  1.8832
  164SOPE   H6Y18455   5.413   6.520   9.539  2.4815 -0.2065 -1.9976
  164SOPE   C3718456   5.524   6.705   9.551 -0.0308 -1.0273  0.1137
  164SOPE   H7X18457   5.623   6.659   9.532 -0.3747 -3.0403  2.9341
  164SOPE   H7Y18458   5.552   6.778   9.630  2.1704 -0.7574 -0.8780
  164SOPE   C3818459   5.450   6.764   9.426  0.6717 -0.5728  1.0327
  164SOPE   H8X18460   5.446   6.681   9.352  2.9874 -4.0024  4.5456
  164SOPE   H8Y18461   5.511   6.840   9.373 -0.5830  0.7790  1.4919
  164SOPE   C3918462   5.320   6.834   9.462 -0.2526  0.0510  0.9890
  164SOPE   H9X18463   5.343   6.937   9.497 -1.7437  0.4355  0.8768
  164SOPE   H9Y18464   5.261   6.784   9.542 -0.0209 -0.9786  0.5147
  164SOPE  C31018465   5.235   6.823   9.328  0.0827  0.2171  0.0129
  164SOPE  H10X18466   5.140   6.880   9.340  0.3844  0.9459 -0.9606
  164SOPE  H10Y18467   5.204   6.717   9.315 -0.2822  0.4593 -1.1257
  164SOPE  C31118468   5.302   6.872   9.195  0.1514  0.4874 -0.4002
  164SOPE  H11X18469   5.392   6.809   9.177  1.7628  2.6266 -0.0072
  164SOPE  H11Y18470   5.338   6.971   9.232 -1.5979  0.3315  1.8782
  164SOPE  C31218471   5.209   6.898   9.079 -0.0977 -0.6430  0.1309
  164SOPE  H12X18472   5.250   6.961   8.998 -0.6248 -0.7864 -0.2486
  164SOPE  H12Y18473   5.110   6.935   9.112 -0.1254  1.4405 -2.1947
  164SOPE  C31318474   5.169   6.765   9.008  0.5533  0.2994 -0.3168
  164SOPE  H13X18475   5.091   6.720   9.073 -2.1161  2.1513 -2.0940
  164SOPE  H13Y18476   5.258   6.702   8.987  1.1261  1.1606 -0.5279
  164SOPE  C31418477   5.078   6.788   8.877  0.3240  0.2668 -0.0525
  164SOPE  H14X18478   5.150   6.836   8.807 -1.8007 -0.2953 -2.6625
  164SOPE  H14Y18479   4.991   6.852   8.901 -0.0735 -0.7034  1.1605
  164SOPE  C31518480   5.036   6.652   8.812 -0.4213  0.5128  0.0438
  164SOPE  H15X18481   4.930   6.670   8.786 -0.7157  0.8855  1.4342
  164SOPE  H15Y18482   5.029   6.577   8.893 -0.1748  1.7178  1.2144
  164SOPE  C31618483   5.115   6.599   8.689  0.2779 -0.1765 -0.4556
  164SOPE  H16X18484   5.079   6.500   8.656 -1.2478  0.3311 -0.3551
  164SOPE  H16Y18485   5.218   6.589   8.730 -0.4463  2.1675  2.1687
  164SOPE  C31718486   5.125   6.677   8.558 -0.4763  0.5711 -0.1549
  164SOPE  H17X18487   5.182   6.767   8.588  1.3363 -1.0207  1.2819
  164SOPE  H17Y18488   5.031   6.715   8.512 -1.2576 -0.1368  0.8176
  164SOPE  C31818489   5.198   6.598   8.450  0.4765  0.4088  0.1954
  164SOPE  H18X18490   5.152   6.502   8.420  1.0627 -0.9277  3.3818
  164SOPE  H18Y18491   5.301   6.572   8.484  0.3726 -1.6226 -1.0026
  164SOPE  H18Z18492   5.204   6.657   8.356  0.3096 -0.0094 -0.0741
  165SOPE     N18493   3.315   0.268  10.869 -0.2463  0.3000  0.1968
  165SOPE   HN118494   3.264   0.292  10.957 -0.2390 -0.9422  0.5450
  165SOPE   HN218495   3.382   0.348  10.862  0.5107 -0.4741 -1.8083
  165SOPE   HN318496   3.253   0.289  10.788  2.4383  1.2928 -1.6997
  165SOPE   C1218497   3.382   0.135  10.852  0.3156  0.6353 -0.3396
  165SOPE  H12A18498   3.303   0.057  10.856  1.5840 -0.6577  0.0920
  165SOPE  H12B18499   3.457   0.127  10.933 -0.8428 -0.7455  0.6158
  165SOPE   C1118500   3.449   0.118  10.709  0.1866  0.5906  0.5624
  165SOPE  H11A18501   3.374   0.136  10.630  1.4807 -0.6546 -0.9896
  165SOPE  H11B18502   3.473   0.011  10.688 -2.3594  0.0589  0.2065
  165SOPE     P18503   3.699   0.153  10.748 -0.1844  0.0892  0.4554
  165SOPE   O1318504   3.698   0.009  10.798 -0.5538  0.0708 -0.5498
  165SOPE   O1418505   3.750   0.247  10.850 -0.4423  0.0502  0.3451
  165SOPE   O1218506   3.559   0.207  10.700 -0.3437  0.1389 -0.7452
  165SOPE   O1118507   3.785   0.162  10.621 -0.4013 -0.0491 -0.7191
  165SOPE    C118508   3.761   0.270  10.526  1.0726 -0.1525 -0.2047
  165SOPE    HA18509   3.717   0.363  10.569  0.8771 -0.3034 -0.0793
  165SOPE    HB18510   3.683   0.225  10.461  1.4891 -0.3340 -0.5849
  165SOPE    C218511   3.890   0.304  10.452 -0.6812 -0.2493 -0.0564
  165SOPE    HS18512   3.861   0.400  10.404  0.8302 -1.0793 -2.7196
  165SOPE   O2118513   3.936   0.202  10.367  0.1355 -0.1382 -0.3316
  165SOPE   C2118514   3.882   0.210  10.237  0.1337 -0.0933  0.0860
  165SOPE   O2218515   3.791   0.282  10.207 -0.1757 -0.3895 -0.2817
  165SOPE   C2218516   3.951   0.111  10.150 -0.6045 -0.2000  0.3402
  165SOPE   H2R18517   4.026   0.051  10.205 -0.3615 -1.7966 -1.6917
  165SOPE   H2S18518   3.984   0.178  10.068 -0.3844 -1.6976 -0.8022
  165SOPE    C318519   3.997   0.331  10.559  0.9505  0.2709  0.0533
  165SOPE    HX18520   4.042   0.235  10.593  1.0913  0.5503  0.6612
  165SOPE    HY18521   3.939   0.382  10.638  0.4942  0.6466 -0.5183
  165SOPE   O3118522   4.109   0.402  10.499  0.2075 -0.1984  0.2987
  165SOPE   C3118523   4.127   0.520  10.537  0.6064 -0.1781 -0.0648
  165SOPE   O3218524   4.055   0.582  10.616  0.2343  0.0615  0.1697
  165SOPE   C3218525   4.255   0.578  10.479 -0.4490 -0.1053  0.3081
  165SOPE   H2X18526   4.340   0.573  10.551  1.6655 -1.5537 -2.1960
  165SOPE   H2Y18527   4.249   0.687  10.460  0.2384 -0.0186  0.5784
  165SOPE   C2318528   3.853   0.010  10.085  0.5532 -0.5416 -0.0131
  165SOPE   H3R18529   3.790  -0.041  10.160 -0.3706  0.7091  0.0859
  165SOPE   H3S18530   3.900  -0.076  10.032  1.6995  0.3674 -0.4979
  165SOPE   C2418531   3.756   0.064   9.985  0.7596 -0.1356  0.0732
  165SOPE   H4R18532   3.681  -0.015   9.967  2.0646 -1.1568 -0.9821
  165SOPE   H4S18533   3.707   0.158  10.019  0.0799 -0.3307 -0.3595
  165SOPE   C2518534   3.812   0.099   9.851  0.1900  0.7516  0.0013
  165SOPE   H5R18535   3.881   0.185   9.862  1.5927 -0.5442  1.7084
  165SOPE   H5S18536   3.872   0.018   9.803  0.3366  0.3950  0.7811
  165SOPE   C2618537   3.712   0.154   9.742  0.1250  0.7983  0.4282
  165SOPE   H6R18538   3.639   0.071   9.732  0.7780  0.1931  0.6078
  165SOPE   H6S18539   3.674   0.245   9.792  1.6505  1.3908  0.5459
  165SOPE   C2718540   3.776   0.199   9.610 -0.0977  0.1199 -0.3917
  165SOPE   H7R18541   3.882   0.165   9.617 -1.1748 -3.6065 -1.0901
  165SOPE   H7S18542   3.734   0.147   9.521  1.2789 -1.1407 -0.3354
  165SOPE   C2818543   3.780   0.350   9.597 -0.3035 -0.6796 -0.4609
  165SOPE   H8R18544   3.818   0.395   9.691 -0.2887  1.5299 -1.4695
  165SOPE   H8S18545   3.849   0.383   9.516  0.9950  2.3030  1.7582
  165SOPE   C2918546   3.649   0.420   9.570 -0.8558 -0.0227 -1.4221
  165SOPE   H9118547   3.575   0.434   9.651 -1.0666  1.9954 -1.9323
  165SOPE  C21018548   3.606   0.481   9.458  0.3846 -1.1175  0.2189
  165SOPE  H10118549   3.505   0.524   9.462 -0.4579 -3.0798  0.3519
  165SOPE  C21118550   3.685   0.499   9.326 -0.0085  0.0679 -0.2677
  165SOPE  H11R18551   3.775   0.434   9.335 -0.6128 -0.9219 -1.2773
  165SOPE  H11S18552   3.714   0.605   9.308 -1.8737  0.4067 -1.3674
  165SOPE  C21218553   3.594   0.437   9.213 -0.1499  0.1230  0.4125
  165SOPE  H12R18554   3.511   0.509   9.196  1.2676  1.7605  0.3154
  165SOPE  H12S18555   3.552   0.337   9.238 -0.5839  0.6958  2.0147
  165SOPE  C21318556   3.656   0.425   9.079  0.1064 -0.1131  0.1263
  165SOPE  H13R18557   3.573   0.402   9.009  0.7621  0.9794 -1.0430
  165SOPE  H13S18558   3.739   0.351   9.078 -1.2765 -1.7225  2.0833
  165SOPE  C21418559   3.712   0.554   9.018  0.2630  0.3556 -0.0124
  165SOPE  H14R18560   3.810   0.584   9.062 -0.4463  0.1097  1.7676
  165SOPE  H14S18561   3.639   0.637   9.021  1.1002  1.1137 -0.4151
  165SOPE  C21518562   3.750   0.536   8.865 -0.2380  0.2725 -0.4053
  165SOPE  H15R18563   3.675   0.479   8.808  2.1955 -1.4152 -2.0149
  165SOPE  H15S18564   3.840   0.475   8.843  0.0270 -0.0450  1.4620
  165SOPE  C21618565   3.767   0.678   8.795  0.1878 -0.1324 -0.0733
  165SOPE  H16R18566   3.667   0.720   8.820  0.6420  0.4125  0.8569
  165SOPE  H16S18567   3.787   0.656   8.688  0.7437 -4.1590  0.7823
  165SOPE  C21718568   3.882   0.750   8.864 -0.6305 -0.2791  0.6222
  165SOPE  H17R18569   3.973   0.690   8.841 -0.7727 -0.8365  1.4801
  165SOPE  H17S18570   3.872   0.753   8.975  2.5486 -1.9930  0.9970
  165SOPE  C21818571   3.885   0.895   8.818  0.4958 -0.3871 -0.1401
  165SOPE  H18R18572   3.980   0.940   8.852  0.6669 -0.9466  0.1328
  165SOPE  H18S18573   3.812   0.956   8.876  0.0590  1.2699 -2.4027
  165SOPE  H18T18574   3.869   0.907   8.709 -2.7218 -0.3004  0.2774
  165SOPE   C3318575   4.299   0.506  10.349 -0.5588 -0.7839 -0.0931
  165SOPE   H3X18576   4.263   0.401  10.340 -0.4150 -0.7210 -1.4751
  165SOPE   H3Y18577   4.410   0.506  10.342 -0.5227 -1.8848  0.3990
  165SOPE   C3418578   4.241   0.574  10.221 -1.0280  0.3078  1.2256
  165SOPE   H4X18579   4.290   0.522  10.135 -1.2714  1.6727  0.2481
  165SOPE   H4Y18580   4.262   0.683  10.212  1.9320 -0.4155 -1.6838
  165SOPE   C3518581   4.088   0.550  10.202 -0.5344  0.5051 -0.4728
  165SOPE   H5X18582   4.033   0.620  10.267 -4.0057 -2.6087  0.1374
  165SOPE   H5Y18583   4.055   0.453  10.244 -0.5776  0.7052 -0.0488
  165SOPE   C3618584   4.037   0.556  10.060  0.6082  0.4168 -0.3189
  165SOPE   H6X18585   3.932   0.523  10.050  0.8257 -0.3439 -0.1386
  165SOPE   H6Y18586   4.094   0.478  10.004 -0.2118 -1.0360  0.8552
  165SOPE   C3718587   4.032   0.689   9.977  0.0851 -0.4988  0.4816
  165SOPE   H7X18588   4.132   0.720   9.941 -0.9980  2.9465  0.2908
  165SOPE   H7Y18589   4.011   0.769  10.050  1.7826 -0.2759  0.7267
  165SOPE   C3818590   3.931   0.689   9.860 -0.1161  0.0462  0.3924
  165SOPE   H8X18591   3.828   0.694   9.903  0.0030  0.8052  0.5901
  165SOPE   H8Y18592   3.939   0.590   9.809 -2.4962 -0.3961  0.8112
  165SOPE   C3918593   3.928   0.804   9.759 -0.4923  0.5156 -0.5035
  165SOPE   H9X18594   4.026   0.826   9.712 -0.1865  0.6440  0.1806
  165SOPE   H9Y18595   3.901   0.898   9.812  0.8297  1.1749 -0.9724
  165SOPE  C31018596   3.818   0.782   9.657  0.4520 -0.1809  0.1767
  165SOPE  H10X18597   3.725   0.745   9.704 -0.1067  1.1241  0.0995
  165SOPE  H10Y18598   3.845   0.695   9.593  1.8087  0.8661 -0.7018
  165SOPE  C31118599   3.799   0.898   9.565 -0.3518  0.3809 -0.2929
  165SOPE  H11X18600   3.896   0.925   9.518 -0.3997  0.6956 -0.2099
  165SOPE  H11Y18601   3.770   0.985   9.627  0.1850  0.8562 -0.6966
  165SOPE  C31218602   3.699   0.872   9.456  0.1082  0.1626  0.2701
  165SOPE  H12X18603   3.603   0.848   9.506  0.0061  1.2711  0.6214
  165SOPE  H12Y18604   3.730   0.783   9.398  3.0844  1.6172 -0.5201
  165SOPE  C31318605   3.676   0.983   9.361  0.4946 -0.0105 -0.4048
  165SOPE  H13X18606   3.784   0.994   9.335  0.4416  1.4174 -0.0835
  165SOPE  H13Y18607   3.619   1.066   9.408 -0.5858 -0.4200 -0.9764
  165SOPE  C31418608   3.612   0.937   9.235 -0.2605 -0.1206  0.5648
  165SOPE  H14X18609   3.514   0.896   9.269 -0.7555 -0.6232 -1.4274
  165SOPE  H14Y18610   3.674   0.859   9.186 -0.9112  0.1362 -0.6722
  165SOPE  C31518611   3.593   1.051   9.135 -0.7161 -0.2409 -0.7128
  165SOPE  H15X18612   3.698   1.070   9.104  0.5684 -0.9342  3.0544
  165SOPE  H15Y18613   3.554   1.139   9.190  0.8689 -0.7652  1.2835
  165SOPE  C31618614   3.498   1.029   9.019  0.8321 -0.3727  0.2715
  165SOPE  H16X18615   3.390   1.013   9.040  0.9136  0.7646  1.6221
  165SOPE  H16Y18616   3.536   0.939   8.966  1.1553  0.6408 -1.2467
  165SOPE  C31718617   3.508   1.143   8.916 -0.7006  0.7226 -0.2722
  165SOPE  H17X18618   3.448   1.103   8.832  1.0410  1.8853 -2.0974
  165SOPE  H17Y18619   3.609   1.156   8.872  0.4070 -0.5002  1.8166
  165SOPE  C31818620   3.454   1.283   8.962 -0.6222 -0.1020  0.1242
  165SOPE  H18X18621   3.522   1.326   9.039  0.0052 -1.3226  0.2720
  165SOPE  H18Y18622   3.352   1.281   9.006 -1.3588 -0.4055 -1.5757
  165SOPE  H18Z18623   3.454   1.360   8.882 -0.1569 -1.3329 -1.0667
  166SOPE     N18624   0.237   0.735  11.080  0.4478  0.0345 -0.1949
  166SOPE   HN118625   0.141   0.696  11.067  0.1193  0.9694 -0.6708
  166SOPE   HN218626   0.248   0.825  11.029  0.0003  1.0425  1.4194
  166SOPE   HN318627   0.284   0.665  11.020  0.8096  0.1955 -0.0968
  166SOPE   C1218628   0.304   0.733  11.212  0.1088  0.1899  0.1851
  166SOPE  H12A18629   0.318   0.629  11.249  0.4888  1.0801  2.6270
  166SOPE  H12B18630   0.250   0.795  11.286 -1.0550  0.2074 -0.6545
  166SOPE   C1118631   0.443   0.790  11.201  0.1305 -0.3690 -0.5116
  166SOPE  H11A18632   0.500   0.782  11.296 -0.5823 -0.6996 -0.1070
  166SOPE  H11B18633   0.435   0.900  11.187  0.5116 -0.5941 -2.6763
  166SOPE     P18634   0.641   0.802  11.039 -0.0159  0.0087 -0.3153
  166SOPE   O1318635   0.759   0.718  11.045  0.0635 -0.0450  0.1105
  166SOPE   O1418636   0.654   0.940  11.097  0.3955 -0.5642  0.2771
  166SOPE   O1218637   0.516   0.723  11.100  0.5576 -0.4859  0.5267
  166SOPE   O1118638   0.592   0.821  10.884  0.5467 -0.3310  0.7316
  166SOPE    C118639   0.599   0.703  10.803  0.0680 -0.1711 -0.1500
  166SOPE    HA18640   0.553   0.619  10.858 -1.5945 -0.1433 -1.4342
  166SOPE    HB18641   0.704   0.671  10.789  0.4058 -0.2313  2.3493
  166SOPE    C218642   0.540   0.722  10.656 -1.0775  0.4971  0.5273
  166SOPE    HS18643   0.598   0.657  10.586  2.5542  2.5314  1.4869
  166SOPE   O2118644   0.568   0.855  10.606  0.3344 -0.0921  0.1396
  166SOPE   C2118645   0.694   0.896  10.600  0.1222  0.3784  0.2364
  166SOPE   O2218646   0.794   0.828  10.603  0.1608 -0.1077 -0.3307
  166SOPE   C2218647   0.678   1.044  10.572  0.3889  0.4999  0.2701
  166SOPE   H2R18648   0.761   1.090  10.630 -0.0807  0.8681  0.6534
  166SOPE   H2S18649   0.583   1.081  10.616 -0.2844 -0.0893 -0.6793
  166SOPE    C318650   0.390   0.689  10.646 -0.4426 -0.0882  1.0355
  166SOPE    HX18651   0.328   0.729  10.730  0.3036  1.0939  1.0431
  166SOPE    HY18652   0.386   0.582  10.676  0.8211 -0.5449 -0.3747
  166SOPE   O3118653   0.330   0.712  10.525 -0.7298  0.0537  0.5651
  166SOPE   C3118654   0.281   0.832  10.511  0.4900 -0.2788 -0.3316
  166SOPE   O3218655   0.269   0.910  10.601 -0.5371 -0.9149  0.1978
  166SOPE   C3218656   0.240   0.854  10.369 -0.5602 -0.0181  0.1178
  166SOPE   H2X18657   0.144   0.910  10.374 -0.4291  0.0636  2.2812
  166SOPE   H2Y18658   0.232   0.758  10.314 -2.0302 -0.0496  0.3696
  166SOPE   C2318659   0.690   1.076  10.421 -0.1830 -0.4699 -0.4002
  166SOPE   H3R18660   0.700   1.184  10.397  0.2966 -0.3049  0.5327
  166SOPE   H3S18661   0.597   1.046  10.368 -0.0101 -2.4499  0.3788
  166SOPE   C2418662   0.812   1.011  10.360 -0.2252 -0.3385  0.3010
  166SOPE   H4R18663   0.907   1.035  10.412  1.0948 -3.8971 -0.3380
  166SOPE   H4S18664   0.821   0.900  10.361 -0.0310 -0.3761 -2.5514
  166SOPE   C2518665   0.842   1.053  10.216 -0.1827  0.4075 -0.0573
  166SOPE   H5R18666   0.870   1.159  10.200 -0.8776  0.6994  0.6257
  166SOPE   H5S18667   0.943   1.019  10.185 -1.7597 -3.0218 -1.6741
  166SOPE   C2618668   0.734   1.022  10.113  0.8007  0.8538 -0.3731
  166SOPE   H6R18669   0.720   0.912  10.102 -2.1059  1.3803 -2.4748
  166SOPE   H6S18670   0.652   1.080  10.161  1.1801  0.1915  1.1269
  166SOPE   C2718671   0.769   1.067   9.973  0.4073  0.7214 -0.0278
  166SOPE   H7R18672   0.816   1.168   9.983 -1.5590  1.6670  0.0136
  166SOPE   H7S18673   0.849   1.002   9.932 -0.0059  0.3160 -0.1964
  166SOPE   C2818674   0.656   1.051   9.872  0.1582 -0.2786  0.0493
  166SOPE   H8R18675   0.619   0.947   9.869 -0.9044  0.1046 -0.4448
  166SOPE   H8S18676   0.572   1.109   9.917 -0.0022  0.4240 -1.1380
  166SOPE   C2918677   0.674   1.115   9.734 -0.0474  0.4100  0.0086
  166SOPE   H9118678   0.690   1.224   9.728  0.6134  0.3448  0.4845
  166SOPE  C21018679   0.675   1.050   9.618  0.0966  0.2214 -0.2825
  166SOPE  H10118680   0.702   1.102   9.526  1.0735 -2.0719 -1.3377
  166SOPE  C21118681   0.680   0.898   9.611 -0.2058  0.0854 -0.0181
  166SOPE  H11R18682   0.586   0.862   9.563 -0.9600  1.9436  0.0050
  166SOPE  H11S18683   0.677   0.843   9.707  0.0327 -0.5209 -0.3520
  166SOPE  C21218684   0.812   0.860   9.529 -0.4589 -0.0469  0.3445
  166SOPE  H12R18685   0.842   0.762   9.572 -0.2651  0.8304  2.2921
  166SOPE  H12S18686   0.894   0.927   9.562 -0.3956 -0.7851  1.7447
  166SOPE  C21318687   0.804   0.857   9.374 -0.1614 -0.5046 -0.3312
  166SOPE  H13R18688   0.708   0.817   9.336 -0.2354 -0.4252 -0.2281
  166SOPE  H13S18689   0.896   0.804   9.340  1.1199  1.7402 -0.4514
  166SOPE  C21418690   0.819   0.993   9.305  0.3221 -0.2026 -0.0776
  166SOPE  H14R18691   0.889   1.048   9.371  0.3113 -0.3781  0.0805
  166SOPE  H14S18692   0.724   1.051   9.309  0.4347 -0.1297  1.6602
  166SOPE  C21518693   0.889   0.993   9.169 -0.0917  0.0678 -0.1340
  166SOPE  H15R18694   0.981   0.932   9.177 -1.6379 -2.2818  0.1798
  166SOPE  H15S18695   0.905   1.097   9.134  0.9526 -0.4135 -1.1397
  166SOPE  C21618696   0.804   0.934   9.055  0.2047 -0.1181  0.5123
  166SOPE  H16R18697   0.758   0.839   9.091 -2.2867  1.2495  1.0107
  166SOPE  H16S18698   0.873   0.914   8.969 -0.4089 -1.4120  0.3057
  166SOPE  C21718699   0.679   1.022   9.005  0.5536  0.4111  0.3122
  166SOPE  H17R18700   0.716   1.117   8.961  0.9853 -0.4336 -1.1959
  166SOPE  H17S18701   0.607   1.035   9.089 -0.2138  0.0993 -0.3002
  166SOPE  C21818702   0.611   0.942   8.884 -0.0469 -0.4741 -0.5801
  166SOPE  H18R18703   0.556   0.852   8.918  0.6956 -0.8969 -0.4919
  166SOPE  H18S18704   0.688   0.900   8.816 -0.2497 -0.4242 -0.8403
  166SOPE  H18T18705   0.535   1.009   8.839 -2.6529 -2.1409  1.2036
  166SOPE   C3318706   0.350   0.935  10.295 -0.1477  0.0077  0.1431
  166SOPE   H3X18707   0.442   0.872  10.285  0.7224  1.4551 -1.3390
  166SOPE   H3Y18708   0.359   1.030  10.351  1.8373  0.9083 -1.6301
  166SOPE   C3418709   0.329   0.975  10.149 -0.3054 -0.1907 -0.5346
  166SOPE   H4X18710   0.429   0.992  10.104 -0.8033 -0.6660 -1.8316
  166SOPE   H4Y18711   0.286   1.077  10.154 -0.7535 -0.4784  2.9490
  166SOPE   C3518712   0.256   0.870  10.073 -0.0215  0.6484 -0.0154
  166SOPE   H5X18713   0.154   0.851  10.112 -0.5106  0.1431 -1.4963
  166SOPE   H5Y18714   0.321   0.782  10.094 -0.8762 -0.0495 -0.2541
  166SOPE   C3618715   0.260   0.879   9.917 -0.1909  0.1962  0.1684
  166SOPE   H6X18716   0.349   0.936   9.883  0.6929 -0.8176  0.7599
  166SOPE   H6Y18717   0.180   0.947   9.881 -1.6067 -2.4957 -2.0276
  166SOPE   C3718718   0.243   0.748   9.839 -0.2885 -0.3859 -0.8367
  166SOPE   H7X18719   0.145   0.704   9.870 -1.6535  1.8013 -1.8790
  166SOPE   H7Y18720   0.327   0.680   9.863 -0.2207 -0.5830 -1.6266
  166SOPE   C3818721   0.241   0.765   9.688 -0.0097  0.1262  0.2757
  166SOPE   H8X18722   0.337   0.814   9.663  0.5647 -0.2365  1.6944
  166SOPE   H8Y18723   0.153   0.829   9.666 -0.0483 -0.2357 -0.6304
  166SOPE   C3918724   0.220   0.640   9.601  0.3673  0.2163  0.3444
  166SOPE   H9X18725   0.286   0.555   9.626 -2.0522 -1.5503  0.9059
  166SOPE   H9Y18726   0.252   0.670   9.499 -1.2798 -1.2426 -0.6218
  166SOPE  C31018727   0.071   0.589   9.601  0.3197  1.1546 -0.0833
  166SOPE  H10X18728   0.025   0.583   9.702 -1.0187  0.0659 -0.7500
  166SOPE  H10Y18729   0.079   0.486   9.560 -3.7419  0.3558  0.8630
  166SOPE  C31118730  -0.013   0.667   9.494  0.2267  0.3252  0.2834
  166SOPE  H11X18731   0.023   0.772   9.484  1.3648 -0.0978 -0.2070
  166SOPE  H11Y18732  -0.118   0.659   9.529  0.7015  1.1180  1.9139
  166SOPE  C31218733  -0.010   0.594   9.357 -0.1564 -0.6323  0.0033
  166SOPE  H12X18734  -0.076   0.504   9.362  0.2781 -1.1196 -2.2021
  166SOPE  H12Y18735   0.090   0.554   9.329  0.6111  0.9233  0.4947
  166SOPE  C31318736  -0.062   0.677   9.243 -0.0962  0.2499 -0.3633
  166SOPE  H13X18737  -0.002   0.771   9.235  0.1462  0.2133  0.9069
  166SOPE  H13Y18738  -0.165   0.713   9.261  0.5474  0.5014  3.2252
  166SOPE  C31418739  -0.066   0.609   9.107 -0.2541  0.5240 -0.5107
  166SOPE  H14X18740   0.031   0.556   9.102 -0.8228 -0.5224 -0.5976
  166SOPE  H14Y18741  -0.074   0.692   9.033  0.0871 -0.3965 -1.5736
  166SOPE  C31518742  -0.184   0.516   9.078 -0.0233  0.2797 -0.0487
  166SOPE  H15X18743  -0.279   0.570   9.094 -0.6438 -1.1135  1.0471
  166SOPE  H15Y18744  -0.189   0.435   9.154  3.0954  0.6092  0.5831
  166SOPE  C31618745  -0.173   0.450   8.936  0.1627  0.1958 -0.1767
  166SOPE  H16X18746  -0.080   0.389   8.933 -0.8196 -1.4044  0.7540
  166SOPE  H16Y18747  -0.167   0.523   8.853  0.3833 -0.2697 -0.5763
  166SOPE  C31718748  -0.302   0.366   8.898 -0.9073 -0.2694  0.2977
  166SOPE  H17X18749  -0.316   0.293   8.981 -2.5440  0.1422  0.4018
  166SOPE  H17Y18750  -0.281   0.328   8.796  1.8572  1.0199  0.3567
  166SOPE  C31818751  -0.422   0.459   8.883 -0.0396 -0.5237 -0.9669
  166SOPE  H18X18752  -0.431   0.513   8.980  2.0596 -1.7751 -0.0366
  166SOPE  H18Y18753  -0.511   0.397   8.858 -0.9346  0.0526  0.7348
  166SOPE  H18Z18754  -0.400   0.531   8.801  0.6546 -0.7075 -0.9433
  167SOPE     N18755   2.171   6.473   6.186  0.3401 -0.3633  0.1518
  167SOPE   HN118756   2.237   6.533   6.131  0.3993 -0.2949  0.2965
  167SOPE   HN218757   2.088   6.461   6.124 -0.7589  0.7062  1.3899
  167SOPE   HN318758   2.145   6.533   6.267 -1.0401  1.5627 -1.6664
  167SOPE   C1218759   2.223   6.341   6.231 -0.6299  0.5529  0.4011
  167SOPE  H12A18760   2.321   6.358   6.280 -0.0877  1.4383 -0.9457
  167SOPE  H12B18761   2.259   6.288   6.140  1.7806 -0.7650  2.0637
  167SOPE   C1118762   2.123   6.252   6.309  0.3084  0.4959  0.1287
  167SOPE  H11A18763   2.104   6.301   6.407 -1.1396 -2.8606  1.5897
  167SOPE  H11B18764   2.177   6.160   6.339 -0.7372  0.7347  2.9522
  167SOPE     P18765   1.976   6.156   6.111 -0.0492  0.2237  0.4727
  167SOPE   O1318766   2.051   6.214   5.997  0.0877 -0.0537  0.5049
  167SOPE   O1418767   1.838   6.122   6.082  0.7083 -0.8073 -0.1605
  167SOPE   O1218768   1.997   6.237   6.242 -0.4553 -0.0359  0.2002
  167SOPE   O1118769   2.055   6.019   6.145  0.6540  0.1037 -0.2075
  167SOPE    C118770   1.993   5.899   6.189 -0.5208  0.0289 -0.7605
  167SOPE    HA18771   2.035   5.817   6.127  2.8535  1.1254 -0.0333
  167SOPE    HB18772   1.882   5.902   6.176 -0.9349 -0.9809  2.2360
  167SOPE    C218773   2.024   5.858   6.339  0.6913 -0.0738  0.2993
  167SOPE    HS18774   1.963   5.770   6.369 -0.6542  0.9309  0.5531
  167SOPE   O2118775   2.002   5.972   6.426  0.4904 -0.2049 -0.4448
  167SOPE   C2118776   1.874   5.982   6.457  0.0305  0.7802  0.0296
  167SOPE   O2218777   1.789   5.905   6.411  0.2534 -0.8184 -0.2196
  167SOPE   C2218778   1.851   6.098   6.553 -0.2253 -0.2957 -0.5982
  167SOPE   H2R18779   1.745   6.085   6.585  0.3167 -3.2428  0.1295
  167SOPE   H2S18780   1.874   6.194   6.503  0.7414  0.5773  1.4360
  167SOPE    C318781   2.172   5.798   6.361 -0.0199 -0.8509  0.1573
  167SOPE    HX18782   2.249   5.871   6.327  1.7245 -2.9636 -0.5616
  167SOPE    HY18783   2.182   5.723   6.280  0.3152  0.4282 -1.0066
  167SOPE   O3118784   2.190   5.727   6.489 -0.1487  0.2391 -0.1758
  167SOPE   C3118785   2.312   5.722   6.529 -0.0694  0.0505 -0.8818
  167SOPE   O3218786   2.407   5.763   6.465  0.1414 -0.2303  0.2631
  167SOPE   C3218787   2.325   5.646   6.668 -0.1679 -0.5206 -0.1104
  167SOPE   H2X18788   2.281   5.544   6.667  1.3934 -1.2319  1.3183
  167SOPE   H2Y18789   2.277   5.703   6.750  1.2747 -1.9176  1.7481
  167SOPE   C2318790   1.936   6.097   6.686 -0.1708  0.0497  0.2568
  167SOPE   H3R18791   2.044   6.104   6.661  0.0343 -0.1185  1.0893
  167SOPE   H3S18792   1.913   6.007   6.746  3.6870 -2.5009 -1.8665
  167SOPE   C2418793   1.917   6.229   6.777 -0.3329  0.2221 -0.2650
  167SOPE   H4R18794   1.982   6.214   6.865  0.1031 -0.2104 -0.6515
  167SOPE   H4S18795   1.955   6.322   6.729  2.2688  0.1718  1.6205
  167SOPE   C2518796   1.777   6.250   6.824 -0.0675 -0.4473 -0.0559
  167SOPE   H5R18797   1.732   6.316   6.747  0.7043 -1.7480 -1.6539
  167SOPE   H5S18798   1.734   6.149   6.836  0.1771 -0.4566  0.8407
  167SOPE   C2618799   1.776   6.330   6.955  0.2465 -0.1009  0.4414
  167SOPE   H6R18800   1.671   6.355   6.983  0.0829 -0.4814  0.1766
  167SOPE   H6S18801   1.811   6.268   7.040 -0.3823  1.5325  1.9249
  167SOPE   C2718802   1.858   6.458   6.945 -0.0127  0.6970 -0.0535
  167SOPE   H7R18803   1.966   6.437   6.960 -0.0519 -1.2486 -2.2392
  167SOPE   H7S18804   1.852   6.498   6.842  3.1003 -1.4175 -1.1343
  167SOPE   C2818805   1.819   6.563   7.041 -0.2065 -0.3074  0.0365
  167SOPE   H8R18806   1.712   6.542   7.059 -0.4371  1.0048  0.2821
  167SOPE   H8S18807   1.874   6.558   7.138  0.8598 -0.3454 -0.5564
  167SOPE   C2918808   1.836   6.698   6.978  0.1942 -0.1896 -0.2991
  167SOPE   H9118809   1.898   6.694   6.887  0.3474  0.1744 -0.2095
  167SOPE  C21018810   1.778   6.815   7.019  0.3005 -0.8043 -0.0583
  167SOPE  H10118811   1.809   6.905   6.964  2.2201 -1.0254  0.6313
  167SOPE  C21118812   1.694   6.835   7.143  0.7421 -0.0595  0.8874
  167SOPE  H11R18813   1.729   6.755   7.212  2.0053 -0.4452 -0.1962
  167SOPE  H11S18814   1.586   6.824   7.118  1.1026  1.4492 -1.4555
  167SOPE  C21218815   1.711   6.961   7.233  0.0150  0.4969 -0.2420
  167SOPE  H12R18816   1.653   7.039   7.180  0.3368 -0.6487 -2.3553
  167SOPE  H12S18817   1.820   6.985   7.234 -0.4688  2.6939  1.6981
  167SOPE  C21318818   1.658   6.950   7.377 -0.4978 -0.4079  0.3381
  167SOPE  H13R18819   1.555   6.909   7.375 -0.1142 -1.4923  1.6708
  167SOPE  H13S18820   1.654   7.050   7.425  0.3709 -0.2705  0.1399
  167SOPE  C21418821   1.734   6.861   7.470 -0.3264  0.8533 -0.5644
  167SOPE  H14R18822   1.838   6.901   7.469 -0.2808  0.7627  0.0628
  167SOPE  H14S18823   1.732   6.758   7.428 -0.9647  0.4446  0.4503
  167SOPE  C21518824   1.682   6.875   7.613 -0.3087 -0.3507 -0.0696
  167SOPE  H15R18825   1.572   6.857   7.618 -0.5664  1.2184 -0.0718
  167SOPE  H15S18826   1.696   6.982   7.639  0.2202 -0.4185 -0.0585
  167SOPE  C21618827   1.763   6.798   7.718 -1.0784  0.2213  0.0606
  167SOPE  H16R18828   1.867   6.783   7.681 -0.4136  2.8863  0.7104
  167SOPE  H16S18829   1.706   6.703   7.722  1.3109 -1.3723 -2.3118
  167SOPE  C21718830   1.762   6.861   7.856  0.3400 -0.1578  0.4457
  167SOPE  H17R18831   1.659   6.866   7.897  0.0436  0.6367 -0.3959
  167SOPE  H17S18832   1.797   6.966   7.857 -0.0624 -0.0221  1.9899
  167SOPE  C21818833   1.844   6.771   7.948  0.2024  0.1658  0.3759
  167SOPE  H18R18834   1.860   6.808   8.052  1.2153 -1.7324  0.9017
  167SOPE  H18S18835   1.941   6.745   7.902 -0.1783  0.8919 -0.8764
  167SOPE  H18T18836   1.797   6.672   7.966 -1.5285  1.3413  2.7704
  167SOPE   C3318837   2.473   5.635   6.711 -0.1377  0.4556 -0.6275
  167SOPE   H3X18838   2.512   5.739   6.705  1.1790 -0.1225 -2.7551
  167SOPE   H3Y18839   2.527   5.576   6.634 -1.0555  1.1109 -1.7723
  167SOPE   C3418840   2.496   5.565   6.847 -0.1419 -0.0070 -0.9303
  167SOPE   H4X18841   2.602   5.589   6.871 -0.4511 -0.3295  0.7941
  167SOPE   H4Y18842   2.471   5.457   6.838  2.6256 -0.6781 -1.2005
  167SOPE   C3518843   2.405   5.622   6.957  0.4518 -0.2958  0.2348
  167SOPE   H5X18844   2.305   5.575   6.949  0.5204 -0.4197  0.0909
  167SOPE   H5Y18845   2.389   5.731   6.939 -2.8601 -0.3361  2.5011
  167SOPE   C3618846   2.470   5.600   7.098  0.5219 -0.7599 -0.0027
  167SOPE   H6X18847   2.552   5.674   7.107 -0.7622  0.7319 -0.3030
  167SOPE   H6Y18848   2.519   5.502   7.114  1.9918 -0.0821 -0.2292
  167SOPE   C3718849   2.374   5.636   7.215 -0.2132  0.6128 -0.6077
  167SOPE   H7X18850   2.292   5.561   7.220  1.1709 -0.8895  0.0615
  167SOPE   H7Y18851   2.318   5.729   7.191  1.2241  0.9903 -2.5499
  167SOPE   C3818852   2.439   5.639   7.353  0.7014  0.1284 -0.4375
  167SOPE   H8X18853   2.507   5.726   7.364 -1.2986  1.3822  2.7130
  167SOPE   H8Y18854   2.500   5.547   7.371  1.1302  1.1944  4.3983
  167SOPE   C3918855   2.329   5.631   7.461 -0.3161  0.3005  0.2240
  167SOPE   H9X18856   2.259   5.547   7.442 -1.5645  2.0898 -3.5193
  167SOPE   H9Y18857   2.257   5.715   7.453  2.0418  2.3248 -0.5988
  167SOPE  C31018858   2.390   5.623   7.603  0.7179  0.1198 -0.1488
  167SOPE  H10X18859   2.457   5.534   7.600 -0.7009 -0.9355 -1.1962
  167SOPE  H10Y18860   2.303   5.607   7.670  0.1877  0.9837 -0.6205
  167SOPE  C31118861   2.460   5.750   7.660 -0.4977  0.3420  0.0413
  167SOPE  H11X18862   2.403   5.840   7.629  0.2936  0.8973  0.1770
  167SOPE  H11Y18863   2.564   5.756   7.621 -1.5703  1.0074 -2.8405
  167SOPE  C31218864   2.473   5.754   7.811  0.1285 -0.0315  0.1729
  167SOPE  H12X18865   2.534   5.667   7.845  0.2630 -0.8760 -2.1090
  167SOPE  H12Y18866   2.373   5.736   7.857 -1.2182  0.1745 -2.5815
  167SOPE  C31318867   2.530   5.882   7.863 -0.2444 -0.0415  0.9276
  167SOPE  H13X18868   2.463   5.960   7.820 -1.2143 -0.5302  1.5494
  167SOPE  H13Y18869   2.629   5.906   7.817  1.0426 -0.3826  3.4308
  167SOPE  C31418870   2.525   5.894   8.015 -0.3633  0.4394 -0.0427
  167SOPE  H14X18871   2.432   5.838   8.040  0.1804  0.1404  1.3585
  167SOPE  H14Y18872   2.525   6.003   8.040  1.0821  0.3578  0.3466
  167SOPE  C31518873   2.648   5.839   8.074  0.4260  0.1869 -0.9433
  167SOPE  H15X18874   2.728   5.913   8.053 -0.4644  1.1772 -0.9096
  167SOPE  H15Y18875   2.666   5.740   8.027 -2.0679 -0.9509  0.4098
  167SOPE  C31618876   2.643   5.819   8.230 -0.4826 -0.2787 -0.5538
  167SOPE  H16X18877   2.631   5.915   8.285 -3.5577 -0.8512 -0.0854
  167SOPE  H16Y18878   2.747   5.789   8.253 -1.1245 -0.7978  1.8826
  167SOPE  C31718879   2.542   5.727   8.302  0.4254  0.4429 -0.3614
  167SOPE  H17X18880   2.446   5.784   8.300  1.3871  2.0784 -1.1355
  167SOPE  H17Y18881   2.569   5.724   8.409 -1.6466  0.5110  0.1908
  167SOPE  C31818882   2.533   5.591   8.241 -0.6907 -0.6064 -0.0738
  167SOPE  H18X18883   2.498   5.522   8.322  3.9251  1.3737  3.8400
  167SOPE  H18Y18884   2.622   5.544   8.194  0.1714  0.9791 -0.0413
  167SOPE  H18Z18885   2.467   5.596   8.152 -1.9165  1.7591  0.9262
  168SOPE     N18886   0.621   3.564   6.533 -0.0001  0.3707 -0.1919
  168SOPE   HN118887   0.552   3.626   6.485 -2.4451 -0.6298  1.9417
  168SOPE   HN218888   0.580   3.469   6.527  2.1979 -0.6109  0.0545
  168SOPE   HN318889   0.614   3.606   6.628  1.0319 -0.2676  0.1766
  168SOPE   C1218890   0.759   3.579   6.487  0.0535 -0.2632  0.3760
  168SOPE  H12A18891   0.811   3.481   6.474  0.1872 -0.0950 -0.3730
  168SOPE  H12B18892   0.804   3.644   6.565 -1.3692  0.8733  0.2548
  168SOPE   C1118893   0.759   3.640   6.343 -0.6395 -1.2674  1.0102
  168SOPE  H11A18894   0.697   3.731   6.351  0.4777 -0.4465  0.3695
  168SOPE  H11B18895   0.706   3.566   6.279 -2.8102  0.4138  0.8060
  168SOPE     P18896   0.982   3.556   6.243  0.5830 -0.2063 -0.0988
  168SOPE   O1318897   1.064   3.605   6.128 -0.0117  0.6457  0.1431
  168SOPE   O1418898   0.894   3.441   6.213  0.3488 -0.0478 -0.1397
  168SOPE   O1218899   0.891   3.674   6.299 -0.4834  0.0878  0.1157
  168SOPE   O1118900   1.077   3.528   6.370 -0.0471  0.4801  0.4794
  168SOPE    C118901   1.191   3.611   6.393 -0.3696 -0.8146 -0.3396
  168SOPE    HA18902   1.217   3.681   6.311  0.9480  1.0790  1.6606
  168SOPE    HB18903   1.281   3.548   6.405  0.6481  0.0480 -3.1806
  168SOPE    C218904   1.167   3.696   6.526 -0.4467  0.1805 -0.1808
  168SOPE    HS18905   1.264   3.739   6.556 -0.9473  0.6054  0.8389
  168SOPE   O2118906   1.122   3.609   6.631  0.4319 -0.0078 -0.0577
  168SOPE   C2118907   1.203   3.524   6.681 -0.0932 -0.5240  0.7565
  168SOPE   O2218908   1.320   3.514   6.650  0.0329  0.5018 -0.1599
  168SOPE   C2218909   1.128   3.430   6.772 -0.4213  0.1182  0.1196
  168SOPE   H2R18910   1.196   3.343   6.783  0.8295  1.2030  1.1105
  168SOPE   H2S18911   1.029   3.406   6.727 -0.8070  0.5863  0.7181
  168SOPE    C318912   1.072   3.817   6.506  0.0692  1.2627  0.0536
  168SOPE    HX18913   0.973   3.771   6.483  0.0674  1.9174 -1.2956
  168SOPE    HY18914   1.097   3.863   6.409 -2.9386  1.3037 -0.7607
  168SOPE   O3118915   1.056   3.918   6.603 -0.0607 -0.4467 -0.1821
  168SOPE   C3118916   0.982   3.880   6.704  0.1160  0.9538 -0.2594
  168SOPE   O3218917   0.916   3.778   6.706 -0.2236  0.4530 -0.1258
  168SOPE   C3218918   0.966   3.988   6.812  0.5749  0.1382  0.0268
  168SOPE   H2X18919   0.860   4.018   6.823  0.3873 -0.7649  0.6653
  168SOPE   H2Y18920   1.031   4.072   6.778  0.2331  1.1962  1.8889
  168SOPE   C2318921   1.105   3.504   6.909 -0.2181  0.0318 -0.5771
  168SOPE   H3R18922   1.033   3.451   6.974 -0.4700  0.7068 -0.3038
  168SOPE   H3S18923   1.060   3.602   6.882 -0.2476  0.5211  1.1736
  168SOPE   C2418924   1.236   3.527   6.986 -0.3618  0.6293  0.2910
  168SOPE   H4R18925   1.276   3.424   7.001  0.1734  0.9042  0.7741
  168SOPE   H4S18926   1.315   3.569   6.920  1.1716  1.4219  2.5877
  168SOPE   C2518927   1.221   3.593   7.125  0.4799  0.0301 -1.1097
  168SOPE   H5R18928   1.234   3.703   7.119  1.9279 -0.1579 -1.6500
  168SOPE   H5S18929   1.118   3.581   7.164  0.7287  0.0524 -0.4383
  168SOPE   C2618930   1.323   3.540   7.227 -0.1149  0.2789  0.5127
  168SOPE   H6R18931   1.327   3.429   7.226  0.7323  0.2913  1.7483
  168SOPE   H6S18932   1.427   3.574   7.210  0.4811 -0.5957  2.2697
  168SOPE   C2718933   1.279   3.587   7.372  0.4050  0.3284 -0.1095
  168SOPE   H7R18934   1.258   3.695   7.363 -1.1857  0.0853  0.5536
  168SOPE   H7S18935   1.179   3.547   7.400  0.9806  0.0722  1.6522
  168SOPE   C2818936   1.366   3.560   7.492 -0.1958  0.7722  0.6012
  168SOPE   H8R18937   1.465   3.607   7.480 -0.2335  0.7856  0.3326
  168SOPE   H8S18938   1.312   3.609   7.576  0.1368 -0.3399  1.4805
  168SOPE   C2918939   1.391   3.416   7.520  0.3390 -0.2444  0.2172
  168SOPE   H9118940   1.394   3.349   7.433  1.8311 -0.3652  0.3395
  168SOPE  C21018941   1.427   3.356   7.639  0.3249 -0.3222  1.0307
  168SOPE  H10118942   1.439   3.247   7.638 -0.2404 -0.3853 -0.2768
  168SOPE  C21118943   1.437   3.425   7.772  0.3252  0.1096 -0.1927
  168SOPE  H11R18944   1.423   3.535   7.765  1.9967  0.3734  0.2506
  168SOPE  H11S18945   1.540   3.403   7.808  0.4923  1.7565  0.3973
  168SOPE  C21218946   1.332   3.355   7.872 -0.2998 -0.0041  0.2593
  168SOPE  H12R18947   1.383   3.258   7.892 -1.1499 -1.4172 -4.1028
  168SOPE  H12S18948   1.238   3.353   7.814  0.0251 -0.5970 -0.2511
  168SOPE  C21318949   1.304   3.443   8.002 -0.1367 -0.5029 -0.6597
  168SOPE  H13R18950   1.254   3.534   7.962  0.2114 -0.4575 -1.0104
  168SOPE  H13S18951   1.400   3.455   8.056  0.0671  0.8323 -1.2896
  168SOPE  C21418952   1.204   3.373   8.100  0.4824 -0.1151  0.1393
  168SOPE  H14R18953   1.233   3.266   8.113 -1.6314 -0.9759 -1.9270
  168SOPE  H14S18954   1.102   3.377   8.058  1.4494  1.5120 -2.1155
  168SOPE  C21518955   1.191   3.443   8.237  0.1180  0.3282  0.0768
  168SOPE  H15R18956   1.100   3.411   8.292 -1.3756  2.9728 -0.7811
  168SOPE  H15S18957   1.174   3.552   8.231 -1.0562  0.0457 -2.3612
  168SOPE  C21618958   1.317   3.438   8.320  0.6582 -0.3910 -0.9519
  168SOPE  H16R18959   1.409   3.418   8.261  2.4256  3.8026  0.1845
  168SOPE  H16S18960   1.304   3.348   8.384 -0.2153  1.2587  1.2714
  168SOPE  C21718961   1.345   3.561   8.420 -0.5077  0.5307 -0.0981
  168SOPE  H17R18962   1.251   3.586   8.472  0.3609  1.2444  1.1474
  168SOPE  H17S18963   1.383   3.647   8.360 -1.2394  1.5854  0.9344
  168SOPE  C21818964   1.461   3.517   8.515  0.0419 -0.2378  0.2688
  168SOPE  H18R18965   1.498   3.600   8.580  1.0737 -0.6938  0.2661
  168SOPE  H18S18966   1.545   3.471   8.460 -1.2222 -1.4406 -0.6999
  168SOPE  H18T18967   1.420   3.436   8.578  0.2964  0.2695  1.0952
  168SOPE   C3318968   1.021   3.927   6.945 -0.1837 -1.2208  0.6626
  168SOPE   H3X18969   1.051   4.017   7.003  1.5802  0.7145 -3.0813
  168SOPE   H3Y18970   1.107   3.856   6.941 -1.1056 -2.2899 -0.5350
  168SOPE   C3418971   0.916   3.851   7.033  1.0895 -0.5684 -0.3551
  168SOPE   H4X18972   0.913   3.743   7.009 -0.1963 -0.4708 -0.6647
  168SOPE   H4Y18973   0.820   3.898   7.004  2.2558  2.6066  0.7143
  168SOPE   C3518974   0.930   3.876   7.187 -0.3464 -0.0143 -1.0364
  168SOPE   H5X18975   0.932   3.987   7.187 -0.2496 -0.0144 -0.8773
  168SOPE   H5Y18976   1.032   3.841   7.215 -1.1053 -0.4478  1.2685
  168SOPE   C3618977   0.822   3.821   7.273  0.9882 -0.0122 -0.1480
  168SOPE   H6X18978   0.788   3.721   7.237 -2.3344  1.8124 -2.3965
  168SOPE   H6Y18979   0.739   3.894   7.268  1.8667  0.8696 -2.0146
  168SOPE   C3718980   0.854   3.823   7.427 -0.2373 -0.0691  1.1110
  168SOPE   H7X18981   0.902   3.920   7.452 -0.8467  0.7178 -0.6774
  168SOPE   H7Y18982   0.918   3.735   7.447 -0.3834 -0.3242  0.4883
  168SOPE   C3818983   0.722   3.820   7.510  0.0638  0.0486  0.0766
  168SOPE   H8X18984   0.670   3.725   7.481 -0.5382  1.0606 -2.2955
  168SOPE   H8Y18985   0.658   3.901   7.470  0.0451 -0.7598 -1.6170
  168SOPE   C3918986   0.738   3.833   7.658 -0.8116 -0.1956 -0.8442
  168SOPE   H9X18987   0.846   3.840   7.683 -1.2070  2.5654  0.2604
  168SOPE   H9Y18988   0.689   3.754   7.719 -3.5111  1.0206 -1.3702
  168SOPE  C31018989   0.675   3.960   7.710 -0.9551 -0.1926  0.1532
  168SOPE  H10X18990   0.575   3.958   7.661 -0.3939 -0.4251 -1.0058
  168SOPE  H10Y18991   0.719   4.048   7.658 -2.6883  0.7721  0.2945
  168SOPE  C31118992   0.684   3.980   7.862  0.0012  0.0436  0.1869
  168SOPE  H11X18993   0.779   3.939   7.902  0.8244  1.0538 -0.6757
  168SOPE  H11Y18994   0.599   3.922   7.905  1.2526 -1.4840  0.6532
  168SOPE  C31218995   0.662   4.124   7.902  0.1802  0.1626  0.1534
  168SOPE  H12X18996   0.586   4.168   7.834 -1.5137 -0.1847  1.8114
  168SOPE  H12Y18997   0.754   4.181   7.876 -1.5457  2.3693 -1.3339
  168SOPE  C31318998   0.613   4.127   8.048 -0.2529  0.0319 -0.1311
  168SOPE  H13X18999   0.526   4.060   8.059  0.7179 -1.0313  1.2589
  168SOPE  H13Y19000   0.582   4.233   8.063 -0.3124 -0.2840  2.1852
  168SOPE  C31419001   0.702   4.078   8.161 -0.4053  0.1946  0.4831
  168SOPE  H14X19002   0.806   4.116   8.159  0.5303 -2.2226  0.9292
  168SOPE  H14Y19003   0.707   3.967   8.151  1.7100  0.2882  0.1682
  168SOPE  C31519004   0.638   4.109   8.299 -0.2134  0.4386  0.3841
  168SOPE  H15X19005   0.534   4.069   8.300 -0.0421 -0.0056  0.3668
  168SOPE  H15Y19006   0.626   4.219   8.312  0.5195  0.5858 -0.1570
  168SOPE  C31619007   0.715   4.050   8.419 -0.4283  0.0271 -0.3855
  168SOPE  H16X19008   0.699   3.940   8.427 -0.8018  0.1346  0.4049
  168SOPE  H16Y19009   0.673   4.107   8.504  1.4048  1.5510 -0.4753
  168SOPE  C31719010   0.866   4.084   8.422 -0.0359 -0.3388 -0.6538
  168SOPE  H17X19011   0.880   4.192   8.402  0.7620  0.0204  1.7439
  168SOPE  H17Y19012   0.915   4.040   8.332 -0.1162 -1.1023 -0.3271
  168SOPE  C31819013   0.935   4.051   8.551  0.4536  0.3400 -0.1305
  168SOPE  H18X19014   1.042   4.081   8.541 -0.0445  2.5171  0.6622
  168SOPE  H18Y19015   0.931   3.947   8.590  1.0449 -0.4268 -2.0778
  168SOPE  H18Z19016   0.915   4.116   8.639 -0.9454 -1.9467  1.2951
  169SOPE     N19017   4.468   4.471   6.584  0.1519 -0.3565 -0.4165
  169SOPE   HN119018   4.555   4.486   6.638 -0.2284 -3.8132  1.2968
  169SOPE   HN219019   4.480   4.384   6.529 -0.1591 -1.8995  1.8847
  169SOPE   HN319020   4.450   4.551   6.520 -1.7298 -0.1789  0.2944
  169SOPE   C1219021   4.344   4.446   6.661  0.0589 -0.0762 -0.1894
  169SOPE  H12A19022   4.289   4.538   6.691 -3.0499 -1.0221 -2.5865
  169SOPE  H12B19023   4.375   4.391   6.752 -0.9028 -1.3678 -0.6309
  169SOPE   C1119024   4.239   4.351   6.595  0.1145  0.1933  0.2315
  169SOPE  H11A19025   4.155   4.334   6.665 -1.5971 -0.3761 -1.9129
  169SOPE  H11B19026   4.288   4.253   6.575  0.3765  0.3540  0.0819
  169SOPE     P19027   4.076   4.340   6.397 -0.3322 -0.3470 -0.2811
  169SOPE   O1319028   4.070   4.196   6.430 -0.0133 -0.0320  0.4291
  169SOPE   O1419029   4.091   4.370   6.252 -0.4488 -0.2704 -0.2364
  169SOPE   O1219030   4.195   4.410   6.475 -0.3785 -0.5605 -0.1325
  169SOPE   O1119031   3.942   4.403   6.453 -0.2863  0.1869 -0.3555
  169SOPE    C119032   3.935   4.546   6.472 -0.6001  0.1843  0.0567
  169SOPE    HA19033   3.826   4.566   6.468 -0.3366  1.8598  0.6859
  169SOPE    HB19034   3.989   4.606   6.396 -1.3678 -0.6139 -1.1263
  169SOPE    C219035   3.970   4.603   6.611 -0.0767 -0.7311 -0.6889
  169SOPE    HS19036   4.080   4.594   6.613  0.2820  3.2348  1.1274
  169SOPE   O2119037   3.912   4.516   6.712  0.0777  0.1927 -0.2110
  169SOPE   C2119038   3.986   4.515   6.823  0.3497 -0.3826  0.5805
  169SOPE   O2219039   4.087   4.580   6.841  0.1082  0.0368  0.1737
  169SOPE   C2219040   3.914   4.429   6.929 -0.1901 -0.0444 -0.3753
  169SOPE   H2R19041   3.822   4.393   6.878  1.0425 -1.3506 -1.7300
  169SOPE   H2S19042   3.876   4.491   7.013 -1.2460 -1.2059  0.0184
  169SOPE    C319043   3.927   4.748   6.620  0.3661 -0.5646 -0.3900
  169SOPE    HX19044   3.823   4.751   6.659  0.3587 -0.7131 -0.3960
  169SOPE    HY19045   3.934   4.798   6.521  1.0748  0.2315  0.0586
  169SOPE   O3119046   3.996   4.823   6.720 -0.2301 -0.3172 -0.0731
  169SOPE   C3119047   3.994   4.952   6.713 -0.4039  0.1452  0.2536
  169SOPE   O3219048   3.952   5.019   6.624  0.1202  0.4986  0.4940
  169SOPE   C3219049   4.080   5.005   6.830  0.0068  0.0962  0.1790
  169SOPE   H2X19050   4.186   4.980   6.810 -0.0733  0.9090 -1.3047
  169SOPE   H2Y19051   4.037   4.955   6.919 -0.1465  1.8594  1.1118
  169SOPE   C2319052   3.982   4.315   6.999 -0.6107 -0.2851 -0.9347
  169SOPE   H3R19053   4.091   4.339   6.992 -0.7191  0.8916  1.0888
  169SOPE   H3S19054   3.970   4.225   6.936  3.5661 -0.5984 -1.4413
  169SOPE   C2419055   3.942   4.289   7.149 -0.4812 -0.5093  0.2384
  169SOPE   H4R19056   3.945   4.380   7.213  1.8409  0.3437 -1.0219
  169SOPE   H4S19057   3.846   4.233   7.147 -0.7079 -0.3061  2.7657
  169SOPE   C2519058   4.041   4.192   7.214  0.5487  1.5546  0.8391
  169SOPE   H5R19059   4.031   4.090   7.171  0.5750  0.3358  3.5776
  169SOPE   H5S19060   4.139   4.236   7.185 -0.0285  2.0135 -0.4321
  169SOPE   C2619061   4.034   4.164   7.363 -0.3759 -0.3787  0.4142
  169SOPE   H6R19062   3.932   4.132   7.393 -0.8886  2.0765  1.4467
  169SOPE   H6S19063   4.100   4.078   7.387  0.0514  0.1965  1.3341
  169SOPE   C2719064   4.085   4.286   7.443  0.3571  0.5288  0.4119
  169SOPE   H7R19065   4.189   4.305   7.408  0.4757  2.7597  1.9226
  169SOPE   H7S19066   4.017   4.367   7.408  0.1524  0.2641  0.1892
  169SOPE   C2819067   4.070   4.266   7.594  0.0999 -0.9790  0.7344
  169SOPE   H8R19068   4.109   4.365   7.628 -0.3100 -0.7591  0.5679
  169SOPE   H8S19069   3.966   4.250   7.630  0.6970 -1.8198  2.1728
  169SOPE   C2919070   4.172   4.157   7.634 -0.3071  0.1242  0.1965
  169SOPE   H9119071   4.183   4.072   7.565 -0.9660  0.4787 -0.3494
  169SOPE  C21019072   4.234   4.152   7.751 -0.0767  0.0156  0.3753
  169SOPE  H10119073   4.309   4.073   7.763  2.0764  1.8906 -0.5109
  169SOPE  C21119074   4.233   4.250   7.862 -0.2225  0.4183 -0.5311
  169SOPE  H11R19075   4.152   4.324   7.846 -0.1530  1.0979  2.1037
  169SOPE  H11S19076   4.336   4.291   7.862 -0.5405  1.2374  0.2741
  169SOPE  C21219077   4.203   4.189   8.004 -0.1465  0.0586  0.1226
  169SOPE  H12R19078   4.281   4.120   8.043  0.5075  1.5885  1.6121
  169SOPE  H12S19079   4.106   4.135   8.006  0.5492 -1.2021  0.3037
  169SOPE  C21319080   4.199   4.296   8.115 -0.3007 -0.4720  0.3712
  169SOPE  H13R19081   4.162   4.246   8.207 -3.1544 -0.8689 -0.9296
  169SOPE  H13S19082   4.122   4.373   8.094 -2.0018 -2.9105 -2.7987
  169SOPE  C21419083   4.332   4.365   8.151  0.4920 -0.0579  0.0638
  169SOPE  H14R19084   4.311   4.451   8.219  0.6580 -1.4241  1.8708
  169SOPE  H14S19085   4.401   4.396   8.069  2.9255 -0.9528  1.7235
  169SOPE  C21519086   4.424   4.270   8.237 -0.0784 -0.2478  0.0838
  169SOPE  H15R19087   4.528   4.277   8.198  0.0968 -0.1721  0.5722
  169SOPE  H15S19088   4.384   4.167   8.229 -0.9162  0.1473 -0.9080
  169SOPE  C21619089   4.430   4.309   8.388  0.2786  1.0059  0.0156
  169SOPE  H16R19090   4.478   4.409   8.395 -1.7173  1.9432  0.6682
  169SOPE  H16S19091   4.504   4.237   8.431  0.1222 -0.4851 -2.1329
  169SOPE  C21719092   4.298   4.306   8.470 -0.3601  0.5897  0.2068
  169SOPE  H17R19093   4.246   4.220   8.423 -0.2441  1.1039 -0.8808
  169SOPE  H17S19094   4.237   4.397   8.450 -0.9437 -0.1277 -1.4138
  169SOPE  C21819095   4.302   4.307   8.627 -0.3672  0.4236  0.0303
  169SOPE  H18R19096   4.383   4.237   8.656 -0.8980 -0.8334 -1.4667
  169SOPE  H18S19097   4.211   4.270   8.679  0.5190 -2.6783 -0.5436
  169SOPE  H18T19098   4.316   4.413   8.657  0.1243  0.6073 -0.8308
  169SOPE   C3319099   4.068   5.153   6.849 -0.0275  0.2697 -0.8542
  169SOPE   H3X19100   3.962   5.180   6.868 -0.1611 -1.4133  0.9695
  169SOPE   H3Y19101   4.115   5.219   6.773 -0.0661  0.6076 -0.5841
  169SOPE   C3419102   4.146   5.191   6.979  0.0722  0.1739 -0.3017
  169SOPE   H4X19103   4.164   5.301   6.971  1.1836 -0.0523 -1.0044
  169SOPE   H4Y19104   4.250   5.151   6.984  0.7808  1.9927 -0.0153
  169SOPE   C3519105   4.073   5.150   7.102 -0.3306  0.5124 -0.4934
  169SOPE   H5X19106   4.063   5.039   7.094 -0.5069  0.5982 -1.4756
  169SOPE   H5Y19107   3.981   5.212   7.102 -1.0817 -0.5806  0.4840
  169SOPE   C3619108   4.139   5.187   7.233 -0.4260 -0.1189  0.3975
  169SOPE   H6X19109   4.149   5.298   7.234  1.7681 -0.2030 -3.6498
  169SOPE   H6Y19110   4.243   5.148   7.232 -0.0060  0.9801  0.2791
  169SOPE   C3719111   4.069   5.110   7.349 -0.0046  0.4015 -1.0988
  169SOPE   H7X19112   4.096   5.005   7.325  0.6155  0.3818 -0.3591
  169SOPE   H7Y19113   3.959   5.127   7.344  0.1878  1.3009 -2.4342
  169SOPE   C3819114   4.125   5.129   7.492 -0.1518  0.1344  0.3795
  169SOPE   H8X19115   4.235   5.115   7.492 -0.4325 -2.3516  2.4413
  169SOPE   H8Y19116   4.113   5.234   7.527  0.3747  1.1147 -2.2762
  169SOPE   C3919117   4.070   5.034   7.599 -0.9527  0.1612  0.3968
  169SOPE   H9X19118   4.111   4.931   7.586 -1.1417  0.3319 -1.7416
  169SOPE   H9Y19119   3.960   5.038   7.582 -0.8932  0.3626  0.0677
  169SOPE  C31019120   4.110   5.064   7.746  0.0514 -0.5498  0.0564
  169SOPE  H10X19121   4.076   5.166   7.772  0.5010 -0.2035 -0.7149
  169SOPE  H10Y19122   4.219   5.072   7.767 -0.0275 -0.8310  0.5923
  169SOPE  C31119123   4.061   4.968   7.847  0.1084 -0.2363 -0.4500
  169SOPE  H11X19124   4.091   4.863   7.825  4.0895  0.4803  1.2618
  169SOPE  H11Y19125   3.950   4.965   7.856  0.1514 -0.9793 -0.1386
  169SOPE  C31219126   4.106   5.008   7.993 -0.2478 -0.0873  0.3874
  169SOPE  H12X19127   4.067   5.108   8.023 -2.4522 -0.2687 -1.6993
  169SOPE  H12Y19128   4.216   5.018   7.990 -0.1674 -1.2683 -1.4457
  169SOPE  C31319129   4.085   4.890   8.088  0.1445 -0.4673  0.2752
  169SOPE  H13X19130   4.136   4.799   8.051  0.4540 -0.7518  1.3669
  169SOPE  H13Y19131   3.977   4.864   8.095  0.2584 -0.5936  1.9369
  169SOPE  C31419132   4.138   4.917   8.228 -0.6568  0.1860 -0.3039
  169SOPE  H14X19133   4.085   5.005   8.270  0.7937  2.1787 -2.4751
  169SOPE  H14Y19134   4.243   4.953   8.228 -0.4590 -0.3832  0.5379
  169SOPE  C31519135   4.121   4.797   8.325 -0.1238  0.4646 -1.0234
  169SOPE  H15X19136   4.151   4.694   8.297  0.2845  0.0551  0.7903
  169SOPE  H15Y19137   4.011   4.787   8.326  0.0058 -1.0883 -1.4256
  169SOPE  C31619138   4.176   4.812   8.468  0.1564  0.7427  0.0973
  169SOPE  H16X19139   4.123   4.888   8.530 -0.1752  1.1803 -0.7186
  169SOPE  H16Y19140   4.275   4.860   8.455  0.7540 -0.5619 -0.2399
  169SOPE  C31719141   4.189   4.683   8.553 -0.1984  0.6103 -0.1555
  169SOPE  H17X19142   4.258   4.620   8.493  0.8224  2.4803 -0.9940
  169SOPE  H17Y19143   4.085   4.645   8.554 -0.5013  1.3460 -2.0217
  169SOPE  C31819144   4.241   4.701   8.693 -0.0799  0.2346  0.0110
  169SOPE  H18X19145   4.172   4.766   8.751  1.0389  1.4819 -0.0390
  169SOPE  H18Y19146   4.344   4.742   8.699  0.0865 -0.0584 -0.7835
  169SOPE  H18Z19147   4.248   4.605   8.748 -1.3794  0.0692 -0.0950
  170SOPE     N19148   3.727   2.701   6.565  0.9971  0.2015 -0.1935
  170SOPE   HN119149   3.765   2.792   6.534 -0.0321  1.1307  1.2085
  170SOPE   HN219150   3.767   2.626   6.505  1.2715  0.9933 -0.9957
  170SOPE   HN319151   3.624   2.690   6.563  1.2915 -2.9332 -1.3987
  170SOPE   C1219152   3.783   2.685   6.705 -0.2986  0.5241  0.0000
  170SOPE  H12A19153   3.759   2.578   6.725 -0.0668  0.9731  2.8951
  170SOPE  H12B19154   3.734   2.755   6.776  0.1092  0.4217  0.3842
  170SOPE   C1119155   3.930   2.718   6.709  0.7263  0.0762  0.4518
  170SOPE  H11A19156   3.976   2.697   6.808  0.9019 -1.8634 -0.0347
  170SOPE  H11B19157   3.937   2.829   6.698 -1.5638  0.2335  0.2615
  170SOPE     P19158   4.146   2.712   6.552  0.1493  0.5287 -0.2045
  170SOPE   O1319159   4.122   2.803   6.436 -0.9037  0.2640 -0.0304
  170SOPE   O1419160   4.247   2.598   6.522  0.3318 -0.6249 -0.1304
  170SOPE   O1219161   4.003   2.659   6.607 -0.8452  0.8193  0.2278
  170SOPE   O1119162   4.199   2.802   6.670  0.2734  0.1854 -0.1126
  170SOPE    C119163   4.249   2.736   6.790  0.5633 -0.4325 -0.4417
  170SOPE    HA19164   4.336   2.668   6.781 -0.0868 -1.7487  2.5850
  170SOPE    HB19165   4.164   2.690   6.845 -1.3216  2.9246 -0.4059
  170SOPE    C219166   4.291   2.846   6.894  0.3358 -0.5152  0.4459
  170SOPE    HS19167   4.396   2.869   6.868  0.1886  0.9976  1.1831
  170SOPE   O2119168   4.269   2.790   7.030  0.1073 -0.1910 -0.7907
  170SOPE   C2119169   4.341   2.845   7.126  0.1550 -0.5656 -0.5036
  170SOPE   O2219170   4.424   2.934   7.109  0.7278 -0.3922 -0.0546
  170SOPE   C2219171   4.301   2.787   7.263  0.1458  0.3294  0.1166
  170SOPE   H2R19172   4.279   2.679   7.247  1.8510 -0.2650  1.6580
  170SOPE   H2S19173   4.202   2.828   7.294  0.2905  0.4118  0.4681
  170SOPE    C319174   4.200   2.974   6.869 -0.4336 -0.5719  0.1446
  170SOPE    HX19175   4.093   2.947   6.874 -0.5048 -0.8135 -2.4501
  170SOPE    HY19176   4.226   3.010   6.767 -0.8363  1.5834  0.7846
  170SOPE   O3119177   4.219   3.073   6.971 -0.2604  0.0327  0.2894
  170SOPE   C3119178   4.154   3.185   6.961  0.2398 -0.1133 -0.4093
  170SOPE   O3219179   4.078   3.213   6.864  0.2465  0.2160  0.1754
  170SOPE   C3219180   4.190   3.277   7.073  0.3274  0.5306 -0.7473
  170SOPE   H2X19181   4.213   3.377   7.031 -0.8178  0.9802 -0.3356
  170SOPE   H2Y19182   4.278   3.238   7.129 -0.3169  1.5565  1.0022
  170SOPE   C2319183   4.402   2.798   7.379  0.6010  0.0977 -0.1254
  170SOPE   H3R19184   4.429   2.905   7.387  0.5659  0.2224 -1.4669
  170SOPE   H3S19185   4.494   2.736   7.363 -0.7537 -2.0837  0.2951
  170SOPE   C2419186   4.349   2.762   7.515 -0.0094  0.5180 -0.8077
  170SOPE   H4R19187   4.272   2.838   7.542  0.5537  0.6224  0.5176
  170SOPE   H4S19188   4.300   2.663   7.517 -0.5186  0.7906  0.4831
  170SOPE   C2519189   4.462   2.765   7.619 -0.2121 -0.0473 -0.3466
  170SOPE   H5R19190   4.532   2.680   7.604 -1.9252 -1.6139  0.2438
  170SOPE   H5S19191   4.521   2.858   7.607  1.6967 -0.6619  3.3418
  170SOPE   C2619192   4.421   2.773   7.769 -0.1146 -0.2728 -0.1643
  170SOPE   H6R19193   4.356   2.862   7.787  1.3766  0.8830 -0.3969
  170SOPE   H6S19194   4.366   2.681   7.797  1.2124 -0.7760  0.7718
  170SOPE   C2719195   4.543   2.777   7.858 -0.1668 -0.4006 -0.0966
  170SOPE   H7R19196   4.596   2.680   7.845  2.2634  0.7514  0.7122
  170SOPE   H7S19197   4.615   2.853   7.821  2.8426 -1.8407  2.5414
  170SOPE   C2819198   4.504   2.805   8.009  0.5066 -0.1203 -0.0380
  170SOPE   H8R19199   4.602   2.790   8.059  0.3055  3.0725  1.4384
  170SOPE   H8S19200   4.485   2.913   8.028 -0.5014 -0.5122  1.2344
  170SOPE   C2919201   4.390   2.718   8.060  0.0771  0.0218  0.3945
  170SOPE   H9119202   4.292   2.721   8.010  1.4102  0.5978 -2.2827
  170SOPE  C21019203   4.403   2.626   8.154  0.4184  0.3657 -0.0578
  170SOPE  H10119204   4.319   2.563   8.186  2.0123 -1.7511  0.0618
  170SOPE  C21119205   4.523   2.586   8.227 -0.7011 -0.3441  0.5206
  170SOPE  H11R19206   4.615   2.592   8.165 -0.2316 -0.2436  1.2166
  170SOPE  H11S19207   4.520   2.478   8.252  2.9891 -1.1848 -2.2992
  170SOPE  C21219208   4.558   2.660   8.355 -0.3194 -0.2050 -0.4063
  170SOPE  H12R19209   4.569   2.767   8.327  1.3213 -0.5991 -1.3537
  170SOPE  H12S19210   4.658   2.627   8.392  0.5095  1.2358 -1.3265
  170SOPE  C21319211   4.458   2.651   8.462 -0.0546  0.0871 -0.2343
  170SOPE  H13R19212   4.354   2.640   8.426  1.0316 -0.4604 -3.3895
  170SOPE  H13S19213   4.451   2.748   8.516  2.3775  0.9605 -1.4080
  170SOPE  C21419214   4.483   2.540   8.571  0.0031 -0.6866 -0.7517
  170SOPE  H14R19215   4.553   2.460   8.540  1.6684 -0.0356  1.2175
  170SOPE  H14S19216   4.383   2.495   8.587  0.8543 -1.6341  2.0744
  170SOPE  C21519217   4.526   2.588   8.704  0.3507 -0.2041 -0.3606
  170SOPE  H15R19218   4.453   2.668   8.728  0.4794 -0.1158 -0.2663
  170SOPE  H15S19219   4.627   2.632   8.693  1.0829 -1.7577 -0.0063
  170SOPE  C21619220   4.531   2.478   8.808  0.1043  0.0191 -0.6021
  170SOPE  H16R19221   4.636   2.442   8.813 -0.0111 -0.2065  0.3162
  170SOPE  H16S19222   4.466   2.394   8.778 -0.1051  0.5706 -1.7235
  170SOPE  C21719223   4.501   2.524   8.956  0.2759  0.1427  0.0695
  170SOPE  H17R19224   4.567   2.613   8.967  0.2198  0.3058 -0.8751
  170SOPE  H17S19225   4.531   2.452   9.035  1.7618 -0.1978 -0.7787
  170SOPE  C21819226   4.363   2.574   8.980  0.7014 -0.0494  1.1107
  170SOPE  H18R19227   4.361   2.601   9.088  0.8739 -2.1063  1.6513
  170SOPE  H18S19228   4.282   2.504   8.952  1.0733  0.6916 -1.9687
  170SOPE  H18T19229   4.346   2.668   8.923  1.1994 -0.0867  0.8923
  170SOPE   C3319230   4.069   3.294   7.171  0.0373 -0.5108 -0.2595
  170SOPE   H3X19231   3.974   3.305   7.115  1.5046 -0.7560 -2.9316
  170SOPE   H3Y19232   4.083   3.379   7.240 -0.3830 -1.1950  0.6684
  170SOPE   C3419233   4.032   3.177   7.263  0.5176 -0.7376 -0.1425
  170SOPE   H4X19234   4.012   3.085   7.203  1.9071 -0.2710 -1.3369
  170SOPE   H4Y19235   3.948   3.211   7.327 -0.3712  0.8709 -2.1141
  170SOPE   C3519236   4.146   3.134   7.356 -0.5549  0.0236  0.4614
  170SOPE   H5X19237   4.246   3.139   7.308  0.3137 -1.3100  2.0406
  170SOPE   H5Y19238   4.126   3.027   7.378 -0.1046  0.0001  0.7584
  170SOPE   C3619239   4.147   3.208   7.494  0.1516 -0.2856  0.0524
  170SOPE   H6X19240   4.057   3.168   7.546 -0.4178 -2.6075 -2.6017
  170SOPE   H6Y19241   4.136   3.314   7.463  0.3304  0.2954  1.9367
  170SOPE   C3719242   4.279   3.174   7.579 -0.6587 -0.3074  0.0572
  170SOPE   H7X19243   4.361   3.241   7.544  0.5034 -1.8941 -0.3432
  170SOPE   H7Y19244   4.304   3.071   7.544  0.3212 -0.6263  1.6277
  170SOPE   C3819245   4.270   3.167   7.733  0.0603  0.4889  0.5393
  170SOPE   H8X19246   4.216   3.085   7.786 -3.2829  2.6835  0.6570
  170SOPE   H8Y19247   4.212   3.255   7.767  0.9801  1.4492 -0.3294
  170SOPE   C3919248   4.415   3.165   7.785 -0.0875 -0.1431  0.2679
  170SOPE   H9X19249   4.464   3.252   7.735 -0.3291  0.1585  0.5592
  170SOPE   H9Y19250   4.451   3.068   7.744  0.9464 -0.0145  0.8464
  170SOPE  C31019251   4.430   3.175   7.944  0.0031  0.3867  0.3491
  170SOPE  H10X19252   4.539   3.160   7.963  0.4589  1.9260 -0.9683
  170SOPE  H10Y19253   4.379   3.086   7.987  0.3210  0.2153  0.3789
  170SOPE  C31119254   4.384   3.299   8.005  0.7379 -0.4009  0.0132
  170SOPE  H11X19255   4.275   3.301   8.024  0.9428  1.0560  1.1182
  170SOPE  H11Y19256   4.419   3.373   7.929  0.1257 -0.6104 -0.4694
  170SOPE  C31219257   4.458   3.322   8.140  1.1034  0.0775  0.0852
  170SOPE  H12X19258   4.430   3.422   8.180  0.7405 -0.4845  1.2454
  170SOPE  H12Y19259   4.567   3.315   8.120  0.8832 -0.2531 -1.0057
  170SOPE  C31319260   4.418   3.217   8.252  0.3610 -0.3995 -0.3342
  170SOPE  H13X19261   4.445   3.114   8.220 -0.4469 -0.6648 -0.1773
  170SOPE  H13Y19262   4.309   3.216   8.273  0.7753  0.2790  1.9603
  170SOPE  C31419263   4.483   3.243   8.390  0.7582  0.0227 -0.0360
  170SOPE  H14X19264   4.442   3.335   8.439  1.9849 -0.0193  1.0972
  170SOPE  H14Y19265   4.592   3.259   8.376  0.3272  2.3769 -0.9590
  170SOPE  C31519266   4.462   3.121   8.477  0.2354 -0.4670  0.0877
  170SOPE  H15X19267   4.489   3.031   8.418 -1.3283 -2.3694  2.1598
  170SOPE  H15Y19268   4.356   3.112   8.508 -0.2023  1.9485 -0.6158
  170SOPE  C31619269   4.554   3.122   8.600  0.3329 -0.5203  1.0151
  170SOPE  H16X19270   4.515   3.200   8.669  0.5362 -0.1559  0.7167
  170SOPE  H16Y19271   4.654   3.160   8.571 -0.8003  0.4523 -1.8302
  170SOPE  C31719272   4.560   2.983   8.675  0.3627 -0.8722  0.7370
  170SOPE  H17X19273   4.648   2.926   8.638 -0.2506 -1.3939  0.0760
  170SOPE  H17Y19274   4.460   2.946   8.644 -0.4004  0.4805  1.5332
  170SOPE  C31819275   4.575   2.999   8.827  0.8974  0.0242  0.7525
  170SOPE  H18X19276   4.487   3.052   8.869  1.3762 -0.3605  2.2620
  170SOPE  H18Y19277   4.662   3.065   8.847  0.0101  1.0307  1.3578
  170SOPE  H18Z19278   4.587   2.907   8.886  1.7493  0.2542  0.9311
  171SOPE     N19279   4.256   0.225   6.285  0.5093 -0.1621  0.1043
  171SOPE   HN119280   4.184   0.151   6.289  0.0421  0.2914  0.1803
  171SOPE   HN219281   4.211   0.316   6.260 -1.8665 -1.2802  0.1987
  171SOPE   HN319282   4.326   0.198   6.213 -0.9471  0.0777 -1.4382
  171SOPE   C1219283   4.328   0.247   6.421  0.0040  0.0718  0.4664
  171SOPE  H12A19284   4.246   0.290   6.484 -1.9020 -1.1162 -1.1384
  171SOPE  H12B19285   4.401   0.328   6.398 -1.0349  1.1168  0.7621
  171SOPE   C1119286   4.384   0.121   6.471  0.6999  0.1532 -0.4015
  171SOPE  H11A19287   4.301   0.048   6.474 -1.0632  2.0644 -1.9343
  171SOPE  H11B19288   4.426   0.125   6.574  0.8455  2.3672 -0.5095
  171SOPE     P19289   4.569  -0.054   6.402 -0.0502  0.2521 -0.1465
  171SOPE   O1319290   4.643  -0.088   6.278 -0.0711 -0.0512  0.1872
  171SOPE   O1419291   4.477  -0.160   6.441  0.1400  0.4937 -0.1567
  171SOPE   O1219292   4.485   0.081   6.381  0.2498  0.2327  0.0353
  171SOPE   O1119293   4.659  -0.012   6.526 -0.2868 -0.2038 -0.0087
  171SOPE    C119294   4.725   0.112   6.523 -0.6301 -0.0655  0.7220
  171SOPE    HA19295   4.662   0.198   6.494 -0.2492 -0.3052 -0.8681
  171SOPE    HB19296   4.810   0.114   6.451 -0.6571  0.7675  0.7133
  171SOPE    C219297   4.772   0.144   6.669  0.3201  0.3081  0.5059
  171SOPE    HS19298   4.835   0.057   6.697  0.7082  0.2791 -0.4343
  171SOPE   O2119299   4.655   0.162   6.754  0.5712  0.2710  0.0835
  171SOPE   C2119300   4.644   0.070   6.848 -0.3190  0.0648 -0.2385
  171SOPE   O2219301   4.727  -0.011   6.873 -0.5906  0.0827 -0.3593
  171SOPE   C2219302   4.505   0.073   6.904  0.6790 -1.6195 -0.4696
  171SOPE   H2R19303   4.494  -0.017   6.967 -4.7227 -0.4081  0.5635
  171SOPE   H2S19304   4.430   0.068   6.822 -0.2618  0.4252  0.2259
  171SOPE    C319305   4.857   0.269   6.665 -0.4835 -0.0625  0.1574
  171SOPE    HX19306   4.788   0.352   6.639  0.9755  1.5664  1.3595
  171SOPE    HY19307   4.925   0.245   6.580  0.8382 -1.7739  1.6474
  171SOPE   O3119308   4.919   0.301   6.788 -0.6605  0.7068 -0.8328
  171SOPE   C3119309   5.033   0.240   6.809 -0.0993 -0.1020 -0.2153
  171SOPE   O3219310   5.084   0.150   6.745  0.3932  0.5635 -0.2207
  171SOPE   C3219311   5.081   0.277   6.950 -0.5383  0.2852 -0.1271
  171SOPE   H2X19312   5.010   0.225   7.019 -0.7980 -0.0235 -0.6204
  171SOPE   H2Y19313   5.057   0.385   6.962  0.4732  0.5580 -0.5712
  171SOPE   C2319314   4.477   0.185   7.015 -0.1659 -0.0079 -0.1825
  171SOPE   H3R19315   4.370   0.186   7.046 -0.2955  1.6035 -0.6150
  171SOPE   H3S19316   4.505   0.283   6.971  1.0401 -0.6485 -0.8798
  171SOPE   C2419317   4.560   0.169   7.141  0.2267 -0.5242 -0.5466
  171SOPE   H4R19318   4.554   0.064   7.179 -1.9054 -0.2494 -0.0641
  171SOPE   H4S19319   4.667   0.193   7.128  0.2882 -0.2458  0.4192
  171SOPE   C2519320   4.506   0.265   7.247 -0.0566  0.0399 -0.1166
  171SOPE   H5R19321   4.501   0.369   7.207 -1.0318 -0.0496 -0.2466
  171SOPE   H5S19322   4.397   0.247   7.258  0.0890  0.2262  1.7716
  171SOPE   C2619323   4.578   0.251   7.382  0.6533  0.9207 -0.0885
  171SOPE   H6R19324   4.565   0.143   7.402  1.2193  1.0408  0.9804
  171SOPE   H6S19325   4.684   0.282   7.371  1.6134 -2.5578 -1.3196
  171SOPE   C2719326   4.513   0.330   7.496 -0.2939  0.2822 -0.2252
  171SOPE   H7R19327   4.486   0.435   7.472  0.8343  0.5827 -0.2048
  171SOPE   H7S19328   4.426   0.264   7.517  0.2526 -0.5412 -0.5486
  171SOPE   C2819329   4.582   0.337   7.634  0.1128  0.4205  0.6575
  171SOPE   H8R19330   4.600   0.228   7.652  2.3067  0.3452 -1.7649
  171SOPE   H8S19331   4.678   0.392   7.632 -0.8986  2.2069 -0.3752
  171SOPE   C2919332   4.491   0.391   7.748 -0.7157  0.2275 -0.1995
  171SOPE   H9119333   4.425   0.475   7.722 -0.7300  0.6555  1.1802
  171SOPE  C21019334   4.493   0.340   7.872 -0.1111 -0.5162  0.3687
  171SOPE  H10119335   4.453   0.405   7.952  0.9531 -1.2237  1.4879
  171SOPE  C21119336   4.570   0.225   7.922  0.1655  0.2054  0.0796
  171SOPE  H11R19337   4.660   0.258   7.977  0.1572 -0.2405  0.3630
  171SOPE  H11S19338   4.593   0.162   7.833  0.3611 -1.3274  1.1959
  171SOPE  C21219339   4.491   0.137   8.026 -0.2970  0.6563  0.1276
  171SOPE  H12R19340   4.557   0.048   8.037 -0.0824  0.7763 -0.1837
  171SOPE  H12S19341   4.391   0.113   7.984  0.5484  1.4951 -2.4679
  171SOPE  C21319342   4.462   0.195   8.165 -0.3034 -0.3633 -0.0630
  171SOPE  H13R19343   4.375   0.265   8.168 -1.3534 -1.6224 -0.3395
  171SOPE  H13S19344   4.554   0.241   8.207  0.0230  2.4409 -3.6438
  171SOPE  C21419345   4.421   0.090   8.273 -0.2864  0.1418  0.5855
  171SOPE  H14R19346   4.507   0.022   8.286  0.7481  1.1574 -0.8517
  171SOPE  H14S19347   4.341   0.029   8.224  1.5072  0.6849 -3.2194
  171SOPE  C21519348   4.392   0.152   8.412  0.4832 -0.0361 -0.2059
  171SOPE  H15R19349   4.340   0.245   8.381 -1.7448 -1.2195 -0.1364
  171SOPE  H15S19350   4.487   0.177   8.463 -0.7738  1.3936  1.5149
  171SOPE  C21619351   4.291   0.071   8.498  0.0972 -0.1376 -0.6458
  171SOPE  H16R19352   4.345  -0.026   8.502  0.7012  0.2454  1.2665
  171SOPE  H16S19353   4.193   0.050   8.451 -0.3031  1.9800 -0.8092
  171SOPE  C21719354   4.273   0.136   8.639 -0.1609  0.4298  0.3690
  171SOPE  H17R19355   4.217   0.227   8.608  0.3665  1.0023  1.0844
  171SOPE  H17S19356   4.368   0.154   8.693  1.7305  0.7495 -2.9437
  171SOPE  C21819357   4.173   0.047   8.712  0.0672  1.0394  0.2742
  171SOPE  H18R19358   4.134   0.099   8.803  1.5140  0.0502  1.4869
  171SOPE  H18S19359   4.223  -0.044   8.751 -0.7053  1.2407  1.7914
  171SOPE  H18T19360   4.091   0.022   8.642 -1.0412  1.3767  1.4330
  171SOPE   C3319361   5.236   0.262   6.963 -1.0212 -0.4588 -0.1789
  171SOPE   H3X19362   5.274   0.333   6.887 -2.1442 -1.1475 -1.4175
  171SOPE   H3Y19363   5.260   0.155   6.946  2.7523  0.2719  0.2888
  171SOPE   C3419364   5.285   0.298   7.099 -0.4774  0.5553 -0.0149
  171SOPE   H4X19365   5.264   0.407   7.109  1.5443  0.8983  0.7815
  171SOPE   H4Y19366   5.394   0.280   7.096 -0.6420 -0.6184  0.7731
  171SOPE   C3519367   5.223   0.211   7.207 -0.8391  0.4139  0.7013
  171SOPE   H5X19368   5.258   0.108   7.182  2.0192  1.0433  1.9480
  171SOPE   H5Y19369   5.112   0.211   7.201 -0.9224 -0.7446  1.9466
  171SOPE   C3619370   5.277   0.250   7.348  0.5390  0.1907 -0.2414
  171SOPE   H6X19371   5.382   0.283   7.338  0.3102  0.8170 -0.5780
  171SOPE   H6Y19372   5.275   0.156   7.408  0.8274  1.5623  1.9724
  171SOPE   C3719373   5.183   0.363   7.403 -0.0656  0.3638  0.0824
  171SOPE   H7X19374   5.139   0.422   7.320 -2.1046 -0.1840  0.7287
  171SOPE   H7Y19375   5.249   0.434   7.458  0.3787  1.1442 -1.4372
  171SOPE   C3819376   5.081   0.303   7.494  0.0518  0.0318  0.5618
  171SOPE   H8X19377   5.019   0.227   7.442 -1.6111  0.3993  1.9829
  171SOPE   H8Y19378   5.004   0.382   7.505  0.9645  1.0190 -0.0468
  171SOPE   C3919379   5.128   0.269   7.637 -0.4234 -0.1584  1.4420
  171SOPE   H9X19380   5.179   0.360   7.674 -2.2361  1.0694  0.9662
  171SOPE   H9Y19381   5.207   0.191   7.631  0.4738  0.8041  0.4345
  171SOPE  C31019382   5.015   0.238   7.735  0.3352 -0.0121  0.9056
  171SOPE  H10X19383   4.954   0.148   7.711  0.2757 -0.0717  1.2803
  171SOPE  H10Y19384   4.948   0.326   7.730  1.9756  1.1540 -1.3346
  171SOPE  C31119385   5.052   0.236   7.882  1.1036 -0.4997  0.1155
  171SOPE  H11X19386   5.100   0.327   7.922 -0.3425 -0.5705  2.0900
  171SOPE  H11Y19387   5.114   0.146   7.904  0.7329 -0.4057  1.5890
  171SOPE  C31219388   4.926   0.226   7.971 -0.4387 -0.9485  0.5641
  171SOPE  H12X19389   4.851   0.154   7.930 -0.2530 -0.6069 -0.3803
  171SOPE  H12Y19390   4.874   0.324   7.974  1.7706  0.2076  2.2313
  171SOPE  C31319391   4.961   0.182   8.108  0.4948 -0.3567 -0.2888
  171SOPE  H13X19392   5.028   0.253   8.160  2.0241  0.4077 -3.1808
  171SOPE  H13Y19393   5.021   0.089   8.093  0.1449 -0.2531 -2.5277
  171SOPE  C31419394   4.843   0.140   8.200  0.3823  0.5071  0.1543
  171SOPE  H14X19395   4.789   0.060   8.145  1.6161 -1.0232  1.1148
  171SOPE  H14Y19396   4.773   0.225   8.210 -0.5994  0.0309 -2.2273
  171SOPE  C31519397   4.888   0.115   8.350  0.3456 -0.0303 -0.4399
  171SOPE  H15X19398   4.936   0.209   8.384 -1.5804  1.0301 -0.6166
  171SOPE  H15Y19399   4.969   0.039   8.354  1.9847  1.6359 -1.3540
  171SOPE  C31619400   4.775   0.084   8.445 -0.0986  0.7184  0.1443
  171SOPE  H16X19401   4.734  -0.019   8.432  0.4965  0.5348 -0.2837
  171SOPE  H16Y19402   4.688   0.146   8.416 -0.9744  0.0651  1.3500
  171SOPE  C31719403   4.818   0.108   8.592  0.5880  0.6049  0.0105
  171SOPE  H17X19404   4.870   0.205   8.605  0.4162  0.7628 -0.4547
  171SOPE  H17Y19405   4.891   0.034   8.629 -0.5524 -0.7330 -0.3968
  171SOPE  C31819406   4.701   0.100   8.689 -0.5375 -0.0397  0.2530
  171SOPE  H18X19407   4.640   0.193   8.699  0.5443  0.6857  0.1506
  171SOPE  H18Y19408   4.747   0.078   8.788 -0.8195  0.3904  0.4819
  171SOPE  H18Z19409   4.629   0.018   8.669 -0.3004  0.1442 -1.4243
  172SOPE     N19410   5.148   2.005   6.557  0.1031 -0.4429  0.5984
  172SOPE   HN119411   5.152   2.084   6.624  0.6981 -0.6839  0.8439
  172SOPE   HN219412   5.108   2.046   6.469  0.0623 -1.5296  0.1089
  172SOPE   HN319413   5.094   1.927   6.599  0.6699 -1.7319 -1.0096
  172SOPE   C1219414   5.285   1.944   6.517 -0.4969 -0.7185  0.0169
  172SOPE  H12A19415   5.341   1.944   6.613 -0.8664  1.9046  0.2743
  172SOPE  H12B19416   5.344   2.021   6.463 -0.0638 -0.6087  0.6314
  172SOPE   C1119417   5.262   1.807   6.442  0.2466 -0.2501  0.3620
  172SOPE  H11A19418   5.365   1.776   6.415  0.5971 -0.0625  1.4474
  172SOPE  H11B19419   5.205   1.827   6.348  0.2177 -0.6814  0.2864
  172SOPE     P19420   5.172   1.565   6.484  0.6505 -0.0578  0.1318
  172SOPE   O1319421   5.287   1.528   6.405 -0.4206 -0.1184 -0.3863
  172SOPE   O1419422   5.035   1.543   6.421 -0.3420 -0.6539 -0.3462
  172SOPE   O1219423   5.183   1.718   6.526  0.4795 -0.0142 -0.0800
  172SOPE   O1119424   5.179   1.486   6.617 -0.0840 -0.3770 -0.1589
  172SOPE    C119425   5.110   1.530   6.737  0.2984  0.1871 -0.2044
  172SOPE    HA19426   5.029   1.459   6.769  0.5526  0.6681  1.5830
  172SOPE    HB19427   5.065   1.631   6.734  4.5282  2.0933 -3.1346
  172SOPE    C219428   5.210   1.542   6.855  0.5788  0.3428  0.2225
  172SOPE    HS19429   5.263   1.447   6.878 -1.5978 -0.8905  0.3567
  172SOPE   O2119430   5.135   1.563   6.976 -0.0519 -1.1236 -0.1255
  172SOPE   C2119431   5.056   1.664   7.003  0.3276 -0.4964  0.3104
  172SOPE   O2219432   5.033   1.764   6.936  0.1027  0.2590  0.1559
  172SOPE   C2219433   4.975   1.631   7.132  1.0139 -0.0201 -0.1640
  172SOPE   H2R19434   5.002   1.533   7.176  2.5010  1.0853  1.4569
  172SOPE   H2S19435   4.867   1.638   7.108  1.9300 -0.4917 -5.0606
  172SOPE    C319436   5.309   1.654   6.829  1.1031  0.5433  0.7584
  172SOPE    HX19437   5.264   1.749   6.792  0.8055 -1.0014 -3.1001
  172SOPE    HY19438   5.381   1.637   6.746  1.5099  1.6236  0.8797
  172SOPE   O3119439   5.380   1.680   6.959  1.3859 -0.2416 -1.0322
  172SOPE   C3119440   5.499   1.621   6.969  0.3289 -0.1362  1.3342
  172SOPE   O3219441   5.543   1.547   6.880  0.2690 -0.3626 -0.6010
  172SOPE   C3219442   5.575   1.647   7.100  1.0791  0.0263 -0.2781
  172SOPE   H2X19443   5.645   1.734   7.095 -0.4073  1.3317  1.1471
  172SOPE   H2Y19444   5.639   1.560   7.125  1.9020  0.6419 -0.1963
  172SOPE   C2319445   4.996   1.727   7.252  0.3125 -0.2963  0.2073
  172SOPE   H3R19446   4.952   1.826   7.226 -3.4711 -0.7482  4.3769
  172SOPE   H3S19447   5.104   1.752   7.256  0.3891 -0.7576  1.1739
  172SOPE   C2419448   4.944   1.698   7.392 -0.2367  0.8436  0.1005
  172SOPE   H4R19449   4.987   1.602   7.426 -2.3062 -0.4646 -0.8448
  172SOPE   H4S19450   4.978   1.773   7.466 -0.2126  0.6260  0.3102
  172SOPE   C2519451   4.796   1.673   7.404  0.2799 -0.0862 -0.1170
  172SOPE   H5R19452   4.745   1.771   7.394  1.6847  0.4997 -1.7512
  172SOPE   H5S19453   4.762   1.611   7.319  0.6425  0.4093 -0.6273
  172SOPE   C2619454   4.749   1.597   7.532  0.2161 -0.6116 -0.0370
  172SOPE   H6R19455   4.668   1.529   7.497  0.3138 -0.0202 -1.4646
  172SOPE   H6S19456   4.831   1.529   7.562  1.3882  0.1056 -1.5038
  172SOPE   C2719457   4.704   1.687   7.643  0.1749 -0.0096  0.0522
  172SOPE   H7R19458   4.776   1.771   7.660 -1.7678  1.6110  0.4827
  172SOPE   H7S19459   4.605   1.732   7.620  0.1297  0.1400  0.5160
  172SOPE   C2819460   4.695   1.615   7.786 -0.5676 -0.3348  0.1860
  172SOPE   H8R19461   4.796   1.617   7.833 -0.6349 -0.5445  0.3378
  172SOPE   H8S19462   4.646   1.695   7.845  1.4342  2.0614 -1.2856
  172SOPE   C2919463   4.616   1.485   7.795  0.5212  0.0627 -1.1817
  172SOPE   H9119464   4.575   1.440   7.704  1.8070  1.0353 -2.2463
  172SOPE  C21019465   4.602   1.413   7.906 -0.9854  0.2382 -0.4146
  172SOPE  H10119466   4.532   1.329   7.901 -2.5897  1.4598  1.1769
  172SOPE  C21119467   4.663   1.428   8.045  0.0369 -0.8583 -0.6381
  172SOPE  H11R19468   4.735   1.512   8.051 -0.6427 -0.4140  1.5889
  172SOPE  H11S19469   4.729   1.339   8.059  1.3190 -0.1230 -1.8981
  172SOPE  C21219470   4.553   1.430   8.153 -0.3778 -0.1038  0.1566
  172SOPE  H12R19471   4.481   1.348   8.133 -2.4494  1.8238 -0.5723
  172SOPE  H12S19472   4.499   1.526   8.142  0.7786  0.4009 -1.2161
  172SOPE  C21319473   4.607   1.427   8.296 -0.1715 -0.2728  0.4330
  172SOPE  H13R19474   4.530   1.445   8.374  1.4112  2.4283  1.4030
  172SOPE  H13S19475   4.683   1.507   8.308 -0.1995  0.1333 -1.8752
  172SOPE  C21419476   4.674   1.295   8.329 -1.1130 -0.6135  0.4207
  172SOPE  H14R19477   4.765   1.293   8.265 -0.2523  1.2100  1.5325
  172SOPE  H14S19478   4.598   1.221   8.295  0.2782 -1.7060 -0.3766
  172SOPE  C21519479   4.714   1.289   8.472 -0.5512  0.3309  0.1205
  172SOPE  H15R19480   4.619   1.324   8.516 -0.5399  0.6861 -0.1351
  172SOPE  H15S19481   4.797   1.361   8.490  0.5338 -0.9453  0.3377
  172SOPE  C21619482   4.765   1.153   8.522  0.0998  0.3169 -0.2221
  172SOPE  H16R19483   4.864   1.125   8.480 -0.6478 -0.7506 -1.3469
  172SOPE  H16S19484   4.694   1.074   8.489  0.2367  0.0673  0.0829
  172SOPE  C21719485   4.783   1.148   8.675 -1.0938  0.1183  0.3933
  172SOPE  H17R19486   4.687   1.174   8.725  0.3110 -1.9941  4.4489
  172SOPE  H17S19487   4.859   1.225   8.698 -0.5269 -0.4843  0.5594
  172SOPE  C21819488   4.815   1.007   8.728  0.1882 -0.3373  1.0767
  172SOPE  H18R19489   4.722   0.946   8.725 -0.3878  0.4769  1.9045
  172SOPE  H18S19490   4.850   1.016   8.833  1.1258  0.9320  0.6735
  172SOPE  H18T19491   4.898   0.951   8.681 -0.2654 -0.4211  0.3632
  172SOPE   C3319492   5.470   1.663   7.209  0.4454 -0.7338  0.2094
  172SOPE   H3X19493   5.398   1.579   7.208 -0.8865  0.3919 -1.9108
  172SOPE   H3Y19494   5.419   1.761   7.192 -0.3831 -1.2724 -0.4188
  172SOPE   C3419495   5.524   1.673   7.347 -0.1315  0.1362 -0.2644
  172SOPE   H4X19496   5.580   1.769   7.354 -1.3003  0.7853  0.4353
  172SOPE   H4Y19497   5.591   1.589   7.374 -1.1804  0.2501  2.8608
  172SOPE   C3519498   5.410   1.690   7.452 -0.2478 -0.1174  0.0313
  172SOPE   H5X19499   5.360   1.591   7.453 -2.7732  1.1367  1.7754
  172SOPE   H5Y19500   5.339   1.771   7.425  2.5568  2.3065 -0.3665
  172SOPE   C3619501   5.467   1.710   7.597  0.3436  0.1782  0.3407
  172SOPE   H6X19502   5.531   1.800   7.589  1.0638 -0.2124  1.5731
  172SOPE   H6Y19503   5.540   1.631   7.624 -0.0983 -0.1179  0.6844
  172SOPE   C3719504   5.358   1.731   7.697  0.0320 -0.3607 -1.0927
  172SOPE   H7X19505   5.292   1.643   7.706 -0.9622  0.2417 -2.4110
  172SOPE   H7Y19506   5.297   1.820   7.669  0.6808  1.1841  2.1466
  172SOPE   C3819507   5.413   1.752   7.841 -0.3038  0.0346 -0.4191
  172SOPE   H8X19508   5.337   1.819   7.887  0.3947  1.1581 -0.8733
  172SOPE   H8Y19509   5.501   1.819   7.832  0.1666 -0.4168  0.6646
  172SOPE   C3919510   5.436   1.632   7.932  0.1350  0.0642 -0.3124
  172SOPE   H9X19511   5.484   1.557   7.864 -2.0515 -1.3944 -0.2894
  172SOPE   H9Y19512   5.338   1.583   7.949 -0.7048  1.6583 -0.4713
  172SOPE  C31019513   5.513   1.654   8.063 -0.2468 -0.2380 -0.1827
  172SOPE  H10X19514   5.465   1.607   8.151  2.1427  1.3802  2.0566
  172SOPE  H10Y19515   5.525   1.764   8.077 -0.6562 -0.3532  1.0950
  172SOPE  C31119516   5.656   1.598   8.046  0.7631 -0.2228 -0.7355
  172SOPE  H11X19517   5.703   1.623   7.949  1.8354 -0.9722 -0.4212
  172SOPE  H11Y19518   5.664   1.488   8.053  4.0017  0.0066 -0.2804
  172SOPE  C31219519   5.759   1.654   8.145 -0.3083 -0.0983 -0.5636
  172SOPE  H12X19520   5.788   1.761   8.138  1.0410 -0.3295  1.1291
  172SOPE  H12Y19521   5.851   1.592   8.133 -0.3900 -1.0541  2.9540
  172SOPE  C31319522   5.714   1.640   8.295 -0.5063  0.7596  0.3573
  172SOPE  H13X19523   5.642   1.556   8.304  0.0661  0.2928  0.6192
  172SOPE  H13Y19524   5.654   1.732   8.311  0.5069  1.8072 -1.6051
  172SOPE  C31419525   5.824   1.627   8.400  0.4340 -0.1181 -0.2729
  172SOPE  H14X19526   5.901   1.706   8.386 -0.9935  1.0416 -1.7299
  172SOPE  H14Y19527   5.871   1.527   8.388  2.5626  0.5959  1.6138
  172SOPE  C31519528   5.775   1.633   8.544 -0.5092  0.0186  0.1488
  172SOPE  H15X19529   5.692   1.560   8.552 -0.7105  0.2804  0.4317
  172SOPE  H15Y19530   5.726   1.731   8.562  0.8251  0.5583  0.9606
  172SOPE  C31619531   5.878   1.607   8.648 -0.6223  0.1798  0.6352
  172SOPE  H16X19532   5.974   1.659   8.626 -0.9532 -0.0475 -1.3731
  172SOPE  H16Y19533   5.918   1.504   8.646  0.9407  0.7772 -0.0587
  172SOPE  C31719534   5.826   1.630   8.791  0.3082 -0.0211  0.2073
  172SOPE  H17X19535   5.913   1.595   8.851  2.2333 -0.3447 -2.6848
  172SOPE  H17Y19536   5.739   1.562   8.801  0.9285 -0.7212  0.9230
  172SOPE  C31819537   5.783   1.773   8.822 -0.0983 -0.0193 -0.4790
  172SOPE  H18X19538   5.692   1.801   8.765 -1.4953 -1.9101  0.7446
  172SOPE  H18Y19539   5.865   1.844   8.797  0.0270  0.3532  0.9319
  172SOPE  H18Z19540   5.755   1.791   8.928 -1.2364 -0.7274 -0.6474
  173SAPI   C1219541   1.013   5.735  10.822 -0.0605 -0.2356  0.3190
  173SAPI    H219542   0.989   5.684  10.726  1.1054 -2.2477  1.0793
  173SAPI    O219543   1.067   5.866  10.798  0.9181  0.4038  0.6332
  173SAPI   HO219544   1.155   5.856  10.761  0.7057  1.4526 -0.1662
  173SAPI   C1319545   0.877   5.747  10.892  0.2085  0.1641 -0.1007
  173SAPI    H319546   0.846   5.640  10.904 -0.1453  0.2666 -0.0886
  173SAPI    O319547   0.780   5.802  10.810 -0.0562 -0.4850  0.6827
  173SAPI   HO319548   0.805   5.890  10.781  2.3379 -1.4947 -0.5275
  173SAPI   C1419549   0.906   5.803  11.036  0.2119  0.1532  0.1228
  173SAPI    H419550   0.937   5.910  11.036  1.3876 -0.1777 -0.5498
  173SAPI    O419551   0.783   5.802  11.113 -0.2344 -0.1909  0.1410
  173SAPI   HO419552   0.749   5.714  11.131  0.0893 -0.2647  0.3727
  173SAPI   C1519553   1.019   5.728  11.108 -0.0768  0.1608  0.6789
  173SAPI    H519554   0.992   5.624  11.137  2.2602  0.0617  2.7500
  173SAPI    O519555   1.040   5.784  11.233  0.4892  0.5912 -0.0930
  173SAPI   HO519556   0.982   5.736  11.292  0.1461  0.9016 -0.1810
  173SAPI   C1619557   1.152   5.718  11.032  1.3266 -0.7915  0.2007
  173SAPI    H619558   1.200   5.817  11.018  0.1972  0.1903  2.8471
  173SAPI    O619559   1.250   5.642  11.102  0.1058  0.3926 -0.6088
  173SAPI   HO619560   1.329   5.632  11.049  0.3731  0.1449 -0.1569
  173SAPI   C1119561   1.118   5.650  10.900  0.9494  0.7177  0.3350
  173SAPI    H119562   1.079   5.548  10.922  0.4986  0.8663  0.2292
  173SAPI     P19563   1.259   5.512  10.719  0.2376  0.0938 -0.0275
  173SAPI   O1319564   1.202   5.385  10.774 -0.0326 -0.4646  0.1606
  173SAPI   O1419565   1.393   5.502  10.660 -0.5238 -0.3002 -0.3090
  173SAPI   O1219566   1.244   5.632  10.829  0.2725 -0.5213 -0.3342
  173SAPI   O1119567   1.167   5.566  10.606 -0.4088 -0.2738  0.4114
  173SAPI    C119568   1.210   5.661  10.514 -0.0271  0.1687 -0.6433
  173SAPI    HA19569   1.173   5.763  10.540  2.2351  0.1008  3.2624
  173SAPI    HB19570   1.320   5.665  10.499  0.0471  2.1136  0.1966
  173SAPI    C219571   1.156   5.635  10.371 -0.1183 -0.4560 -0.6891
  173SAPI    HS19572   1.221   5.686  10.297  1.0641  0.4765  0.9421
  173SAPI   O2119573   1.020   5.679  10.350 -0.2836  0.4580  0.3772
  173SAPI   C2119574   1.002   5.806  10.367  0.2392 -0.5396 -0.1133
  173SAPI   O2219575   1.089   5.889  10.341 -0.6632 -0.0122 -0.5913
  173SAPI   C2219576   0.859   5.834  10.418 -0.5636  0.3652 -0.1115
  173SAPI   H2R19577   0.833   5.763  10.499  2.8635  0.9687  1.6057
  173SAPI   H2S19578   0.867   5.936  10.460  0.3446 -0.5545  2.0381
  173SAPI    C319579   1.155   5.476  10.343  0.0474  0.1879  0.2837
  173SAPI    HX19580   1.107   5.418  10.425 -1.5546  2.2539  0.8437
  173SAPI    HY19581   1.261   5.443  10.351  0.1002 -0.1866 -1.6864
  173SAPI   O3119582   1.095   5.444  10.213 -0.6128 -0.6759  0.4387
  173SAPI   C3119583   0.963   5.424  10.220 -0.3472 -0.3322  0.4041
  173SAPI   O3219584   0.898   5.396  10.320  0.0366  0.1562 -0.4590
  173SAPI   C3219585   0.896   5.419  10.077 -0.0520 -0.0556  0.2156
  173SAPI   H2X19586   0.798   5.369  10.085 -0.6137  1.1645  1.1597
  173SAPI   H2Y19587   0.954   5.355  10.007 -1.2395 -1.3682  0.4026
  173SAPI   C2319588   0.761   5.827  10.303  0.3382  0.1882  0.3252
  173SAPI   H3R19589   0.661   5.855  10.342  0.2953  0.4948 -0.0071
  173SAPI   H3S19590   0.746   5.721  10.274  1.4782  0.9889 -3.3998
  173SAPI   C2419591   0.789   5.916  10.182  0.0015 -0.1411  0.3175
  173SAPI   H4R19592   0.717   5.904  10.099  1.1002 -0.2203 -0.6243
  173SAPI   H4S19593   0.888   5.900  10.134  1.0981 -0.8919  2.7523
  173SAPI   C2519594   0.789   6.065  10.219  0.8208 -0.1154 -0.5438
  173SAPI   H5R19595   0.823   6.088  10.321  1.6139  1.5126 -1.1433
  173SAPI   C2619596   0.752   6.164  10.140  0.2106  0.1384 -0.6997
  173SAPI   H6R19597   0.753   6.265  10.185 -0.0031 -0.5828  0.9709
  173SAPI   C2719598   0.718   6.152   9.995 -0.5615  0.6634  0.3571
  173SAPI   H7R19599   0.619   6.100   9.998 -1.6217  2.4400 -1.7030
  173SAPI   H7S19600   0.799   6.089   9.953  0.5480  1.9985  0.4675
  173SAPI   C2819601   0.699   6.275   9.915  0.1220 -0.7283  0.1410
  173SAPI   H8R19602   0.633   6.355   9.952  0.1111 -0.5904 -0.1807
  173SAPI   C2919603   0.747   6.290   9.791 -0.1411 -0.3890 -0.4618
  173SAPI   H9R19604   0.728   6.392   9.752  1.4135 -0.1935 -0.7323
  173SAPI  C21019605   0.829   6.200   9.707 -0.1199  0.2718  0.6253
  173SAPI  H10R19606   0.829   6.094   9.742  2.8259  0.5695  1.6651
  173SAPI  H10S19607   0.937   6.219   9.725 -0.0433 -0.1055  0.5851
  173SAPI  C21119608   0.780   6.201   9.563 -0.4699  0.2645 -0.0718
  173SAPI  H11R19609   0.674   6.227   9.545 -0.0544 -0.1188 -3.4265
  173SAPI  C21219610   0.855   6.172   9.452  0.2905  0.6347 -0.2362
  173SAPI  H12R19611   0.801   6.189   9.358 -0.9542 -0.8075  0.1980
  173SAPI  C21319612   0.999   6.135   9.451  0.4067  0.5222  0.4816
  173SAPI  H13R19613   1.018   6.079   9.357  0.1336  1.5832 -0.2273
  173SAPI  H13S19614   1.026   6.063   9.531  2.1061  0.4991 -0.0879
  173SAPI  C21419615   1.089   6.253   9.453  0.0250  0.1204  0.0538
  173SAPI  H14R19616   1.171   6.255   9.527  0.1504 -1.7459  0.0035
  173SAPI  C21519617   1.102   6.340   9.351 -0.9609  0.4755  0.3379
  173SAPI  H15R19618   1.175   6.421   9.361  1.6268 -1.5061 -1.8330
  173SAPI  C21619619   1.026   6.328   9.216 -0.4737 -0.5599 -0.1930
  173SAPI  H16R19620   0.920   6.356   9.229 -1.3819 -2.2946 -3.4647
  173SAPI  H16S19621   1.027   6.220   9.192  2.0767 -0.6607  0.2359
  173SAPI  C21719622   1.077   6.427   9.105 -0.5387  0.1389  0.2589
  173SAPI  H17R19623   1.062   6.534   9.130  1.9699 -0.1075  3.0406
  173SAPI  H17S19624   1.021   6.394   9.014  1.0239 -0.8944 -0.3470
  173SAPI  C21819625   1.228   6.412   9.081  0.0404  0.2869  0.3997
  173SAPI  H18R19626   1.252   6.310   9.043  0.9634  0.9738 -0.9016
  173SAPI  H18S19627   1.283   6.413   9.177  1.1738  0.0064 -0.2341
  173SAPI  C21919628   1.281   6.509   8.973 -0.0340  1.0765  0.5430
  173SAPI  H19R19629   1.257   6.614   9.000  1.7795  1.3109  1.3222
  173SAPI  H19S19630   1.233   6.466   8.883  2.0667  0.6296 -0.3964
  173SAPI  C22019631   1.429   6.500   8.946 -0.2435  0.2514 -0.3526
  173SAPI  H20R19632   1.484   6.535   9.036  0.3733  0.9727 -0.9985
  173SAPI  H20S19633   1.460   6.560   8.858  1.6754  2.1335  1.5365
  173SAPI  H20T19634   1.467   6.396   8.938  0.4557  0.3400  1.4813
  173SAPI   C3319635   0.876   5.558  10.015  0.8752  1.0792 -0.4212
  173SAPI   H3X19636   0.976   5.603   9.993  1.4061  0.0949 -0.0368
  173SAPI   H3Y19637   0.820   5.623  10.086 -1.7799 -1.0081 -0.5502
  173SAPI   C3419638   0.790   5.556   9.891  0.5830  0.1046 -0.2068
  173SAPI   H4X19639   0.689   5.516   9.911  0.6433 -0.9612 -1.9183
  173SAPI   H4Y19640   0.833   5.476   9.826  0.3853  0.8302 -1.2397
  173SAPI   C3519641   0.788   5.683   9.809  0.0247 -0.4633  0.6419
  173SAPI   H5X19642   0.897   5.702   9.796  0.0808 -0.1315  1.5626
  173SAPI   H5Y19643   0.736   5.761   9.869  0.5064  0.8898 -0.6777
  173SAPI   C3619644   0.720   5.661   9.673 -0.6227  0.4470 -0.3787
  173SAPI   H6X19645   0.614   5.656   9.706 -0.6731  0.2564 -0.5693
  173SAPI   H6Y19646   0.743   5.577   9.605  1.3116  0.6910 -0.0344
  173SAPI   C3719647   0.742   5.784   9.592 -0.6173 -0.0068 -0.1693
  173SAPI   H7X19648   0.756   5.858   9.674  2.2149 -1.2531  0.5345
  173SAPI   H7Y19649   0.647   5.811   9.542 -0.7910  0.3615  0.3556
  173SAPI   C3819650   0.870   5.785   9.504  0.4946 -0.1414 -0.8945
  173SAPI   H8X19651   0.957   5.733   9.551 -0.5668 -1.2803 -0.1390
  173SAPI   H8Y19652   0.898   5.887   9.472 -2.9867  1.2020  0.1902
  173SAPI   C3919653   0.839   5.709   9.366 -0.2079 -0.0335 -0.2447
  173SAPI   H9X19654   0.830   5.600   9.385 -0.0225 -0.3869 -2.0643
  173SAPI   H9Y19655   0.928   5.714   9.300 -1.3877 -1.0857 -2.0015
  173SAPI  C31019656   0.727   5.772   9.275 -0.6429  0.2182  0.8008
  173SAPI  H10X19657   0.733   5.882   9.283  1.3869  0.2482 -0.7629
  173SAPI  H10Y19658   0.627   5.745   9.315 -1.1438  0.4586 -0.2878
  173SAPI  C31119659   0.723   5.726   9.124 -0.7660 -0.1199 -0.3096
  173SAPI  H11X19660   0.617   5.751   9.098 -1.2808  0.3001  2.0190
  173SAPI  H11Y19661   0.725   5.615   9.119  0.6343 -0.2014  1.5889
  173SAPI  C31219662   0.826   5.782   9.025 -0.1558 -0.8421  0.1356
  173SAPI  H12X19663   0.801   5.737   8.927  0.7787 -0.5630 -0.2336
  173SAPI  H12Y19664   0.928   5.742   9.043 -0.1208 -2.1120 -2.7292
  173SAPI  C31319665   0.829   5.936   9.017 -0.1273 -0.3767  0.1043
  173SAPI  H13X19666   0.881   5.959   8.922 -0.7196  0.1808 -0.0972
  173SAPI  H13Y19667   0.899   5.972   9.096  1.3062  0.2359 -1.4229
  173SAPI  C31419668   0.699   6.016   9.031 -0.6778 -0.0884  0.4057
  173SAPI  H14X19669   0.648   6.015   9.129  1.3447 -1.3253  1.4744
  173SAPI  H14Y19670   0.620   5.982   8.960 -0.7833  1.6218 -0.3216
  173SAPI  C31519671   0.727   6.156   8.986 -0.0397 -0.5278  0.0292
  173SAPI  H15X19672   0.790   6.159   8.895  1.2949  0.1916  0.9498
  173SAPI  H15Y19673   0.796   6.215   9.050  0.6358  0.2621 -1.4029
  173SAPI  C31619674   0.599   6.236   8.952 -0.0498  0.3508 -0.1131
  173SAPI  H16X19675   0.537   6.186   8.874 -0.3046 -0.2052  0.4419
  173SAPI  H16Y19676   0.632   6.336   8.915 -0.9904  0.6201 -0.2431
  173SAPI  C31719677   0.510   6.261   9.073 -0.2696  0.5107 -0.0474
  173SAPI  H17X19678   0.486   6.166   9.125 -1.5998  1.1405  0.4907
  173SAPI  H17Y19679   0.413   6.286   9.026 -1.3040  0.0367  1.7810
  173SAPI  C31819680   0.575   6.358   9.176  0.5252  0.7862  0.2425
  173SAPI  H18X19681   0.672   6.316   9.211  0.2414 -0.0868 -0.0043
  173SAPI  H18Y19682   0.503   6.362   9.261 -0.1256  1.5186 -0.3299
  173SAPI  H18Z19683   0.577   6.463   9.139 -1.0459  0.2222 -1.5173
  174SAPI   C1219684   4.554   6.159  11.000  0.9524 -0.3294  0.3098
  174SAPI    H219685   4.655   6.198  10.975  0.6244 -0.8627 -1.9522
  174SAPI    O219686   4.551   6.013  11.003 -0.4033 -0.0367 -0.0816
  174SAPI   HO219687   4.638   5.972  11.006 -0.8391 -1.0278 -0.6764
  174SAPI   C1319688   4.530   6.209  11.144  0.1690 -0.3653  0.2494
  174SAPI    H319689   4.534   6.320  11.141 -1.8558 -0.3010 -0.5669
  174SAPI    O319690   4.632   6.165  11.234 -0.0416  0.0387 -0.2634
  174SAPI   HO319691   4.632   6.071  11.219  0.5997  0.2237 -1.5094
  174SAPI   C1419692   4.393   6.166  11.192 -0.2734  0.7018 -0.4390
  174SAPI    H419693   4.393   6.055  11.198 -1.1493  0.6811 -0.7810
  174SAPI    O419694   4.367   6.205  11.327 -0.5966  0.3303  1.0813
  174SAPI   HO419695   4.445   6.179  11.377  0.5949 -1.8239 -1.7557
  174SAPI   C1519696   4.286   6.212  11.093  0.4912  0.3458  0.3801
  174SAPI    H519697   4.295   6.322  11.083 -1.3422  0.4337 -0.5283
  174SAPI    O519698   4.158   6.158  11.136 -0.7220  0.3678 -0.2228
  174SAPI   HO519699   4.109   6.240  11.134  1.3728  1.7130  1.1315
  174SAPI   C1619700   4.313   6.170  10.951  0.6372  0.2944  0.1892
  174SAPI    H619701   4.299   6.060  10.940 -2.0821  0.7388 -1.3940
  174SAPI    O619702   4.216   6.227  10.864 -0.3312 -0.1039 -0.3051
  174SAPI   HO619703   4.269   6.284  10.808  1.4861 -1.1115  0.3478
  174SAPI   C1119704   4.452   6.207  10.896 -0.3906  0.9898 -0.0269
  174SAPI    H119705   4.453   6.317  10.886 -0.8760  0.8259 -2.1378
  174SAPI     P19706   4.581   6.207  10.662  0.2623  0.1003 -0.4452
  174SAPI   O1319707   4.628   6.097  10.575  0.6202 -0.4963  0.2885
  174SAPI   O1419708   4.680   6.283  10.737  0.2955 -0.2597  0.0133
  174SAPI   O1219709   4.466   6.143  10.768 -0.4673 -0.3412  0.6296
  174SAPI   O1119710   4.489   6.312  10.571 -0.6356  0.5894  0.0675
  174SAPI    C119711   4.352   6.283  10.551 -0.0082  0.3611 -0.3309
  174SAPI    HA19712   4.315   6.188  10.596  0.6167 -0.3124 -1.2477
  174SAPI    HB19713   4.289   6.353  10.610 -1.3035 -0.4914 -0.6698
  174SAPI    C219714   4.298   6.293  10.405  0.7795 -0.1978  0.4151
  174SAPI    HS19715   4.197   6.252  10.381  1.0777  0.1414 -1.5188
  174SAPI   O2119716   4.387   6.220  10.319 -0.0398  0.4253 -0.2922
  174SAPI   C2119717   4.375   6.092  10.341 -0.2017 -0.7440 -0.9100
  174SAPI   O2219718   4.294   6.039  10.415 -0.5611  0.1799 -0.4519
  174SAPI   C2219719   4.477   6.015  10.258  0.1315  0.1510  0.1536
  174SAPI   H2R19720   4.558   6.077  10.214  0.0483  0.1837  0.0490
  174SAPI   H2S19721   4.526   5.948  10.331  0.4396  1.5694  1.2854
  174SAPI    C319722   4.303   6.444  10.369  0.8812 -0.2921 -0.3387
  174SAPI    HX19723   4.402   6.493  10.362  0.2970  0.5414 -3.3620
  174SAPI    HY19724   4.245   6.484  10.456  1.7657 -1.6836  0.9217
  174SAPI   O3119725   4.214   6.470  10.254 -0.1191 -0.0681  0.0320
  174SAPI   C3119726   4.272   6.485  10.141 -0.7447  0.0197  0.5111
  174SAPI   O3219727   4.393   6.488  10.118  0.4334  0.4581 -0.6507
  174SAPI   C3219728   4.164   6.509  10.040 -0.1098 -0.0269  0.7180
  174SAPI   H2X19729   4.072   6.551  10.085 -0.3592  1.0799 -0.7847
  174SAPI   H2Y19730   4.135   6.410   9.999 -3.1433  1.8151 -1.7340
  174SAPI   C2319731   4.388   5.937  10.156 -0.2968 -0.3098  0.6835
  174SAPI   H3R19732   4.337   5.853  10.207  0.5080 -0.1278  1.8148
  174SAPI   H3S19733   4.451   5.881  10.083 -1.0406 -1.3653  0.8484
  174SAPI   C2419734   4.302   6.038  10.073  0.0419  0.1543  0.0110
  174SAPI   H4R19735   4.221   6.079  10.137  0.1442  0.2883  0.0544
  174SAPI   H4S19736   4.234   5.988  10.000 -0.5054  1.7519 -0.5784
  174SAPI   C2519737   4.368   6.146  10.007 -0.5510  0.0072  0.9914
  174SAPI   H5R19738   4.376   6.239  10.066 -2.2102  1.3383 -0.8099
  174SAPI   C2619739   4.433   6.146   9.887 -0.3021  0.1622  0.6103
  174SAPI   H6R19740   4.491   6.235   9.859 -0.4836  0.4891  1.2580
  174SAPI   C2719741   4.437   6.024   9.790 -0.2971  0.4102  0.1307
  174SAPI   H7R19742   4.355   5.956   9.822  1.5517 -1.5385  0.8555
  174SAPI   H7S19743   4.538   5.981   9.807 -0.7537 -0.6709  0.1229
  174SAPI   C2819744   4.405   6.064   9.649  0.6356 -0.3229 -0.2712
  174SAPI   H8R19745   4.299   6.087   9.629  0.3092  0.2841  2.0412
  174SAPI   C2919746   4.483   6.063   9.541  0.4099  0.5569 -0.5857
  174SAPI   H9R19747   4.440   6.095   9.445 -1.3849 -2.4713 -0.8306
  174SAPI  C21019748   4.626   6.021   9.532  0.2180  0.3777  0.1452
  174SAPI  H10R19749   4.654   5.981   9.632  2.0599  1.4933  0.0865
  174SAPI  H10S19750   4.691   6.109   9.512  1.0719  0.1146  1.6435
  174SAPI  C21119751   4.660   5.907   9.436  0.0442  0.1473 -0.1668
  174SAPI  H11R19752   4.632   5.808   9.474  0.7007 -0.8532 -2.2343
  174SAPI  C21219753   4.724   5.925   9.317 -0.1910 -0.9460 -0.1651
  174SAPI  H12R19754   4.729   5.837   9.252  0.8933 -1.1041  0.1247
  174SAPI  C21319755   4.768   6.053   9.257 -0.1464 -0.5060  0.0641
  174SAPI  H13R19756   4.710   6.138   9.300 -0.0226  0.7466 -2.1593
  174SAPI  H13S19757   4.759   6.069   9.147  1.4247 -1.4382 -0.2179
  174SAPI  C21419758   4.915   6.074   9.286  0.3630 -0.6761  0.6962
  174SAPI  H14R19759   4.932   6.086   9.394 -0.1071 -1.5891  0.8732
  174SAPI  C21519760   5.016   6.104   9.209  0.1833  0.2560  0.6122
  174SAPI  H15R19761   5.112   6.136   9.252  0.1103  1.6163 -0.2232
  174SAPI  C21619762   5.028   6.112   9.060 -0.5319  0.3865  0.8808
  174SAPI  H16R19763   4.931   6.091   9.011  0.2950  1.2172 -1.1621
  174SAPI  H16S19764   5.109   6.044   9.024 -0.4054  1.7267 -1.4681
  174SAPI  C21719765   5.074   6.243   8.990 -0.2187 -0.0278  0.0417
  174SAPI  H17R19766   5.152   6.301   9.043 -0.1525  1.4791 -1.6386
  174SAPI  H17S19767   4.981   6.302   8.978 -0.1030 -0.2871 -2.3362
  174SAPI  C21819768   5.120   6.204   8.848  0.2842  0.2307 -0.6959
  174SAPI  H18R19769   5.113   6.291   8.780 -1.1536 -0.3495 -1.3018
  174SAPI  H18S19770   5.064   6.114   8.813  0.5328  0.3950 -1.5056
  174SAPI  C21919771   5.269   6.163   8.837 -0.3548  0.3002 -0.2949
  174SAPI  H19R19772   5.281   6.094   8.751 -0.3415 -0.0569 -0.0058
  174SAPI  H19S19773   5.294   6.101   8.926 -0.0044 -1.4099 -1.5649
  174SAPI  C22019774   5.365   6.285   8.818 -0.1556 -0.4607  0.3135
  174SAPI  H20R19775   5.464   6.241   8.790 -0.2670  0.1278 -1.0735
  174SAPI  H20S19776   5.366   6.341   8.914  0.6724  0.5801 -0.2824
  174SAPI  H20T19777   5.330   6.355   8.739  0.5563 -1.1232 -0.6050
  174SAPI   C3319778   4.206   6.597   9.919 -0.0352 -0.0704  0.2604
  174SAPI   H3X19779   4.287   6.563   9.851  0.8505  0.6931  0.9151
  174SAPI   H3Y19780   4.248   6.695   9.949  1.4482 -0.2071 -1.3043
  174SAPI   C3419781   4.094   6.616   9.817 -0.4997 -0.2101  0.6061
  174SAPI   H4X19782   4.019   6.691   9.853  0.6241  0.5234  1.4660
  174SAPI   H4Y19783   4.037   6.520   9.815  2.8260 -2.2226 -1.2035
  174SAPI   C3519784   4.138   6.670   9.687 -0.2327 -0.6926  0.1046
  174SAPI   H5X19785   4.199   6.594   9.633  2.9089  1.6836  0.1721
  174SAPI   H5Y19786   4.204   6.758   9.705 -0.4494 -0.0681 -1.9890
  174SAPI   C3619787   4.026   6.709   9.594 -0.0656  0.5415  0.1240
  174SAPI   H6X19788   3.983   6.802   9.638 -2.5325  0.4040 -1.8675
  174SAPI   H6Y19789   3.954   6.624   9.593 -0.0819  0.5531 -1.9317
  174SAPI   C3719790   4.061   6.746   9.449 -1.1535 -0.0661 -0.1777
  174SAPI   H7X19791   4.105   6.657   9.400 -2.1659 -1.5443  1.5252
  174SAPI   H7Y19792   4.141   6.823   9.457 -1.4284  0.0820  1.3315
  174SAPI   C3819793   3.942   6.798   9.371 -0.4453 -0.2791 -0.2681
  174SAPI   H8X19794   3.908   6.884   9.432 -1.3738  0.0454 -1.2295
  174SAPI   H8Y19795   3.866   6.717   9.373  0.6207 -1.2795 -0.1028
  174SAPI   C3919796   3.982   6.842   9.227  0.4054  0.4612 -0.7280
  174SAPI   H9X19797   4.036   6.757   9.180  1.9202  0.9405  0.1310
  174SAPI   H9Y19798   4.049   6.929   9.239  1.7209 -0.7763  1.2339
  174SAPI  C31019799   3.858   6.873   9.144  0.5614 -0.2929 -0.0559
  174SAPI  H10X19800   3.808   6.963   9.185  2.1990  0.5577  0.1286
  174SAPI  H10Y19801   3.780   6.794   9.152  0.7871 -0.5475 -0.3486
  174SAPI  C31119802   3.893   6.906   8.995  0.3797  0.1128  0.3473
  174SAPI  H11X19803   3.961   6.826   8.959 -0.3440 -1.1426  1.7384
  174SAPI  H11Y19804   3.957   6.997   9.006  2.2085 -1.1234  0.1371
  174SAPI  C31219805   3.766   6.916   8.912  0.3819  0.1139 -0.1144
  174SAPI  H12X19806   3.793   6.962   8.815  0.8552 -1.6603 -0.8400
  174SAPI  H12Y19807   3.688   6.976   8.963  1.6319  1.2369  0.5031
  174SAPI  C31319808   3.700   6.778   8.889  0.0772  1.0501 -0.2634
  174SAPI  H13X19809   3.601   6.770   8.939 -0.6122  1.0549 -1.6092
  174SAPI  H13Y19810   3.769   6.702   8.931  0.0238  1.2567  0.2051
  174SAPI  C31419811   3.665   6.758   8.735 -0.6225 -0.2268  0.2915
  174SAPI  H14X19812   3.748   6.798   8.673 -1.3738 -1.0294 -1.2491
  174SAPI  H14Y19813   3.574   6.812   8.701  2.5194  3.1152 -3.2761
  174SAPI  C31519814   3.665   6.614   8.702 -0.0851 -0.5754  0.1175
  174SAPI  H15X19815   3.571   6.563   8.732  0.0260 -0.5839  0.4515
  174SAPI  H15Y19816   3.748   6.571   8.762 -0.0871 -1.6439 -0.6376
  174SAPI  C31619817   3.691   6.567   8.560  0.1237  0.0480  0.3770
  174SAPI  H16X19818   3.612   6.609   8.495 -2.1298 -3.3849  0.7918
  174SAPI  H16Y19819   3.691   6.457   8.546 -0.7538  0.1535 -0.5173
  174SAPI  C31719820   3.826   6.617   8.493  0.4940 -0.3750 -0.0276
  174SAPI  H17X19821   3.906   6.562   8.547  0.5317  1.5765  1.9376
  174SAPI  H17Y19822   3.837   6.728   8.498 -2.7736  0.2386 -3.8505
  174SAPI  C31819823   3.837   6.593   8.342 -0.5371  0.0585  0.1703
  174SAPI  H18X19824   3.946   6.598   8.322 -0.6523  0.7064 -0.3194
  174SAPI  H18Y19825   3.795   6.677   8.284  0.9603  1.9977  1.8301
  174SAPI  H18Z19826   3.794   6.494   8.313 -1.9769 -0.2459  3.1425
  175SAPI   C1219827   5.562   5.583   6.061 -0.1835 -0.9548 -0.4677
  175SAPI    H219828   5.461   5.607   6.022  0.7123  3.2728 -0.4392
  175SAPI    O219829   5.559   5.452   6.117  0.2383  0.0970 -0.5903
  175SAPI   HO219830   5.508   5.459   6.198  0.5300  2.5870 -0.5847
  175SAPI   C1319831   5.642   5.601   5.929  0.7710 -0.0317  0.7024
  175SAPI    H319832   5.637   5.706   5.892  0.6123 -0.1804  0.2937
  175SAPI    O319833   5.579   5.516   5.827 -0.2771 -0.1287  0.7144
  175SAPI   HO319834   5.577   5.432   5.873  2.4398 -0.3354  0.5556
  175SAPI   C1419835   5.792   5.562   5.961 -0.2631  0.0786 -0.0582
  175SAPI    H419836   5.798   5.462   6.008 -0.4642  0.5944  1.0755
  175SAPI    O419837   5.856   5.554   5.836 -0.0996  1.0387 -0.2574
  175SAPI   HO419838   5.823   5.627   5.783  0.2776  0.8858 -0.7033
  175SAPI   C1519839   5.858   5.659   6.058 -0.6116 -0.2251  0.3123
  175SAPI    H519840   5.861   5.765   6.028 -1.8792 -0.4677 -0.7052
  175SAPI    O519841   5.992   5.618   6.093 -0.0030 -0.9627 -0.4651
  175SAPI   HO519842   6.053   5.624   6.019 -0.8899 -1.7585 -1.2763
  175SAPI   C1619843   5.765   5.662   6.188 -0.3647 -0.4844  0.0869
  175SAPI    H619844   5.767   5.562   6.237  1.0600 -0.1803  0.6753
  175SAPI    O619845   5.815   5.768   6.261  0.7966  0.0793 -0.2552
  175SAPI   HO619846   5.802   5.841   6.201 -0.7490 -0.5485 -0.7135
  175SAPI   C1119847   5.614   5.683   6.160  0.3282 -0.4837  0.0740
  175SAPI    H119848   5.609   5.784   6.114  0.9322 -1.1436 -1.4558
  175SAPI     P19849   5.412   5.778   6.301  0.2178  0.3672  0.0915
  175SAPI   O1319850   5.303   5.687   6.331  0.3818  0.4428  0.2043
  175SAPI   O1419851   5.395   5.868   6.184 -0.4094 -0.0243  0.0260
  175SAPI   O1219852   5.539   5.677   6.278  0.1544 -0.4831  0.2843
  175SAPI   O1119853   5.424   5.857   6.441  0.1702  0.0211  0.6699
  175SAPI    C119854   5.557   5.882   6.488 -0.0576  0.1752  0.1246
  175SAPI    HA19855   5.635   5.892   6.410 -0.7107  2.1959 -0.2847
  175SAPI    HB19856   5.554   5.982   6.534  2.6950  1.1204 -1.6049
  175SAPI    C219857   5.614   5.773   6.588  0.1455 -0.0394  0.2227
  175SAPI    HS19858   5.636   5.676   6.537 -0.6346 -0.4335  0.6221
  175SAPI   O2119859   5.505   5.747   6.678 -0.0122 -0.4649 -0.3931
  175SAPI   C2119860   5.492   5.626   6.727 -0.5651  0.6554  0.3517
  175SAPI   O2219861   5.565   5.528   6.707 -0.2628  1.3879 -0.1232
  175SAPI   C2219862   5.363   5.625   6.802 -0.3547 -0.2368 -0.2144
  175SAPI   H2R19863   5.341   5.720   6.855  1.0285  0.3393 -0.6588
  175SAPI   H2S19864   5.280   5.620   6.729  0.6574  1.4519 -1.5147
  175SAPI    C319865   5.748   5.822   6.649 -0.0365 -0.5791  0.8427
  175SAPI    HX19866   5.733   5.918   6.702 -3.4112 -0.6065 -0.0106
  175SAPI    HY19867   5.802   5.858   6.558  1.3465 -2.2263  0.9660
  175SAPI   O3119868   5.824   5.724   6.714 -0.6726  0.6439 -0.0022
  175SAPI   C3119869   5.819   5.726   6.847  0.3463  0.3801 -0.1997
  175SAPI   O3219870   5.765   5.811   6.917  0.2652 -0.0735  0.8443
  175SAPI   C3219871   5.893   5.606   6.900  0.0992 -0.1330  0.5673
  175SAPI   H2X19872   5.982   5.572   6.842  1.5231  1.3279  1.8284
  175SAPI   H2Y19873   5.813   5.532   6.878  1.4516 -1.2130 -0.8472
  175SAPI   C2319874   5.366   5.506   6.903 -0.1868 -0.6235 -0.1394
  175SAPI   H3R19875   5.384   5.412   6.846  0.6259  0.0363 -1.0018
  175SAPI   H3S19876   5.262   5.516   6.942 -0.4321 -0.4802 -0.8164
  175SAPI   C2419877   5.472   5.520   7.014  0.1820 -0.5023  0.5739
  175SAPI   H4R19878   5.573   5.521   6.969 -0.3699 -2.5403 -0.7596
  175SAPI   H4S19879   5.475   5.427   7.076 -0.8489 -1.7854 -1.2680
  175SAPI   C2519880   5.434   5.631   7.113  0.5921 -0.2693  0.0142
  175SAPI   H5R19881   5.351   5.698   7.086  0.1899 -0.8942 -0.3217
  175SAPI   C2619882   5.487   5.648   7.235  0.4629 -0.3117 -0.0765
  175SAPI   H6R19883   5.455   5.734   7.296 -0.3575 -0.3929 -0.3960
  175SAPI   C2719884   5.600   5.560   7.278  0.1510  0.1059 -0.4806
  175SAPI   H7R19885   5.673   5.525   7.203  1.3484 -3.1542  2.0732
  175SAPI   H7S19886   5.564   5.462   7.317 -1.6395  0.3699 -1.4225
  175SAPI   C2819887   5.672   5.644   7.382 -0.1608  0.0361  0.6150
  175SAPI   H8R19888   5.753   5.711   7.350  0.3740 -0.2779  1.2780
  175SAPI   C2919889   5.664   5.634   7.511  0.0109  0.4533 -0.2572
  175SAPI   H9R19890   5.717   5.703   7.579 -0.1657 -0.5206  0.9012
  175SAPI  C21019891   5.579   5.532   7.582  0.9566  0.6626 -0.4498
  175SAPI  H10R19892   5.559   5.440   7.524  2.6767  0.5599 -0.9012
  175SAPI  H10S19893   5.476   5.570   7.598  0.4630 -0.0166 -1.9360
  175SAPI  C21119894   5.654   5.483   7.702 -0.0739  0.5130  0.0426
  175SAPI  H11R19895   5.732   5.408   7.686 -1.7720 -1.2823 -0.1288
  175SAPI  C21219896   5.648   5.535   7.824 -0.2067 -0.4116  0.8242
  175SAPI  H12R19897   5.708   5.485   7.902  0.2040 -1.0379  0.1186
  175SAPI  C21319898   5.561   5.648   7.874 -0.3696 -0.4857  0.1552
  175SAPI  H13R19899   5.496   5.599   7.950 -1.0517 -2.5454 -1.7085
  175SAPI  H13S19900   5.507   5.703   7.794 -0.8244 -0.6486  0.3514
  175SAPI  C21419901   5.646   5.758   7.932 -0.2382  0.0684 -0.3310
  175SAPI  H14R19902   5.746   5.766   7.885 -0.5275  1.0015 -0.7953
  175SAPI  C21519903   5.614   5.849   8.020 -0.0181  0.0444  0.0549
  175SAPI  H15R19904   5.683   5.934   8.029  1.5276 -0.9510 -2.1323
  175SAPI  C21619905   5.479   5.862   8.100  0.4919  0.5158 -0.6890
  175SAPI  H16R19906   5.448   5.756   8.111  0.8585  0.1892 -2.6587
  175SAPI  H16S19907   5.395   5.912   8.047 -0.0008  0.0036 -0.3942
  175SAPI  C21719908   5.508   5.924   8.234 -0.1791 -0.3074  0.3800
  175SAPI  H17R19909   5.607   5.889   8.270 -0.5133 -0.4900  1.1370
  175SAPI  H17S19910   5.430   5.882   8.301 -0.8473 -0.3318 -0.4177
  175SAPI  C21819911   5.501   6.076   8.238  0.2239  0.8001 -0.4488
  175SAPI  H18R19912   5.417   6.109   8.173  1.6052  2.0041 -1.6466
  175SAPI  H18S19913   5.599   6.120   8.212  0.6830 -1.5475 -2.8295
  175SAPI  C21919914   5.472   6.098   8.383  0.5749 -0.0127 -0.3147
  175SAPI  H19R19915   5.547   6.049   8.449 -1.3586 -0.2196  1.7998
  175SAPI  H19S19916   5.370   6.064   8.413  0.6569 -1.5953 -1.7563
  175SAPI  C22019917   5.478   6.249   8.398 -0.6570 -0.1102 -0.1365
  175SAPI  H20R19918   5.394   6.309   8.355 -1.7247 -1.2328  0.3517
  175SAPI  H20S19919   5.575   6.284   8.358  0.3189 -3.1964 -0.6191
  175SAPI  H20T19920   5.492   6.281   8.503  0.9444 -0.7367 -0.1430
  175SAPI   C3319921   5.930   5.615   7.049  0.1833  0.4343 -0.5220
  175SAPI   H3X19922   5.853   5.673   7.104 -0.2327  0.6030 -1.2803
  175SAPI   H3Y19923   6.025   5.673   7.058  0.0086  0.6497 -0.0794
  175SAPI   C3419924   5.950   5.476   7.104 -0.0068 -0.4224  0.3140
  175SAPI   H4X19925   6.038   5.433   7.052 -0.9895  0.7649 -2.4366
  175SAPI   H4Y19926   5.860   5.414   7.080  0.2242 -0.9011  0.6580
  175SAPI   C3519927   5.979   5.474   7.254  0.8119  0.2688  0.3205
  175SAPI   H5X19928   5.970   5.369   7.291 -1.6619  0.5714  0.6622
  175SAPI   H5Y19929   5.895   5.529   7.301  0.5260  0.5259 -0.4754
  175SAPI   C3619930   6.105   5.535   7.304 -0.2119 -0.0710 -0.2326
  175SAPI   H6X19931   6.098   5.639   7.265 -0.3862  1.2767  3.1795
  175SAPI   H6Y19932   6.190   5.475   7.265  0.1325  1.2182 -1.5075
  175SAPI   C3719933   6.121   5.528   7.456 -0.5557 -0.8606  0.3511
  175SAPI   H7X19934   6.228   5.554   7.470 -0.4142  1.4020 -3.9932
  175SAPI   H7Y19935   6.103   5.423   7.486  1.2160 -1.0530  0.7749
  175SAPI   C3819936   6.030   5.618   7.539  0.8345  0.2435  0.2034
  175SAPI   H8X19937   5.929   5.576   7.517  0.9421  0.7956 -1.4060
  175SAPI   H8Y19938   6.034   5.719   7.495  1.5356  0.0422 -0.2034
  175SAPI   C3919939   6.056   5.629   7.691  0.3951 -0.0975  0.1968
  175SAPI   H9X19940   6.054   5.528   7.737  0.5949 -0.1739  0.0401
  175SAPI   H9Y19941   5.969   5.683   7.734 -0.8594 -3.1188  1.6040
  175SAPI  C31019942   6.180   5.704   7.733 -0.2149  0.8550 -0.7388
  175SAPI  H10X19943   6.171   5.813   7.748  0.6975  0.9853 -1.1234
  175SAPI  H10Y19944   6.243   5.690   7.642 -0.3817  0.3315 -0.7766
  175SAPI  C31119945   6.256   5.642   7.849  0.7308  0.2284  0.5059
  175SAPI  H11X19946   6.367   5.651   7.838  0.6340  1.3874  0.4756
  175SAPI  H11Y19947   6.237   5.533   7.853  0.4643  0.3039  1.3925
  175SAPI  C31219948   6.209   5.687   7.991 -0.7656 -0.1481  0.5073
  175SAPI  H12X19949   6.230   5.796   7.997  2.0922 -0.8040  4.1329
  175SAPI  H12Y19950   6.266   5.653   8.080  1.9183  1.1128 -0.6686
  175SAPI  C31319951   6.061   5.651   8.018 -0.3936  0.3275 -0.9428
  175SAPI  H13X19952   6.048   5.550   7.973 -1.5097  0.5494 -1.1343
  175SAPI  H13Y19953   5.988   5.713   7.962 -2.4765  0.4936  1.8425
  175SAPI  C31419954   6.025   5.663   8.161  0.2496  0.3878  0.3941
  175SAPI  H14X19955   6.062   5.758   8.205  1.0903 -0.4982  1.6306
  175SAPI  H14Y19956   6.083   5.591   8.222 -0.4545 -1.3456 -0.9161
  175SAPI  C31519957   5.876   5.651   8.194 -0.3370 -0.2147  0.1804
  175SAPI  H15X19958   5.835   5.559   8.148  1.0096  0.0230 -1.5118
  175SAPI  H15Y19959   5.821   5.733   8.142 -1.3743 -1.2784 -0.4303
  175SAPI  C31619960   5.835   5.667   8.342 -0.6184 -0.3555  0.5683
  175SAPI  H16X19961   5.728   5.650   8.367 -0.6869 -1.9445 -0.7064
  175SAPI  H16Y19962   5.843   5.775   8.368 -0.1047 -0.7634  2.1518
  175SAPI  C31719963   5.929   5.599   8.439 -0.6383 -0.2732  0.1041
  175SAPI  H17X19964   6.036   5.625   8.425  0.3204 -2.3640  3.0679
  175SAPI  H17Y19965   5.923   5.489   8.421  0.6044 -0.7034  2.1781
  175SAPI  C31819966   5.903   5.626   8.590 -1.3315 -0.8138  0.3273
  175SAPI  H18X19967   5.816   5.575   8.636 -0.1394 -3.3814 -0.1718
  175SAPI  H18Y19968   5.902   5.736   8.608 -0.8047 -0.8516  0.5847
  175SAPI  H18Z19969   5.994   5.588   8.641 -0.0526  1.3541 -0.2737
  176SAPI   C1219970   5.012   3.662   6.521 -0.4571  0.3686  0.4236
  176SAPI    H219971   5.072   3.700   6.606 -1.7570  1.2240  0.9749
  176SAPI    O219972   5.079   3.540   6.475  0.3423 -0.3093  0.2413
  176SAPI   HO219973   5.172   3.563   6.474  0.4909 -0.8107 -2.7097
  176SAPI   C1319974   4.871   3.631   6.574 -0.0471 -0.0335 -0.2696
  176SAPI    H319975   4.824   3.727   6.606 -0.4040 -0.6389  1.0659
  176SAPI    O319976   4.882   3.550   6.692 -0.1882  0.4351  0.2506
  176SAPI   HO319977   4.914   3.468   6.655  0.3863  0.4459  0.7226
  176SAPI   C1419978   4.779   3.576   6.468  0.3340  0.2480  0.1085
  176SAPI    H419979   4.808   3.475   6.432 -2.2947 -1.0332  1.4146
  176SAPI    O419980   4.649   3.554   6.521 -0.0868 -0.0178 -0.1132
  176SAPI   HO419981   4.635   3.459   6.517  2.4534 -0.5571  2.2872
  176SAPI   C1519982   4.775   3.671   6.345  0.3099 -0.5809  0.4614
  176SAPI    H519983   4.748   3.770   6.387  1.1903  0.0092 -0.3481
  176SAPI    O519984   4.677   3.636   6.249  0.0575 -0.8607  0.3376
  176SAPI   HO519985   4.626   3.713   6.223 -0.3013 -2.3123 -3.6014
  176SAPI   C1619986   4.920   3.699   6.294  0.1543  0.4971  0.5593
  176SAPI    H619987   4.958   3.601   6.259 -2.0753 -0.4977  0.8372
  176SAPI    O619988   4.911   3.788   6.180 -0.4093  0.4451 -0.6500
  176SAPI   HO619989   4.905   3.874   6.222 -1.3675 -0.5171  1.3043
  176SAPI   C1119990   5.002   3.760   6.408  0.2107  0.1780  1.2778
  176SAPI    H119991   4.942   3.846   6.444  1.1046  1.6705 -0.7073
  176SAPI     P19992   5.219   3.919   6.410  0.4714  0.3005  0.0288
  176SAPI   O1319993   5.127   4.034   6.428 -0.1495  0.2804 -0.2686
  176SAPI   O1419994   5.331   3.943   6.321 -0.0095  0.8739  0.5941
  176SAPI   O1219995   5.134   3.794   6.354 -0.4639 -0.4421 -0.3487
  176SAPI   O1119996   5.275   3.865   6.541  0.2951 -0.3362 -0.2889
  176SAPI    C119997   5.398   3.912   6.596 -0.2369 -0.4443 -0.5772
  176SAPI    HA19998   5.479   3.854   6.548  0.6466 -0.0807  0.4579
  176SAPI    HB19999   5.423   4.018   6.571  2.3855 -1.1286 -0.9807
  176SAPI    C220000   5.405   3.887   6.753 -0.5774  0.4090  0.4022
  176SAPI    HS20001   5.510   3.912   6.778 -0.5541  0.0393  0.6690
  176SAPI   O2120002   5.376   3.747   6.782  0.3489  0.0794 -0.8538
  176SAPI   C2120003   5.407   3.700   6.901  0.1911  0.0837  0.4144
  176SAPI   O2220004   5.470   3.756   6.991  0.2933  0.0174 -0.6641
  176SAPI   C2220005   5.344   3.565   6.909 -0.4387 -0.5137  0.2343
  176SAPI   H2R20006   5.369   3.500   6.822 -1.9147 -2.0550  0.9248
  176SAPI   H2S20007   5.388   3.516   6.998  0.3819 -0.5395 -0.1823
  176SAPI    C320008   5.302   3.982   6.825 -0.3374 -0.0907 -0.0028
  176SAPI    HX20009   5.201   3.971   6.779  0.7538 -0.3407 -2.4501
  176SAPI    HY20010   5.337   4.083   6.796 -3.4064  1.1110  0.2233
  176SAPI   O3120011   5.279   3.944   6.964  0.1314  0.1639 -0.3336
  176SAPI   C3120012   5.347   4.015   7.049  0.1074  1.1319 -0.2648
  176SAPI   O3220013   5.423   4.105   7.015 -0.2797 -1.3181  0.3839
  176SAPI   C3220014   5.318   3.983   7.194 -0.0160  0.4502  0.8570
  176SAPI   H2X20015   5.282   3.878   7.200  1.8980 -0.3447 -0.7914
  176SAPI   H2Y20016   5.233   4.051   7.217  1.0465  1.7779  0.8821
  176SAPI   C2320017   5.188   3.574   6.919  0.1183 -0.1057  0.0580
  176SAPI   H3R20018   5.140   3.616   6.828  1.9904  0.0538 -0.8657
  176SAPI   H3S20019   5.166   3.638   7.007  3.8706 -0.2861  1.2215
  176SAPI   C2420020   5.123   3.438   6.957  0.4395 -0.1086  0.0697
  176SAPI   H4R20021   5.189   3.397   7.037 -2.3914  0.4810  2.7818
  176SAPI   H4S20022   5.131   3.369   6.870 -1.3521  0.9157 -0.9282
  176SAPI   C2520023   4.981   3.434   7.008  0.2742 -0.3754 -0.0814
  176SAPI   H5R20024   4.908   3.498   6.956 -0.6803  0.2792  2.0190
  176SAPI   C2620025   4.942   3.370   7.124  0.4912  0.0621  0.4973
  176SAPI   H6R20026   4.835   3.365   7.147  0.7174 -1.3732  1.3392
  176SAPI   C2720027   5.025   3.300   7.228  0.0472  0.6249 -0.4308
  176SAPI   H7R20028   5.122   3.257   7.196  0.4953  0.2213  1.4149
  176SAPI   H7S20029   4.975   3.209   7.267  0.4756  0.7168  0.3375
  176SAPI   C2820030   5.050   3.404   7.338 -0.1659 -0.2067  0.4088
  176SAPI   H8R20031   5.068   3.507   7.304 -0.9984  0.3847  1.7132
  176SAPI   C2920032   5.031   3.380   7.474  0.4478 -0.3740 -0.5069
  176SAPI   H9R20033   5.047   3.451   7.556 -1.2270 -2.6800  1.9114
  176SAPI  C21020034   5.000   3.239   7.533  0.0031 -0.0668 -0.5453
  176SAPI  H10R20035   5.043   3.249   7.635 -1.2617  0.0961 -0.0163
  176SAPI  H10S20036   5.054   3.154   7.487 -0.0622 -0.0471 -0.6583
  176SAPI  C21120037   4.859   3.196   7.537 -0.2734  0.0500  0.8941
  176SAPI  H11R20038   4.817   3.184   7.436 -1.8991  1.1918  1.4183
  176SAPI  C21220039   4.770   3.168   7.640 -0.2012 -0.0452 -0.0148
  176SAPI  H12R20040   4.675   3.122   7.612  0.7739 -3.7727  2.3392
  176SAPI  C21320041   4.804   3.174   7.789  0.0815  0.1490  0.5710
  176SAPI  H13R20042   4.714   3.202   7.846 -0.4721 -0.8124  0.1709
  176SAPI  H13S20043   4.882   3.251   7.808  0.1997  0.2592 -0.3153
  176SAPI  C21420044   4.844   3.042   7.836  0.4259  0.6811 -0.3412
  176SAPI  H14R20045   4.879   2.972   7.759 -1.2489 -0.6930  0.1104
  176SAPI  C21520046   4.842   2.988   7.959 -0.1780 -0.0543 -0.7793
  176SAPI  H15R20047   4.879   2.888   7.989  2.7845  1.5278  1.0688
  176SAPI  C21620048   4.801   3.056   8.084  0.1137 -0.0441  0.5603
  176SAPI  H16R20049   4.696   3.042   8.116  0.2583 -1.6251  0.3589
  176SAPI  H16S20050   4.824   3.165   8.088  0.0583 -0.0896  3.0695
  176SAPI  C21720051   4.883   2.983   8.196  0.5242 -0.0363  0.2555
  176SAPI  H17R20052   4.993   2.994   8.190  0.3061  0.8652 -2.8118
  176SAPI  H17S20053   4.856   2.875   8.194 -2.1771  0.6094  0.0663
  176SAPI  C21820054   4.836   3.036   8.338  0.0235  0.2770 -0.2411
  176SAPI  H18R20055   4.729   3.014   8.359 -0.2962  1.6999 -0.3449
  176SAPI  H18S20056   4.870   3.141   8.344  1.7307 -0.3922  2.5615
  176SAPI  C21920057   4.903   2.958   8.450  0.0267  0.0648 -0.5529
  176SAPI  H19R20058   4.866   2.853   8.456 -0.4426  0.1307 -2.1847
  176SAPI  H19S20059   4.875   3.001   8.549  2.7043 -1.0226  0.7608
  176SAPI  C22020060   5.060   2.945   8.450 -0.9085 -0.4609  0.2090
  176SAPI  H20R20061   5.108   3.045   8.437 -0.9555 -0.9338 -4.6575
  176SAPI  H20S20062   5.091   2.882   8.364 -2.3331  1.8501 -2.0577
  176SAPI  H20T20063   5.103   2.905   8.545 -0.9615  0.6732  0.7166
  176SAPI   C3320064   5.426   4.002   7.303 -0.4799 -0.0239  0.7424
  176SAPI   H3X20065   5.500   3.920   7.288  1.3385  1.5355  1.0168
  176SAPI   H3Y20066   5.375   3.965   7.395  0.7218 -0.1620  1.3619
  176SAPI   C3420067   5.481   4.139   7.330 -0.2930  0.5226  0.1232
  176SAPI   H4X20068   5.414   4.226   7.346 -0.9726  0.1553 -0.6870
  176SAPI   H4Y20069   5.543   4.175   7.244 -0.3595 -0.9132 -0.5312
  176SAPI   C3520070   5.570   4.128   7.448 -0.1424  0.2152 -0.4877
  176SAPI   H5X20071   5.639   4.041   7.452  1.0097  1.0876 -1.1030
  176SAPI   H5Y20072   5.499   4.116   7.532  2.6760  0.1665  1.9645
  176SAPI   C3620073   5.665   4.247   7.475 -0.3632 -0.1216 -0.0137
  176SAPI   H6X20074   5.683   4.246   7.585  0.6710 -3.0945 -0.1541
  176SAPI   H6Y20075   5.614   4.338   7.439 -1.2379 -0.6020 -0.0089
  176SAPI   C3720076   5.801   4.232   7.409 -0.8159 -0.3288  0.1238
  176SAPI   H7X20077   5.788   4.191   7.307  0.8377 -1.5217  0.3705
  176SAPI   H7Y20078   5.851   4.157   7.475 -0.3203  0.8547  1.1120
  176SAPI   C3820079   5.872   4.360   7.427  0.0440  0.2473  0.4908
  176SAPI   H8X20080   5.802   4.442   7.399  1.9680  1.6239 -0.4395
  176SAPI   H8Y20081   5.963   4.362   7.363  0.6778 -1.3554  1.3038
  176SAPI   C3920082   5.913   4.382   7.575 -0.0878 -0.2663 -0.9970
  176SAPI   H9X20083   5.946   4.284   7.616  0.2414  0.0735 -0.4391
  176SAPI   H9Y20084   5.830   4.424   7.636  0.6782 -0.1319 -0.0379
  176SAPI  C31020085   6.041   4.472   7.595  0.3727 -0.7866 -0.2868
  176SAPI  H10X20086   6.119   4.419   7.537  0.1986  0.9832 -2.2290
  176SAPI  H10Y20087   6.066   4.488   7.702 -1.3708  0.1158  0.0151
  176SAPI  C31120088   6.026   4.611   7.537  1.0409  0.3186 -0.1600
  176SAPI  H11X20089   5.984   4.683   7.610 -2.3367 -2.1554  0.4545
  176SAPI  H11Y20090   5.966   4.608   7.444  0.2822 -3.9067  0.3613
  176SAPI  C31220091   6.160   4.680   7.496  0.3514  0.3952  0.4762
  176SAPI  H12X20092   6.223   4.691   7.587  2.4186 -0.1927 -0.8653
  176SAPI  H12Y20093   6.143   4.789   7.486 -1.6540  0.0254 -0.4777
  176SAPI  C31320094   6.216   4.624   7.372 -0.0525  0.9185  0.2464
  176SAPI  H13X20095   6.207   4.513   7.378 -1.1027  1.1403  4.4075
  176SAPI  H13Y20096   6.327   4.632   7.369  0.0228  0.8723  2.2431
  176SAPI  C31420097   6.147   4.646   7.240 -0.7202  0.0120  0.4828
  176SAPI  H14X20098   6.141   4.755   7.217  0.2810 -0.2592 -1.1280
  176SAPI  H14Y20099   6.042   4.610   7.246 -0.6207 -0.2974  0.3580
  176SAPI  C31520100   6.208   4.558   7.130  0.6950 -0.0744 -0.0220
  176SAPI  H15X20101   6.171   4.459   7.162  1.4667 -0.0020  1.1283
  176SAPI  H15Y20102   6.319   4.558   7.142  0.6465 -2.5474  0.5706
  176SAPI  C31620103   6.163   4.594   6.984 -0.0547  0.1492 -0.1577
  176SAPI  H16X20104   6.213   4.529   6.909  0.8823 -0.0667  0.6554
  176SAPI  H16Y20105   6.186   4.701   6.962 -1.7579  0.8976  1.5672
  176SAPI  C31720106   6.012   4.582   6.956 -0.0470 -0.7435 -0.1023
  176SAPI  H17X20107   5.958   4.678   6.968 -2.4625 -2.0605 -0.1317
  176SAPI  H17Y20108   5.973   4.512   7.033 -1.8929 -3.3058 -3.2385
  176SAPI  C31820109   5.980   4.530   6.814 -0.4471 -0.4635 -0.0409
  176SAPI  H18X20110   6.032   4.433   6.797  2.0078  0.9053 -0.5914
  176SAPI  H18Y20111   6.006   4.606   6.737 -0.0169 -0.6436 -0.0750
  176SAPI  H18Z20112   5.869   4.520   6.806 -0.6342  2.4892 -1.7776
  177SLPC     N20113   5.525   0.222  10.781  0.0692  0.5377  0.2975
  177SLPC   C1320114   5.645   0.263  10.708 -0.9693 -0.2121  0.2956
  177SLPC  H13A20115   5.680   0.361  10.740 -0.4106 -0.4071  0.2827
  177SLPC  H13B20116   5.727   0.195  10.723 -0.0222  1.0038  0.7688
  177SLPC  H13C20117   5.627   0.261  10.602  0.3527 -1.7703  0.0872
  177SLPC   C1420118   5.459   0.111  10.703  0.2190  0.7822  0.3451
  177SLPC  H14A20119   5.462   0.133  10.597 -4.1126 -1.5064 -0.3724
  177SLPC  H14B20120   5.510   0.017  10.717  0.5146  1.2530  2.4886
  177SLPC  H14C20121   5.357   0.096  10.735 -0.1086  3.0451  0.4443
  177SLPC   C1520122   5.432   0.341  10.771  0.4376  0.0940  0.4585
  177SLPC  H15A20123   5.470   0.425  10.827 -0.9219  0.5467  0.7174
  177SLPC  H15B20124   5.417   0.380  10.671 -2.3727 -0.8511  0.4784
  177SLPC  H15C20125   5.335   0.314  10.809 -1.0267  2.3891 -1.4836
  177SLPC   C1220126   5.564   0.187  10.927 -0.2611 -0.3031  0.4693
  177SLPC  H12A20127   5.474   0.160  10.981 -1.4669 -0.1318 -1.3851
  177SLPC  H12B20128   5.587   0.280  10.976 -1.6208  0.3186 -0.0202
  177SLPC   C1120129   5.667   0.084  10.959  0.2948  1.0691  0.0618
  177SLPC  H11A20130   5.614  -0.013  10.956  2.9551 -0.4297 -0.5521
  177SLPC  H11B20131   5.698   0.093  11.065 -1.4363 -0.8883  0.7641
  177SLPC     P20132   5.923   0.126  10.886  0.4236  0.2904 -0.2685
  177SLPC   O1320133   5.931   0.256  10.951  0.3834 -0.7652 -0.4145
  177SLPC   O1420134   6.002   0.018  10.947 -0.5279  0.2588  0.2783
  177SLPC   O1220135   5.781   0.069  10.873  0.3124  0.1421  0.2726
  177SLPC   O1120136   5.964   0.130  10.738 -0.3980 -0.2951 -0.0729
  177SLPC    C120137   6.002   0.020  10.656  0.5394  0.6318  0.4514
  177SLPC    HA20138   6.113   0.012  10.643  0.6231 -1.0915  2.0398
  177SLPC    HB20139   5.960  -0.073  10.698 -0.3988 -0.3308 -2.4835
  177SLPC    C220140   5.945   0.022  10.513  0.7104 -0.0983 -0.1128
  177SLPC    HS20141   5.999  -0.056  10.455  0.8056 -1.0658  1.2767
  177SLPC   O2120142   5.964   0.156  10.448 -0.0359  0.5735 -0.7735
  177SLPC   C2120143   6.080   0.169  10.382  0.7787 -1.3052  0.1158
  177SLPC   O2220144   6.158   0.078  10.369 -0.1429  0.1610  0.0677
  177SLPC   C2220145   6.097   0.305  10.318  0.1077 -0.2523 -0.1707
  177SLPC   H2R20146   6.091   0.388  10.391 -0.4707  0.3584 -0.9192
  177SLPC   H2S20147   6.200   0.303  10.277 -0.5061 -2.4318 -1.6972
  177SLPC    C320148   5.791  -0.015  10.507 -0.2675 -0.7294 -0.9803
  177SLPC    HX20149   5.740   0.057  10.574 -0.6301 -0.5621 -1.4427
  177SLPC    HY20150   5.783  -0.120  10.542 -1.5648  0.1159  1.3483
  177SLPC   O3120151   5.752  -0.018  10.368  0.1101  0.3292  1.2651
  177SLPC   C3120152   5.669   0.079  10.327 -0.2264  0.3351  0.7534
  177SLPC   O3220153   5.637   0.173  10.395 -0.0052  0.1936  0.2097
  177SLPC   C3220154   5.619   0.059  10.183  0.1809  0.7419  0.9441
  177SLPC   H2X20155   5.578  -0.042  10.161 -2.5111  1.5908  1.8551
  177SLPC   H2Y20156   5.696   0.076  10.104 -0.2610  0.2135  0.3836
  177SLPC   C2320157   5.983   0.347  10.215  0.7755  0.5159 -0.6770
  177SLPC   H3R20158   6.002   0.456  10.203 -0.7243  0.8706  0.0308
  177SLPC   H3S20159   5.879   0.338  10.253  1.2483  0.2183  0.5608
  177SLPC   C2420160   5.999   0.286  10.077 -0.5453 -0.2089  0.2870
  177SLPC   H4R20161   5.978   0.177  10.082  1.6987 -0.5909  2.6097
  177SLPC   H4S20162   6.103   0.297  10.038 -0.9968  3.0262 -0.1330
  177SLPC   C2520163   5.890   0.338   9.980 -0.1504 -0.1131 -0.7048
  177SLPC   H5R20164   5.799   0.341  10.044  0.8133 -0.6347  0.7133
  177SLPC   H5S20165   5.877   0.259   9.903  1.4045  1.4749 -2.6519
  177SLPC   C2620166   5.928   0.475   9.918  0.2970 -0.4338  0.4555
  177SLPC   H6R20167   6.027   0.464   9.868  0.0726 -1.2582  0.1831
  177SLPC   H6S20168   5.928   0.557   9.993 -0.4123 -0.7591  0.8174
  177SLPC   C2720169   5.826   0.504   9.804  0.4746 -1.0425  0.0307
  177SLPC   H7R20170   5.729   0.535   9.847  2.1392  1.1678  2.3250
  177SLPC   H7S20171   5.802   0.409   9.751 -1.0131 -0.1217 -0.9561
  177SLPC   C2820172   5.871   0.616   9.710 -0.1482 -0.5994 -0.4968
  177SLPC   H8R20173   5.882   0.707   9.772 -0.2121 -0.5268 -0.5920
  177SLPC   H8S20174   5.789   0.653   9.645 -0.1349  1.8648  0.8313
  177SLPC   C2920175   6.003   0.599   9.639  0.0760 -0.0515 -0.1022
  177SLPC   H9R20176   6.085   0.596   9.712 -0.7971  0.1869  0.8959
  177SLPC  C21020177   6.032   0.618   9.509  0.0201 -0.2375 -0.7379
  177SLPC  H10R20178   6.138   0.615   9.479  0.8203 -2.2321  2.0625
  177SLPC  C21120179   5.930   0.653   9.404  0.0029  0.4055 -1.0500
  177SLPC  H11R20180   5.843   0.710   9.441  1.0673  1.6470 -0.4159
  177SLPC  H11S20181   5.970   0.734   9.340  0.7908 -2.1838 -4.0110
  177SLPC  C21220182   5.895   0.529   9.324 -0.4432 -0.1686  0.3892
  177SLPC  H12R20183   5.812   0.470   9.367 -2.1111  0.7380 -1.5437
  177SLPC  C21320184   5.959   0.481   9.214  0.2255 -0.0893  0.1092
  177SLPC  H13R20185   5.943   0.385   9.164  3.5679 -0.7484  0.1928
  177SLPC  C21420186   6.078   0.550   9.141 -0.3103  0.2891  0.6580
  177SLPC  H14R20187   6.164   0.480   9.141 -1.6920 -1.4304  0.7594
  177SLPC  H14S20188   6.114   0.641   9.194 -2.1104  0.0772  2.3286
  177SLPC  C21520189   6.053   0.594   8.991 -0.2480  0.6660  0.4015
  177SLPC  H15R20190   6.006   0.517   8.925 -1.0656  1.2327  0.3194
  177SLPC  H15S20191   6.157   0.610   8.955 -0.1160  0.5415  0.7279
  177SLPC  C21620192   5.978   0.719   8.969  0.2177  0.0632 -0.3228
  177SLPC  H16R20193   6.039   0.804   9.007 -1.3041  1.0563 -0.0422
  177SLPC  H16S20194   5.888   0.717   9.034  0.6203  2.1780  0.3470
  177SLPC  C21720195   5.950   0.751   8.826 -0.2826 -0.3403 -0.0732
  177SLPC  H17R20196   6.048   0.759   8.775  0.1039 -2.4354  0.2939
  177SLPC  H17S20197   5.897   0.848   8.820 -0.8459 -0.7353 -2.2464
  177SLPC  C21820198   5.860   0.656   8.746 -0.4737 -0.5337 -0.3303
  177SLPC  H18R20199   5.757   0.653   8.788 -1.4004  1.7941 -2.3393
  177SLPC  H18S20200   5.913   0.559   8.737 -1.9288 -1.1964 -1.8582
  177SLPC  H18T20201   5.856   0.698   8.644  0.0032 -0.6757 -0.4105
  177SLPC   C3320202   5.498   0.152  10.152  0.5976 -0.3872 -0.5507
  177SLPC   H3X20203   5.536   0.255  10.167 -0.5710 -0.2603  1.6809
  177SLPC   H3Y20204   5.413   0.129  10.219  0.7047  2.2449  0.5193
  177SLPC   C3420205   5.446   0.133  10.014  0.7447 -0.1614  0.4283
  177SLPC   H4X20206   5.353   0.193  10.013  2.3479  2.3498 -0.9709
  177SLPC   H4Y20207   5.427   0.027   9.985 -0.7069  0.8609 -2.4866
  177SLPC   C3520208   5.529   0.218   9.916 -0.1274  0.1069  0.2175
  177SLPC   H5X20209   5.631   0.176   9.899 -0.4270 -0.3812 -0.3901
  177SLPC   H5Y20210   5.547   0.311   9.974  0.9118 -0.3913  0.7026
  177SLPC   C3620211   5.450   0.242   9.791 -0.4524 -0.0333  0.1907
  177SLPC   H6X20212   5.348   0.275   9.821 -0.7246  0.3011 -1.0669
  177SLPC   H6Y20213   5.431   0.141   9.748  0.4049  0.8889 -2.4613
  177SLPC   C3720214   5.511   0.345   9.694 -0.0368  0.4950  0.1635
  177SLPC   H7X20215   5.611   0.307   9.662  0.7406  2.5733  0.0955
  177SLPC   H7Y20216   5.545   0.432   9.753 -2.5363  1.4654  0.2051
  177SLPC   C3820217   5.428   0.394   9.572 -0.6537  0.4931 -0.0227
  177SLPC   H8X20218   5.343   0.458   9.606  0.0940  0.4015  2.1038
  177SLPC   H8Y20219   5.396   0.311   9.504  2.5806  0.4770 -1.5925
  177SLPC   C3920220   5.518   0.480   9.483  0.8625  0.1615  0.5427
  177SLPC   H9X20221   5.606   0.416   9.460  2.2854  2.1077  0.4103
  177SLPC   H9Y20222   5.554   0.570   9.537 -0.2719  0.6740  0.4433
  177SLPC  C31020223   5.452   0.539   9.359 -0.3376  0.0929  0.3743
  177SLPC  H10X20224   5.369   0.601   9.400 -1.7034 -0.8576 -0.9111
  177SLPC  H10Y20225   5.413   0.457   9.295  1.3091 -0.9599  0.6926
  177SLPC  C31120226   5.559   0.617   9.278 -0.0514 -0.4536 -0.1782
  177SLPC  H11X20227   5.631   0.536   9.257  0.0818  0.2109 -2.5031
  177SLPC  H11Y20228   5.626   0.685   9.335  0.1626 -0.7081 -0.1303
  177SLPC  C31220229   5.504   0.687   9.155  0.1921  0.2212 -0.1092
  177SLPC  H12X20230   5.445   0.775   9.188  0.2948 -0.1343  1.0342
  177SLPC  H12Y20231   5.422   0.624   9.112 -1.7800  2.4646  0.2804
  177SLPC  C31320232   5.606   0.725   9.052  1.0290 -0.1562 -0.3876
  177SLPC  H13X20233   5.646   0.633   9.004  3.5793  0.1701  1.0238
  177SLPC  H13Y20234   5.692   0.787   9.087 -0.0596  0.6907  0.8134
  177SLPC  C31420235   5.544   0.822   8.944  0.2563 -0.4632  0.0681
  177SLPC  H14X20236   5.621   0.848   8.868 -1.5704  0.2149 -1.5895
  177SLPC  H14Y20237   5.508   0.913   8.998  1.2296  0.5435 -0.9498
  177SLPC  C31520238   5.431   0.765   8.859 -0.3463  0.0115  0.2988
  177SLPC  H15X20239   5.346   0.720   8.916 -1.1953 -2.4980 -2.7511
  177SLPC  H15Y20240   5.470   0.685   8.793 -0.5518  1.7513 -1.9870
  177SLPC  C31620241   5.364   0.859   8.765 -0.0308  0.0633 -0.2587
  177SLPC  H16X20242   5.444   0.892   8.694  1.3825  1.2402  1.8284
  177SLPC  H16Y20243   5.345   0.953   8.821  1.3449  0.8707 -1.0923
  177SLPC  C31720244   5.246   0.801   8.697 -0.6071  0.2474  0.3747
  177SLPC  H17X20245   5.177   0.763   8.775 -1.5077  2.1042  0.5232
  177SLPC  H17Y20246   5.278   0.714   8.636  2.4755  1.4625  0.1458
  177SLPC  C31820247   5.166   0.898   8.612  0.0320  0.6536 -0.5473
  177SLPC  H18X20248   5.146   0.999   8.654 -1.9029  0.0622 -0.0095
  177SLPC  H18Y20249   5.069   0.865   8.570 -0.0307  0.3043 -0.1325
  177SLPC  H18Z20250   5.235   0.917   8.527 -0.0130  0.0054 -0.7313
  178SLPC     N20251   0.941   2.383  11.352 -0.2023 -0.0454 -0.3723
  178SLPC   C1320252   1.003   2.502  11.293 -0.0516 -0.5004  0.4525
  178SLPC  H13A20253   0.969   2.594  11.340  0.2011  1.2091 -2.6161
  178SLPC  H13B20254   1.109   2.494  11.309 -0.1494  0.7034  1.9391
  178SLPC  H13C20255   0.992   2.507  11.186 -0.1324  0.9575  0.5185
  178SLPC   C1420256   0.797   2.406  11.350  0.2246  0.4154  0.3602
  178SLPC  H14A20257   0.751   2.330  11.412  1.2265  0.9304  1.7881
  178SLPC  H14B20258   0.759   2.502  11.382 -3.0723 -0.4429 -0.8520
  178SLPC  H14C20259   0.754   2.403  11.252 -2.1704  1.0301  1.3632
  178SLPC   C1520260   0.996   2.368  11.486  0.6135  0.1488 -0.2918
  178SLPC  H15A20261   0.959   2.451  11.544  0.0674 -0.6779  0.5617
  178SLPC  H15B20262   0.962   2.275  11.530 -0.7521  0.9132  0.2932
  178SLPC  H15C20263   1.103   2.377  11.470  0.4548 -0.6545 -1.9204
  178SLPC   C1220264   0.985   2.260  11.271 -0.6118 -1.0839 -0.6339
  178SLPC  H12A20265   0.973   2.182  11.345  0.4644  0.0379  0.7574
  178SLPC  H12B20266   1.089   2.272  11.244  0.1411  1.0872  2.8598
  178SLPC   C1120267   0.896   2.229  11.150 -0.3130 -0.1700 -0.0316
  178SLPC  H11A20268   0.794   2.215  11.191 -0.1098 -0.1030  0.5067
  178SLPC  H11B20269   0.923   2.128  11.114 -0.5267  0.4496 -1.9644
  178SLPC     P20270   0.794   2.397  10.976  0.0553  0.8759  0.0913
  178SLPC   O1320271   0.709   2.475  11.071  0.0574 -0.3128  0.1203
  178SLPC   O1420272   0.851   2.464  10.854  0.0585 -0.6722 -0.3113
  178SLPC   O1220273   0.911   2.331  11.049  0.3256  0.1219  1.2106
  178SLPC   O1120274   0.716   2.277  10.916  0.1222 -0.4333 -0.1294
  178SLPC    C120275   0.766   2.183  10.818  0.4171 -0.9410 -0.2694
  178SLPC    HA20276   0.876   2.195  10.803  0.5454  0.4016  1.5668
  178SLPC    HB20277   0.749   2.079  10.852 -0.3583 -1.2354 -1.5412
  178SLPC    C220278   0.692   2.198  10.686  0.0380 -0.1959  0.0601
  178SLPC    HS20279   0.715   2.107  10.627  0.9805  0.0832 -0.0129
  178SLPC   O2120280   0.728   2.320  10.627 -0.1137  0.1639 -0.1081
  178SLPC   C2120281   0.835   2.310  10.545 -0.3996 -0.8134  0.3101
  178SLPC   O2220282   0.910   2.216  10.527  0.1260  0.1335  0.1835
  178SLPC   C2220283   0.856   2.444  10.475  0.1671  0.1769  0.1228
  178SLPC   H2R20284   0.898   2.497  10.563 -3.7819  0.3966  1.9816
  178SLPC   H2S20285   0.934   2.427  10.397  2.7260  0.9762  2.3934
  178SLPC    C320286   0.537   2.197  10.718  0.0448  0.3503  0.3685
  178SLPC    HX20287   0.519   2.269  10.800  0.7370  0.5270  0.3679
  178SLPC    HY20288   0.502   2.097  10.753  2.4670  0.2244  2.6434
  178SLPC   O3120289   0.453   2.234  10.605  0.4755  0.4531 -0.5057
  178SLPC   C3120290   0.411   2.354  10.602 -0.5024  0.1437 -0.0770
  178SLPC   O3220291   0.448   2.445  10.676 -0.0213 -0.9415 -0.0379
  178SLPC   C3220292   0.299   2.375  10.490  0.3285  0.2190 -0.8786
  178SLPC   H2X20293   0.309   2.483  10.466  1.6014  0.1698 -0.6136
  178SLPC   H2Y20294   0.197   2.357  10.531  0.3876 -2.4443 -1.7761
  178SLPC   C2320295   0.719   2.508  10.440  0.0020  0.0421  0.6733
  178SLPC   H3R20296   0.754   2.613  10.429 -1.8452  0.7716  1.4832
  178SLPC   H3S20297   0.640   2.514  10.518 -0.8849  0.9916 -0.2761
  178SLPC   C2420298   0.654   2.468  10.305 -0.0791  0.0715 -0.0660
  178SLPC   H4R20299   0.561   2.526  10.292 -0.5270 -0.6594 -0.1685
  178SLPC   H4S20300   0.639   2.358  10.295  0.5268 -0.2153  1.9813
  178SLPC   C2520301   0.734   2.510  10.180  0.5729  0.2026  0.6483
  178SLPC   H5R20302   0.841   2.492  10.205  0.2003 -2.2644  0.5486
  178SLPC   H5S20303   0.717   2.618  10.158 -0.3639  0.3086  1.8494
  178SLPC   C2620304   0.691   2.434  10.056  0.0756  0.8057  0.1233
  178SLPC   H6R20305   0.580   2.427  10.057  0.2288 -2.5296 -1.1465
  178SLPC   H6S20306   0.718   2.329  10.081  0.5275  1.3336  1.9103
  178SLPC   C2720307   0.759   2.476   9.928 -0.1855  0.9081  0.0732
  178SLPC   H7R20308   0.868   2.459   9.942 -0.2103 -1.4725 -2.2257
  178SLPC   H7S20309   0.740   2.583   9.908 -0.0145  1.2243  1.5529
  178SLPC   C2820310   0.715   2.385   9.808  0.4007  0.5664  1.0504
  178SLPC   H8R20311   0.732   2.279   9.836  2.4218  0.9151  1.1999
  178SLPC   H8S20312   0.780   2.415   9.723  0.4167 -1.9922  0.1359
  178SLPC   C2920313   0.569   2.409   9.765 -0.0024  0.3852  0.2589
  178SLPC   H9R20314   0.498   2.444   9.842 -0.0185  0.8823  0.0235
  178SLPC  C21020315   0.527   2.416   9.638  0.4990 -0.4553  0.3281
  178SLPC  H10R20316   0.421   2.441   9.621  0.8462  1.0009  0.2495
  178SLPC  C21120317   0.607   2.400   9.511  0.5284 -0.0674 -0.3390
  178SLPC  H11R20318   0.571   2.310   9.456 -2.7682  0.0580  1.5007
  178SLPC  H11S20319   0.711   2.374   9.541  0.6988  0.7365 -0.2062
  178SLPC  C21220320   0.596   2.522   9.431 -0.0354 -0.4982 -0.0455
  178SLPC  H12R20321   0.616   2.617   9.482  0.9880 -0.6583 -0.1347
  178SLPC  C21320322   0.584   2.527   9.293 -1.1078 -0.3664 -0.1616
  178SLPC  H13R20323   0.583   2.624   9.241  0.3400  0.3689  1.1162
  178SLPC  C21420324   0.572   2.405   9.193  0.3955 -0.3097 -0.7097
  178SLPC  H14R20325   0.469   2.414   9.153  0.6461  0.1175 -1.2683
  178SLPC  H14S20326   0.596   2.305   9.236  1.7529  0.1281 -0.4155
  178SLPC  C21520327   0.675   2.417   9.080  0.2933  0.2558 -0.1086
  178SLPC  H15R20328   0.774   2.405   9.129  0.2439 -1.9341 -0.5017
  178SLPC  H15S20329   0.669   2.511   9.022 -0.5673  0.8274  0.8890
  178SLPC  C21620330   0.670   2.299   8.984 -0.0069 -0.7529  0.3719
  178SLPC  H16R20331   0.572   2.313   8.933 -1.2739 -1.1842  2.6461
  178SLPC  H16S20332   0.683   2.202   9.036 -2.8345 -0.5949  1.4598
  178SLPC  C21720333   0.788   2.307   8.879  0.5003 -0.2246 -0.1520
  178SLPC  H17R20334   0.769   2.224   8.807 -0.4010  0.3685 -0.6098
  178SLPC  H17S20335   0.883   2.292   8.934 -1.0179 -3.2736  1.7855
  178SLPC  C21820336   0.799   2.431   8.792  0.6585 -0.5921 -0.3312
  178SLPC  H18R20337   0.711   2.428   8.724 -0.9332  0.1689  1.6403
  178SLPC  H18S20338   0.893   2.435   8.733  0.5996  1.2565 -0.3103
  178SLPC  H18T20339   0.796   2.523   8.853  1.2781 -0.7053 -0.1314
  178SLPC   C3320340   0.315   2.289  10.371  0.3528  0.0543 -0.5248
  178SLPC   H3X20341   0.272   2.191  10.401 -0.1117  0.4382  0.1036
  178SLPC   H3Y20342   0.422   2.278  10.346  0.6601  0.9436  0.3494
  178SLPC   C3420343   0.245   2.342  10.246  0.7455 -0.2584  0.0459
  178SLPC   H4X20344   0.326   2.392  10.188  0.9233  0.4356  0.8851
  178SLPC   H4Y20345   0.172   2.424  10.262 -0.5325 -1.3635 -0.0454
  178SLPC   C3520346   0.198   2.237  10.142  0.2991 -0.2383 -0.7115
  178SLPC   H5X20347   0.094   2.200  10.156  0.8229 -0.8616  1.7795
  178SLPC   H5Y20348   0.262   2.146  10.139  2.4523  1.2304 -0.7832
  178SLPC   C3620349   0.219   2.302  10.007  0.2337 -0.2486 -0.7910
  178SLPC   H6X20350   0.319   2.352  10.001  2.4120 -4.6053 -3.0064
  178SLPC   H6Y20351   0.139   2.378   9.996  0.7413  0.6775  1.6803
  178SLPC   C3720352   0.208   2.208   9.887  0.1751  0.4511 -0.1652
  178SLPC   H7X20353   0.141   2.123   9.913 -1.2316  0.7180 -2.7566
  178SLPC   H7Y20354   0.301   2.151   9.868 -0.8775 -1.1391 -0.5762
  178SLPC   C3820355   0.160   2.275   9.760  0.5261  0.0664 -0.6195
  178SLPC   H8X20356   0.229   2.356   9.728  0.1912  1.8504  3.0272
  178SLPC   H8Y20357   0.062   2.322   9.780  0.2193 -0.5766 -0.5754
  178SLPC   C3920358   0.161   2.186   9.636  0.1352  0.0043 -0.1176
  178SLPC   H9X20359   0.079   2.111   9.640 -0.5437  0.6754 -1.1552
  178SLPC   H9Y20360   0.257   2.131   9.637  1.1458  1.7300  1.2459
  178SLPC  C31020361   0.163   2.266   9.500  0.0364  0.3939  0.0489
  178SLPC  H10X20362   0.257   2.326   9.493  1.4156 -1.7913 -0.5612
  178SLPC  H10Y20363   0.069   2.325   9.496 -0.8309 -0.8886  1.2101
  178SLPC  C31120364   0.174   2.177   9.377  0.6909 -0.6404 -0.0012
  178SLPC  H11X20365   0.092   2.102   9.381  0.5207 -0.4819 -0.5318
  178SLPC  H11Y20366   0.275   2.130   9.371  0.5752 -0.9783  0.5869
  178SLPC  C31220367   0.169   2.260   9.254 -0.4201 -0.3574 -0.4096
  178SLPC  H12X20368   0.251   2.335   9.257 -0.5387 -0.1444 -2.2124
  178SLPC  H12Y20369   0.066   2.299   9.250  0.0517  1.2548  1.8824
  178SLPC  C31320370   0.180   2.166   9.133 -0.6051 -0.2189  0.6351
  178SLPC  H13X20371   0.091   2.100   9.126 -0.3411 -0.1813 -4.9118
  178SLPC  H13Y20372   0.266   2.098   9.146 -1.8316 -2.2203 -1.3854
  178SLPC  C31420373   0.193   2.246   8.999  0.7974  0.3068  0.3135
  178SLPC  H14X20374   0.231   2.178   8.920 -1.2773  0.0058 -0.4662
  178SLPC  H14Y20375   0.267   2.329   8.997  0.4040  0.6431 -0.2986
  178SLPC  C31520376   0.050   2.286   8.954  0.1750 -0.2677  0.2529
  178SLPC  H15X20377  -0.021   2.202   8.947  0.8883 -1.0255  1.9874
  178SLPC  H15Y20378   0.021   2.365   9.026 -1.1639 -0.9774  0.4944
  178SLPC  C31620379   0.053   2.346   8.816  0.5877  0.4246  0.5762
  178SLPC  H16X20380   0.070   2.269   8.739  0.3813 -0.0231  0.9761
  178SLPC  H16Y20381   0.139   2.416   8.808  1.1544 -0.3440 -0.0840
  178SLPC  C31720382  -0.081   2.412   8.772  0.1067 -0.5036  0.1168
  178SLPC  H17X20383  -0.098   2.503   8.834 -2.3198  0.0039 -1.2266
  178SLPC  H17Y20384  -0.162   2.337   8.785 -1.9308  1.6602  0.2152
  178SLPC  C31820385  -0.081   2.461   8.625 -0.3847 -0.9557  0.6557
  178SLPC  H18X20386  -0.159   2.540   8.618  0.4325 -0.2898 -1.0593
  178SLPC  H18Y20387  -0.111   2.373   8.564  0.8937 -0.8059 -0.1985
  178SLPC  H18Z20388   0.012   2.505   8.585 -1.0735  1.5569  1.7306
  179SLPC     N20389   2.692   6.557  10.661 -0.6931 -0.0136 -0.0244
  179SLPC   C1320390   2.828   6.619  10.668  0.5588  0.3141 -0.0090
  179SLPC  H13A20391   2.879   6.608  10.762  0.2134 -0.5593  0.0716
  179SLPC  H13B20392   2.886   6.565  10.594 -2.7328 -2.2511 -0.7895
  179SLPC  H13C20393   2.820   6.725  10.645 -4.3900  0.8144  3.3024
  179SLPC   C1420394   2.600   6.626  10.749  0.6415 -0.2073 -0.5684
  179SLPC  H14A20395   2.498   6.590  10.738  0.0066  0.8217  1.5604
  179SLPC  H14B20396   2.621   6.612  10.854 -0.8870  0.6071 -0.1278
  179SLPC  H14C20397   2.602   6.733  10.739  2.5422 -0.1968 -0.0986
  179SLPC   C1520398   2.706   6.415  10.708 -0.0942  0.6002  0.8791
  179SLPC  H15A20399   2.714   6.427  10.815  1.6142  1.4650  0.6779
  179SLPC  H15B20400   2.619   6.359  10.676 -0.4051  0.8396  1.3144
  179SLPC  H15C20401   2.797   6.368  10.673 -0.0173  0.9932  0.5507
  179SLPC   C1220402   2.637   6.553  10.515  0.4021  0.1883  0.3115
  179SLPC  H12A20403   2.681   6.467  10.467 -0.2945  1.2889 -2.3968
  179SLPC  H12B20404   2.667   6.641  10.461 -1.7425  0.3955 -0.6179
  179SLPC   C1120405   2.484   6.533  10.494  0.3103  0.0658 -0.2207
  179SLPC  H11A20406   2.453   6.512  10.390 -3.2953  0.6397  0.6681
  179SLPC  H11B20407   2.439   6.629  10.526 -0.6364 -1.0533  1.9393
  179SLPC     P20408   2.386   6.288  10.536 -0.0381  0.5479  0.5655
  179SLPC   O1320409   2.502   6.200  10.497 -0.1780  0.6301 -0.1883
  179SLPC   O1420410   2.299   6.236  10.640 -0.4122  0.4168  0.3045
  179SLPC   O1220411   2.448   6.426  10.583  0.8839 -0.3188  0.0424
  179SLPC   O1120412   2.306   6.321  10.401 -0.1608 -0.0340  0.1942
  179SLPC    C120413   2.187   6.400  10.413 -0.1171 -0.5708 -0.7422
  179SLPC    HA20414   2.111   6.345  10.473  0.8049 -1.4586 -0.3879
  179SLPC    HB20415   2.204   6.497  10.463  0.8762 -0.3278 -1.5399
  179SLPC    C220416   2.113   6.423  10.276  0.1028 -0.4829 -0.0672
  179SLPC    HS20417   2.005   6.427  10.302 -0.0917 -1.6763 -0.6753
  179SLPC   O2120418   2.143   6.317  10.180  0.2561 -0.0245 -0.6186
  179SLPC   C2120419   2.095   6.197  10.220  0.1889 -0.0887 -0.3603
  179SLPC   O2220420   2.020   6.178  10.313 -0.1189  0.0592 -0.0584
  179SLPC   C2220421   2.173   6.084  10.149  0.1729  0.4751 -0.6890
  179SLPC   H2R20422   2.269   6.119  10.106  0.5958  0.6424  0.3675
  179SLPC   H2S20423   2.189   6.009  10.229  0.5889 -0.0712 -1.2814
  179SLPC    C320424   2.138   6.563  10.219 -0.1951 -0.1159  0.7070
  179SLPC    HX20425   2.246   6.589  10.221 -0.2495  0.0500  1.6454
  179SLPC    HY20426   2.081   6.640  10.277 -0.2147  0.1817  0.2975
  179SLPC   O3120427   2.077   6.588  10.089 -0.2035 -0.3691 -0.1868
  179SLPC   C3120428   2.150   6.549   9.984 -0.4800  0.0750 -0.5800
  179SLPC   O3220429   2.265   6.519   9.985  0.3906  0.6531 -0.3238
  179SLPC   C3220430   2.059   6.544   9.862  0.1794  0.5375 -0.7336
  179SLPC   H2X20431   1.976   6.616   9.877 -0.2776 -0.3434  1.1222
  179SLPC   H2Y20432   2.008   6.446   9.847 -0.3922  1.1033 -2.5966
  179SLPC   C2320433   2.087   6.025  10.028 -0.5009 -0.2696  0.2976
  179SLPC   H3R20434   1.985   5.994  10.058 -0.2206 -3.8911 -2.2673
  179SLPC   H3S20435   2.142   5.932  10.001 -2.1800 -2.2400  3.4001
  179SLPC   C2420436   2.068   6.111   9.898 -0.1894 -0.7352  0.3561
  179SLPC   H4R20437   2.157   6.171   9.870  1.1243 -1.5040  2.7677
  179SLPC   H4S20438   1.988   6.186   9.915  0.2084 -0.5225  1.3163
  179SLPC   C2520439   2.028   6.017   9.783  0.8724 -1.1864 -0.4194
  179SLPC   H5R20440   1.942   5.951   9.808  1.6041 -1.4898  1.3294
  179SLPC   H5S20441   2.114   5.949   9.768  3.0432  2.1268 -3.9239
  179SLPC   C2620442   1.979   6.070   9.653  0.2063  0.7396  0.6077
  179SLPC   H6R20443   1.901   6.148   9.663 -0.4262  0.8568 -4.1926
  179SLPC   H6S20444   1.953   5.976   9.600  1.8650  0.5479  0.1095
  179SLPC   C2720445   2.100   6.124   9.572 -0.3062  0.0722  0.3482
  179SLPC   H7R20446   2.156   6.028   9.565 -0.2906 -0.0203  1.5238
  179SLPC   H7S20447   2.150   6.201   9.635 -0.5355  0.0049  0.6105
  179SLPC   C2820448   2.050   6.168   9.434 -0.2085  0.4792 -0.2757
  179SLPC   H8R20449   2.139   6.223   9.398  1.2491  0.1020  2.5516
  179SLPC   H8S20450   1.973   6.248   9.436  0.5542  1.3669 -3.5503
  179SLPC   C2920451   2.000   6.055   9.343  0.2371 -0.0723  0.3328
  179SLPC   H9R20452   1.927   5.996   9.401  0.2141  1.3268  1.7734
  179SLPC  C21020453   2.029   6.031   9.215  0.2104  0.8961  0.4367
  179SLPC  H10R20454   1.990   5.940   9.166  1.1154  0.2454  0.9150
  179SLPC  C21120455   2.123   6.103   9.125  0.5978  0.5594 -0.0093
  179SLPC  H11R20456   2.221   6.052   9.138 -1.1937 -3.0841 -0.2361
  179SLPC  H11S20457   2.145   6.202   9.169 -1.0146  0.9317 -0.0205
  179SLPC  C21220458   2.091   6.120   8.981 -0.5753  0.0911  0.0060
  179SLPC  H12R20459   2.026   6.205   8.955  1.2001  1.4966  0.0850
  179SLPC  C21320460   2.145   6.037   8.889  0.3280  0.0112  0.7158
  179SLPC  H13R20461   2.121   6.052   8.783 -0.0696 -1.5261  0.5784
  179SLPC  C21420462   2.231   5.912   8.925  0.2281 -0.7665  0.1484
  179SLPC  H14R20463   2.215   5.878   9.030  1.4201 -0.6314  0.3822
  179SLPC  H14S20464   2.336   5.948   8.924 -0.2246  0.6254  1.2932
  179SLPC  C21520465   2.223   5.797   8.831  0.2238  0.1823 -0.4205
  179SLPC  H15R20466   2.174   5.818   8.734  0.1765 -0.4175 -0.5322
  179SLPC  H15S20467   2.153   5.731   8.887  1.0370 -0.0155  0.3784
  179SLPC  C21620468   2.363   5.736   8.798  0.4513 -0.2590  0.6187
  179SLPC  H16R20469   2.401   5.702   8.897 -1.4395  0.5597  1.6641
  179SLPC  H16S20470   2.431   5.817   8.766 -0.1704  1.0684  2.5295
  179SLPC  C21720471   2.359   5.624   8.695 -0.9688  0.1525  0.3016
  179SLPC  H17R20472   2.307   5.660   8.603  1.2045 -0.8200 -1.3515
  179SLPC  H17S20473   2.296   5.539   8.730  0.6077 -1.1442  0.0461
  179SLPC  C21820474   2.496   5.561   8.674 -0.4181 -0.2417 -0.0169
  179SLPC  H18R20475   2.554   5.638   8.618  0.3792 -0.0452  1.0752
  179SLPC  H18S20476   2.492   5.459   8.631  0.7437  0.2740 -1.4083
  179SLPC  H18T20477   2.530   5.544   8.778  0.4652  0.5457 -0.1723
  179SLPC   C3320478   2.145   6.577   9.737 -0.1256  0.2712 -0.4233
  179SLPC   H3X20479   2.238   6.518   9.729  0.0541  0.6146 -0.9088
  179SLPC   H3Y20480   2.157   6.687   9.742 -1.9072  0.3615  3.0668
  179SLPC   C3420481   2.067   6.534   9.604 -0.4072 -0.6679 -0.4248
  179SLPC   H4X20482   1.971   6.590   9.599  0.6289  1.4338  2.1019
  179SLPC   H4Y20483   2.045   6.425   9.606 -0.6383 -0.6454 -1.2421
  179SLPC   C3520484   2.160   6.552   9.485  0.4329 -1.6400  0.0641
  179SLPC   H5X20485   2.252   6.492   9.500  1.0819 -1.1580 -1.8310
  179SLPC   H5Y20486   2.190   6.659   9.486  1.4754 -1.8872 -2.0000
  179SLPC   C3620487   2.093   6.517   9.349 -0.0109 -0.5532 -0.5079
  179SLPC   H6X20488   2.003   6.581   9.335  0.7798  0.1057 -2.6827
  179SLPC   H6Y20489   2.058   6.412   9.349  0.5221 -0.8153  2.9913
  179SLPC   C3720490   2.185   6.535   9.226  0.3220  0.1530 -0.5511
  179SLPC   H7X20491   2.269   6.463   9.229 -1.1556 -1.6484 -1.1171
  179SLPC   H7Y20492   2.209   6.643   9.219 -3.3519  1.0617 -0.6170
  179SLPC   C3820493   2.121   6.514   9.085  0.6416  0.0157 -0.1366
  179SLPC   H8X20494   2.039   6.439   9.088 -0.7252  1.5082  0.7489
  179SLPC   H8Y20495   2.199   6.477   9.016  0.6750 -2.4062  1.1376
  179SLPC   C3920496   2.065   6.642   9.029 -0.3332  0.1087  0.8125
  179SLPC   H9X20497   2.141   6.723   9.018  0.1527 -0.6029 -1.2928
  179SLPC   H9Y20498   1.998   6.682   9.108 -0.7655 -2.3192  1.7284
  179SLPC  C31020499   2.002   6.618   8.890  0.3714  0.3319 -0.0661
  179SLPC  H10X20500   1.954   6.717   8.874 -0.1600  0.3884  1.7290
  179SLPC  H10Y20501   1.926   6.536   8.893  1.3483 -0.6140 -0.7930
  179SLPC  C31120502   2.099   6.571   8.786 -0.6630 -0.6338 -0.0741
  179SLPC  H11X20503   2.151   6.476   8.809  0.1690 -0.9189 -2.9919
  179SLPC  H11Y20504   2.178   6.648   8.773  2.2021 -3.7622 -2.1792
  179SLPC  C31220505   2.026   6.562   8.652 -0.3256  0.0227 -0.3650
  179SLPC  H12X20506   1.998   6.664   8.619  1.9494  0.4908 -0.9100
  179SLPC  H12Y20507   1.940   6.492   8.659 -0.8716  0.7687  0.3732
  179SLPC  C31320508   2.112   6.514   8.532 -0.1955  0.6532  0.8746
  179SLPC  H13X20509   2.032   6.532   8.457 -0.1850  0.8725  0.9174
  179SLPC  H13Y20510   2.132   6.406   8.546 -0.4516  0.7999  2.5164
  179SLPC  C31420511   2.235   6.599   8.504 -0.0700  0.0676 -0.4184
  179SLPC  H14X20512   2.313   6.600   8.583 -0.1933  0.8586 -0.3094
  179SLPC  H14Y20513   2.197   6.703   8.499 -1.4496 -0.3937  0.1747
  179SLPC  C31520514   2.306   6.574   8.374 -0.4504  0.9624  0.2862
  179SLPC  H15X20515   2.340   6.468   8.376 -2.2913  0.3527  0.7978
  179SLPC  H15Y20516   2.398   6.636   8.378  1.1982 -1.2816 -1.6609
  179SLPC  C31620517   2.226   6.605   8.243  0.3237  0.3889 -0.6438
  179SLPC  H16X20518   2.294   6.647   8.166  0.9571 -0.9069 -0.8077
  179SLPC  H16Y20519   2.148   6.678   8.275  0.0501  0.2219 -0.9188
  179SLPC  C31720520   2.164   6.476   8.197 -0.6971  0.5782  0.5712
  179SLPC  H17X20521   2.095   6.444   8.278  1.4528  0.5722  2.4455
  179SLPC  H17Y20522   2.249   6.403   8.188 -0.2484  1.3018 -1.4828
  179SLPC  C31820523   2.096   6.487   8.064  0.3342  0.3708  0.1861
  179SLPC  H18X20524   2.026   6.572   8.063  1.6219  1.4551  0.8542
  179SLPC  H18Y20525   2.037   6.395   8.043  0.8119 -0.1645  1.1333
  179SLPC  H18Z20526   2.159   6.505   7.974 -0.8643  1.9874 -0.3315
  180SLPC     N20527   3.652   3.786  11.120 -0.1588  0.1614  0.0020
  180SLPC   C1320528   3.581   3.922  11.132 -0.4845 -0.8453  0.0994
  180SLPC  H13A20529   3.491   3.913  11.191 -1.8861 -1.0641 -1.9755
  180SLPC  H13B20530   3.648   3.997  11.169 -1.0072 -0.5002  0.3546
  180SLPC  H13C20531   3.549   3.956  11.034  0.1702  1.0850  0.5345
  180SLPC   C1420532   3.668   3.720  11.247 -0.2358 -0.1971 -0.3968
  180SLPC  H14A20533   3.719   3.781  11.321  1.4825 -1.4610 -0.4916
  180SLPC  H14B20534   3.574   3.717  11.299 -1.7322  1.4942 -2.9162
  180SLPC  H14C20535   3.699   3.619  11.223 -1.5787 -0.5184 -0.7738
  180SLPC   C1520536   3.780   3.808  11.051  0.1672  0.3446 -0.2001
  180SLPC  H15A20537   3.842   3.720  11.050  0.7330  0.6493  3.0488
  180SLPC  H15B20538   3.754   3.835  10.949  0.9060  0.0062 -0.4779
  180SLPC  H15C20539   3.838   3.890  11.091 -2.3453  1.6013  1.0142
  180SLPC   C1220540   3.564   3.707  11.028 -0.3318  0.1017  1.2213
  180SLPC  H12A20541   3.464   3.711  11.067 -1.5284 -0.0629 -1.7208
  180SLPC  H12B20542   3.591   3.602  11.026 -0.7801 -0.0359  2.1949
  180SLPC   C1120543   3.537   3.749  10.876  0.4198  0.7543 -0.3730
  180SLPC  H11A20544   3.480   3.664  10.833 -0.9752  1.4868  0.0049
  180SLPC  H11B20545   3.632   3.753  10.819  0.1311  0.0961 -0.9112
  180SLPC     P20546   3.313   3.887  10.832 -0.2976 -0.0818 -0.2374
  180SLPC   O1320547   3.234   3.859  10.957  0.2675 -0.2260  0.1412
  180SLPC   O1420548   3.273   4.017  10.778 -0.7795  0.5554  0.7831
  180SLPC   O1220549   3.471   3.872  10.851  0.0543 -0.3000  0.1431
  180SLPC   O1120550   3.283   3.773  10.729 -0.1948 -0.1436  0.1036
  180SLPC    C120551   3.362   3.784  10.603  0.1628 -0.2487 -0.4962
  180SLPC    HA20552   3.377   3.889  10.571  0.5647 -0.5646 -1.3481
  180SLPC    HB20553   3.463   3.738  10.604 -0.9211 -2.7179 -0.0174
  180SLPC    C220554   3.284   3.717  10.492 -0.3516  0.4462 -0.1981
  180SLPC    HS20555   3.336   3.730  10.395 -1.8279  0.9823 -0.9422
  180SLPC   O2120556   3.152   3.769  10.476  0.3499 -0.2565  0.7484
  180SLPC   C2120557   3.137   3.904  10.448 -0.0062 -0.0483  0.2540
  180SLPC   O2220558   3.221   3.983  10.422  0.4187  0.0094  0.2854
  180SLPC   C2220559   2.988   3.929  10.459 -0.7239  0.4383 -0.0455
  180SLPC   H2R20560   2.932   3.835  10.442  0.7088 -0.4413  0.0222
  180SLPC   H2S20561   2.968   3.964  10.563 -0.2060 -1.3653  0.6830
  180SLPC    C320562   3.267   3.561  10.508  0.1149 -0.1413  0.2135
  180SLPC    HX20563   3.201   3.534  10.594  1.7390 -2.1342  0.8439
  180SLPC    HY20564   3.366   3.516  10.527  0.3698 -0.3905 -1.6289
  180SLPC   O3120565   3.217   3.504  10.390 -0.1941  0.3542  0.1233
  180SLPC   C3120566   3.094   3.451  10.388  0.1880 -0.1489  0.2548
  180SLPC   O3220567   3.020   3.435  10.480  0.1607  0.4473  0.5742
  180SLPC   C3220568   3.062   3.416  10.241  0.1474 -1.0537  0.3493
  180SLPC   H2X20569   2.955   3.387  10.247  0.1085 -1.2508 -1.1460
  180SLPC   H2Y20570   3.119   3.324  10.216 -1.0886 -1.8388  0.3620
  180SLPC   C2320571   2.938   4.033  10.355  0.2070  0.2008 -0.3646
  180SLPC   H3R20572   3.006   4.120  10.342 -0.4833  0.8031 -0.0180
  180SLPC   H3S20573   2.839   4.076  10.381 -0.0320  0.1602 -1.2126
  180SLPC   C2420574   2.924   3.969  10.215  0.0625 -0.2569  0.1315
  180SLPC   H4R20575   2.859   3.880  10.231 -0.1862 -0.6140 -2.5809
  180SLPC   H4S20576   3.022   3.932  10.179  0.0171  0.1241 -0.3859
  180SLPC   C2520577   2.861   4.067  10.117 -0.2431 -0.2575  0.2740
  180SLPC   H5R20578   2.938   4.146  10.113  3.0795 -3.3767 -0.8390
  180SLPC   H5S20579   2.769   4.102  10.169 -0.3441 -0.8167  0.4867
  180SLPC   C2620580   2.835   4.020   9.974  0.6205  0.6883  0.7734
  180SLPC   H6R20581   2.760   3.938   9.971  1.2396  0.1175  0.8857
  180SLPC   H6S20582   2.926   3.972   9.932 -0.1955 -0.9149  0.7854
  180SLPC   C2720583   2.790   4.111   9.858 -0.2729 -0.5191 -0.1658
  180SLPC   H7R20584   2.883   4.162   9.821 -2.9059  3.2015 -2.0233
  180SLPC   H7S20585   2.728   4.190   9.905  0.4978  0.6844 -1.0863
  180SLPC   C2820586   2.729   4.043   9.736 -0.5120 -0.2927  0.3738
  180SLPC   H8R20587   2.633   3.999   9.771  0.0246 -1.2741  0.6297
  180SLPC   H8S20588   2.802   3.963   9.711  0.3195 -0.1709  2.3503
  180SLPC   C2920589   2.705   4.142   9.625 -0.2017 -0.1683  0.4574
  180SLPC   H9R20590   2.645   4.231   9.651  1.1383  0.7372  0.5053
  180SLPC  C21020591   2.739   4.125   9.500 -0.2065  0.7682 -0.1814
  180SLPC  H10R20592   2.727   4.212   9.433 -2.3650 -0.5388 -1.5465
  180SLPC  C21120593   2.808   4.005   9.439 -0.5344  0.4012 -0.6356
  180SLPC  H11R20594   2.886   3.967   9.509 -2.3916 -0.4267  1.0292
  180SLPC  H11S20595   2.863   4.045   9.351  1.0666 -0.3509 -0.0028
  180SLPC  C21220596   2.715   3.894   9.410  0.8140 -0.6893 -0.3155
  180SLPC  H12R20597   2.678   3.848   9.503  0.7113  0.0470  0.0132
  180SLPC  C21320598   2.665   3.867   9.290  0.3772 -0.0517 -0.1527
  180SLPC  H13R20599   2.595   3.785   9.269 -0.5214  0.7736 -0.4280
  180SLPC  C21420600   2.694   3.943   9.165  0.8924 -0.1921  0.1594
  180SLPC  H14R20601   2.796   3.988   9.166  0.2342  1.5131 -3.1679
  180SLPC  H14S20602   2.623   4.028   9.160  0.6292 -0.4250 -0.0619
  180SLPC  C21520603   2.700   3.848   9.035 -0.6773  0.3377  0.3798
  180SLPC  H15R20604   2.767   3.763   9.059 -1.6241 -0.6375 -0.3899
  180SLPC  H15S20605   2.744   3.913   8.956 -0.9082 -0.4584 -0.4157
  180SLPC  C21620606   2.561   3.813   8.984 -1.1176 -0.2035  1.0548
  180SLPC  H16R20607   2.494   3.893   9.025 -1.0536 -0.6316  1.9925
  180SLPC  H16S20608   2.535   3.719   9.036  2.2059 -1.3269  0.7802
  180SLPC  C21720609   2.554   3.789   8.832  0.2199  0.0910  1.0162
  180SLPC  H17R20610   2.580   3.883   8.779  0.3461 -1.3290 -1.5048
  180SLPC  H17S20611   2.458   3.744   8.799 -1.1280  3.1704  0.4715
  180SLPC  C21820612   2.669   3.696   8.773 -0.1078 -0.6937  0.5274
  180SLPC  H18R20613   2.773   3.732   8.790  0.0099 -1.4149  1.4209
  180SLPC  H18S20614   2.642   3.698   8.665  1.5590  0.4689  0.1151
  180SLPC  H18T20615   2.675   3.590   8.808  0.2451 -0.7243  0.3777
  180SLPC   C3320616   3.087   3.540  10.153 -0.2481 -0.4800 -0.0173
  180SLPC   H3X20617   3.192   3.554  10.121 -0.8962 -0.3763 -2.1739
  180SLPC   H3Y20618   3.055   3.636  10.199 -0.6096 -0.4017 -0.4275
  180SLPC   C3420619   3.000   3.531  10.028 -0.5004 -0.2131 -0.2035
  180SLPC   H4X20620   2.893   3.503  10.039 -0.7478  0.4068 -0.9816
  180SLPC   H4Y20621   3.054   3.455   9.966  1.6242 -1.1126  2.6182
  180SLPC   C3520622   2.977   3.658   9.935 -0.1128  0.1362  0.1351
  180SLPC   H5X20623   3.069   3.699   9.889  0.3462 -1.1792 -0.1350
  180SLPC   H5Y20624   2.943   3.743   9.998 -1.8222 -0.8831  0.5924
  180SLPC   C3620625   2.878   3.637   9.818  0.5189  0.2993 -0.3396
  180SLPC   H6X20626   2.865   3.734   9.766 -0.6299 -0.0706 -0.7610
  180SLPC   H6Y20627   2.772   3.625   9.849  0.3162  1.5126 -0.5600
  180SLPC   C3720628   2.912   3.533   9.713  0.1609  0.5888  1.3337
  180SLPC   H7X20629   2.828   3.532   9.640  0.0362  0.9349  1.4705
  180SLPC   H7Y20630   2.911   3.429   9.752  0.1253  0.5706  1.2846
  180SLPC   C3820631   3.044   3.571   9.646  0.4615 -0.0018 -0.0416
  180SLPC   H8X20632   3.124   3.558   9.722 -0.4511  0.9196  1.0938
  180SLPC   H8Y20633   3.050   3.676   9.611  1.9228 -0.7104 -2.0369
  180SLPC   C3920634   3.094   3.497   9.524 -0.0278 -0.2709 -0.1842
  180SLPC   H9X20635   3.080   3.389   9.549  0.3399  0.2744  2.5025
  180SLPC   H9Y20636   3.205   3.506   9.519 -0.0597 -0.5576 -1.9950
  180SLPC  C31020637   3.023   3.540   9.396  0.1464  0.7010  0.0038
  180SLPC  H10X20638   3.065   3.631   9.348  0.9099 -1.7209 -4.1989
  180SLPC  H10Y20639   2.915   3.550   9.417  0.2487  2.5594 -0.3249
  180SLPC  C31120640   3.034   3.429   9.293 -0.0301 -0.0886 -1.0927
  180SLPC  H11X20641   2.982   3.338   9.331 -1.1823  0.3771 -1.5196
  180SLPC  H11Y20642   3.140   3.405   9.269  0.6015 -1.3477  2.5797
  180SLPC  C31220643   2.949   3.457   9.169 -0.0674 -0.7600  0.1105
  180SLPC  H12X20644   2.977   3.558   9.134 -2.6035  1.2396  3.4536
  180SLPC  H12Y20645   2.846   3.474   9.208  0.9069  1.2852  1.9079
  180SLPC  C31320646   2.947   3.348   9.060  0.4598 -0.1294 -0.2777
  180SLPC  H13X20647   2.905   3.267   9.123 -2.1994  0.6698 -0.9404
  180SLPC  H13Y20648   3.052   3.321   9.035  0.6056  0.1226  0.0555
  180SLPC  C31420649   2.873   3.383   8.929  1.1329 -0.1788  0.4895
  180SLPC  H14X20650   2.887   3.490   8.904  0.3960 -1.0063 -3.8836
  180SLPC  H14Y20651   2.765   3.368   8.951  1.3302  0.6653  2.1194
  180SLPC  C31520652   2.904   3.296   8.809  0.4287 -0.1263  0.0041
  180SLPC  H15X20653   2.886   3.188   8.823  0.8750  0.0786  2.2554
  180SLPC  H15Y20654   3.014   3.300   8.795  0.7736  1.0000  2.7525
  180SLPC  C31620655   2.832   3.354   8.684 -0.6688  0.0051 -0.6835
  180SLPC  H16X20656   2.865   3.460   8.672  0.3902 -0.3390 -0.8392
  180SLPC  H16Y20657   2.723   3.354   8.707 -0.2749  0.2607  1.2955
  180SLPC  C31720658   2.867   3.279   8.547 -0.0215 -0.4024 -0.2082
  180SLPC  H17X20659   2.973   3.296   8.515  0.6886 -2.3402  1.0342
  180SLPC  H17Y20660   2.812   3.338   8.471 -0.7221 -0.5431  0.1870
  180SLPC  C31820661   2.824   3.138   8.537  0.4561 -0.0692 -0.4563
  180SLPC  H18X20662   2.887   3.082   8.609  1.5070  2.6504  0.8078
  180SLPC  H18Y20663   2.856   3.098   8.438 -0.2644 -1.8398  0.0143
  180SLPC  H18Z20664   2.718   3.115   8.559  0.6228  0.0355  0.4686
  181SLPC     N20665   6.215   0.278  11.219  0.3596 -0.5062 -0.3236
  181SLPC   C1320666   6.348   0.345  11.219 -0.4631  0.3632  0.0026
  181SLPC  H13A20667   6.395   0.327  11.123  3.0489 -2.9618  2.2104
  181SLPC  H13B20668   6.336   0.449  11.242 -0.5852  0.3943 -0.1968
  181SLPC  H13C20669   6.408   0.299  11.296  1.1005  0.8996 -0.8718
  181SLPC   C1420670   6.165   0.269  11.356  0.2837 -0.1742  0.6199
  181SLPC  H14A20671   6.149   0.367  11.399  1.0396 -0.8831  2.5891
  181SLPC  H14B20672   6.073   0.214  11.360  0.0710  0.1773  0.5699
  181SLPC  H14C20673   6.225   0.211  11.425  2.8447  0.1988 -1.1857
  181SLPC   C1520674   6.227   0.147  11.149  0.3388  0.1384 -0.8250
  181SLPC  H15A20675   6.295   0.086  11.206  0.6380  2.1287  1.0191
  181SLPC  H15B20676   6.128   0.106  11.138  0.2602  0.0954  0.0593
  181SLPC  H15C20677   6.270   0.134  11.051  2.5145 -1.6437  0.3138
  181SLPC   C1220678   6.110   0.358  11.134 -0.6800  0.4354 -0.1261
  181SLPC  H12A20679   6.017   0.305  11.148 -0.3548 -0.3040 -0.7202
  181SLPC  H12B20680   6.124   0.342  11.028  1.4369  0.0645  0.1785
  181SLPC   C1120681   6.071   0.503  11.170  0.5768 -0.0398  0.4534
  181SLPC  H11A20682   5.997   0.498  11.253  1.0741  2.1830  1.0845
  181SLPC  H11B20683   6.023   0.542  11.078  1.6561  1.0270  0.3283
  181SLPC     P20684   6.224   0.711  11.122 -0.4173 -0.1407 -0.3652
  181SLPC   O1320685   6.128   0.745  11.010 -0.7040 -0.1161 -1.0555
  181SLPC   O1420686   6.259   0.821  11.214 -0.0356 -0.1563  0.6888
  181SLPC   O1220687   6.175   0.583  11.202  0.3278 -0.1120 -0.1933
  181SLPC   O1120688   6.363   0.664  11.065 -0.0177 -0.0028 -0.3107
  181SLPC    C120689   6.485   0.717  11.114 -0.3019  0.7191 -0.2318
  181SLPC    HA20690   6.478   0.751  11.219 -0.8379 -0.2311  0.0523
  181SLPC    HB20691   6.564   0.639  11.115 -0.4121  0.6052  1.0261
  181SLPC    C220692   6.528   0.836  11.028 -0.1783 -0.0862 -0.3082
  181SLPC    HS20693   6.473   0.929  11.052 -1.2036  0.0660 -2.9955
  181SLPC   O2120694   6.514   0.803  10.884 -0.1602  0.0636  0.6124
  181SLPC   C2120695   6.436   0.899  10.823  0.1430  0.0120  0.6304
  181SLPC   O2220696   6.348   0.966  10.870  0.2566 -0.2284 -0.0518
  181SLPC   C2220697   6.473   0.898  10.672  0.0222  0.5592 -0.0638
  181SLPC   H2R20698   6.583   0.883  10.664 -0.1234 -0.6769  0.0702
  181SLPC   H2S20699   6.426   0.800  10.647  0.3543 -0.2694  2.4590
  181SLPC    C320700   6.676   0.878  11.067  0.4052  0.2525  0.0540
  181SLPC    HX20701   6.748   0.798  11.040  0.7187  1.3367 -2.3981
  181SLPC    HY20702   6.683   0.906  11.175 -1.0219  2.5623 -0.3993
  181SLPC   O3120703   6.716   1.000  11.001 -0.0983  0.4684  0.2110
  181SLPC   C3120704   6.795   0.992  10.898 -0.1058 -0.4389  0.6643
  181SLPC   O3220705   6.870   0.900  10.868 -0.3551 -0.3224 -0.3983
  181SLPC   C3220706   6.771   1.122  10.815 -0.1073 -0.4044  0.5608
  181SLPC   H2X20707   6.778   1.219  10.868  0.4440 -0.0781 -0.1089
  181SLPC   H2Y20708   6.665   1.124  10.782  0.4031  2.9747 -1.0651
  181SLPC   C2320709   6.409   1.013  10.590 -0.1231 -0.0349  0.0081
  181SLPC   H3R20710   6.460   1.108  10.618  0.9619  0.1175 -2.3189
  181SLPC   H3S20711   6.300   1.021  10.611  0.0775  0.5307  0.8418
  181SLPC   C2420712   6.455   1.008  10.447 -1.0518  0.4715  0.1027
  181SLPC   H4R20713   6.407   0.915  10.409 -0.1128 -0.2612  0.6501
  181SLPC   H4S20714   6.562   0.978  10.435 -1.1430 -0.2777  1.0316
  181SLPC   C2520715   6.405   1.124  10.362  0.5292  0.2683 -0.3338
  181SLPC   H5R20716   6.483   1.202  10.375  0.1871  0.8907 -1.9414
  181SLPC   H5S20717   6.303   1.146  10.399  0.8567 -0.4139  0.9909
  181SLPC   C2620718   6.396   1.092  10.209 -0.4274  0.7537  0.4659
  181SLPC   H6R20719   6.324   1.008  10.206 -0.1331  0.5253 -0.2811
  181SLPC   H6S20720   6.487   1.054  10.158 -0.6970  1.2699 -0.4218
  181SLPC   C2720721   6.342   1.212  10.125 -0.0156 -0.2665 -0.7324
  181SLPC   H7R20722   6.417   1.292  10.139  1.3037 -1.6991  0.5082
  181SLPC   H7S20723   6.247   1.240  10.177  0.6615  0.1577  0.2831
  181SLPC   C2820724   6.310   1.175   9.984  0.7368 -0.3285  0.8047
  181SLPC   H8R20725   6.243   1.087   9.988  2.4562 -1.6814  0.6316
  181SLPC   H8S20726   6.397   1.139   9.925 -0.4024  0.3346 -1.3531
  181SLPC   C2920727   6.235   1.287   9.908 -0.4357  0.1766 -0.6648
  181SLPC   H9R20728   6.295   1.379   9.908 -1.0505  0.5842 -0.3565
  181SLPC  C21020729   6.113   1.279   9.850 -0.7180 -0.0951  0.1125
  181SLPC  H10R20730   6.072   1.378   9.827  2.1496  1.4215  1.1467
  181SLPC  C21120731   6.012   1.177   9.838  0.1026  0.1390 -0.9259
  181SLPC  H11R20732   5.907   1.211   9.829 -0.0026 -0.3839 -1.7801
  181SLPC  H11S20733   6.017   1.118   9.932 -0.2800  0.2407 -0.8444
  181SLPC  C21220734   6.060   1.080   9.732 -0.2633  0.1926  0.0790
  181SLPC  H12R20735   6.162   1.040   9.744  0.4320  1.4923 -1.3056
  181SLPC  C21320736   6.009   1.037   9.614 -0.0497 -0.4233  0.2300
  181SLPC  H13R20737   6.045   0.953   9.553 -2.4453 -2.3153  1.3395
  181SLPC  C21420738   5.869   1.079   9.567  0.1563  0.4277  0.3737
  181SLPC  H14R20739   5.858   1.186   9.594  2.0047  0.8348 -0.3594
  181SLPC  H14S20740   5.790   1.029   9.626 -0.6353  1.2846  0.0397
  181SLPC  C21520741   5.849   1.054   9.411 -0.7646  0.2065 -0.0042
  181SLPC  H15R20742   5.853   0.943   9.401  1.1299  0.0675  1.8446
  181SLPC  H15S20743   5.922   1.107   9.346 -0.4825 -2.1514 -1.6722
  181SLPC  C21620744   5.714   1.101   9.359 -0.0427  0.6917  0.4604
  181SLPC  H16R20745   5.699   1.211   9.362 -0.3757  0.6317  1.1389
  181SLPC  H16S20746   5.635   1.062   9.426  0.0696 -0.2041  0.0802
  181SLPC  C21720747   5.674   1.056   9.218 -0.5910 -0.1129  0.1205
  181SLPC  H17R20748   5.569   1.086   9.198 -0.3177  0.4402 -0.5213
  181SLPC  H17S20749   5.671   0.945   9.214 -0.0561 -0.1480  0.6587
  181SLPC  C21820750   5.773   1.115   9.113 -0.3659 -1.1738 -0.0261
  181SLPC  H18R20751   5.873   1.069   9.126 -0.6749 -1.3269  2.1016
  181SLPC  H18S20752   5.771   1.226   9.115 -0.5489 -1.1866  1.2593
  181SLPC  H18T20753   5.734   1.084   9.014  1.9136  3.2005 -2.4565
  181SLPC   C3320754   6.853   1.119  10.690  0.2136 -0.1512 -0.0105
  181SLPC   H3X20755   6.835   1.024  10.635 -0.5686 -0.2585  0.4187
  181SLPC   H3Y20756   6.961   1.133  10.713 -0.0953 -0.8092  1.9715
  181SLPC   C3420757   6.807   1.236  10.600  0.4972 -0.4801 -0.5454
  181SLPC   H4X20758   6.859   1.327  10.636 -0.3556  0.1229 -0.8215
  181SLPC   H4Y20759   6.697   1.254  10.607  0.3644 -1.1415 -0.9587
  181SLPC   C3520760   6.851   1.208  10.455 -0.0880 -0.1704 -0.6686
  181SLPC   H5X20761   6.799   1.122  10.409 -0.6962 -0.7895  1.1281
  181SLPC   H5Y20762   6.960   1.188  10.464 -0.5451 -1.6028  2.1316
  181SLPC   C3620763   6.828   1.327  10.362 -0.5703  0.2397 -0.8293
  181SLPC   H6X20764   6.887   1.418  10.389 -0.7055 -0.3380  1.5380
  181SLPC   H6Y20765   6.721   1.357  10.360 -0.4620  0.8042  0.7356
  181SLPC   C3720766   6.865   1.298  10.213  0.2188  0.2590 -0.5374
  181SLPC   H7X20767   6.975   1.288  10.207  0.4268  2.4285 -0.8275
  181SLPC   H7Y20768   6.840   1.395  10.164 -0.3896  0.4784  0.1835
  181SLPC   C3820769   6.792   1.183  10.151  0.5993 -0.6182  0.0676
  181SLPC   H8X20770   6.688   1.182  10.188  0.5051  0.3443 -0.1687
  181SLPC   H8Y20771   6.834   1.084  10.181  0.0749 -0.8983 -0.1244
  181SLPC   C3920772   6.781   1.201   9.996  0.0908 -0.8930  0.1919
  181SLPC   H9X20773   6.694   1.267   9.977  1.1085  0.2172 -0.6475
  181SLPC   H9Y20774   6.768   1.100   9.950 -1.1344  0.5850 -2.8463
  181SLPC  C31020775   6.909   1.236   9.925  0.7192 -0.6471 -0.2604
  181SLPC  H10X20776   6.990   1.161   9.939 -0.6102 -1.6068  2.9529
  181SLPC  H10Y20777   6.952   1.332   9.960 -1.3797 -0.4315  1.8538
  181SLPC  C31120778   6.901   1.244   9.770 -0.1496  0.0522  0.3926
  181SLPC  H11X20779   6.805   1.299   9.756  0.7223  1.4016 -0.4582
  181SLPC  H11Y20780   6.891   1.140   9.733 -1.4111  1.4825 -3.6182
  181SLPC  C31220781   7.018   1.315   9.696 -0.3346  0.4908  0.2637
  181SLPC  H12X20782   7.111   1.273   9.739 -0.0520 -2.1609 -2.6603
  181SLPC  H12Y20783   7.013   1.425   9.705 -0.9890  0.4558  0.4111
  181SLPC  C31320784   7.011   1.276   9.544  0.3696 -0.6514 -0.0125
  181SLPC  H13X20785   7.086   1.340   9.494 -0.1335 -0.9246 -1.1125
  181SLPC  H13Y20786   6.915   1.307   9.499 -0.0289 -0.0004  1.2421
  181SLPC  C31420787   7.038   1.125   9.512 -0.0390  0.7744  0.0494
  181SLPC  H14X20788   6.965   1.059   9.563 -2.0847  1.7198 -1.6099
  181SLPC  H14Y20789   7.133   1.082   9.550  0.5054  0.1170 -1.9751
  181SLPC  C31520790   7.030   1.097   9.359 -0.1398  0.7196  1.0849
  181SLPC  H15X20791   7.095   1.161   9.296 -1.0860 -0.0421 -0.7095
  181SLPC  H15Y20792   6.924   1.115   9.331 -0.5664 -2.8364  0.2494
  181SLPC  C31620793   7.074   0.956   9.315 -0.2494 -0.0916 -0.0905
  181SLPC  H16X20794   7.030   0.886   9.388  0.8014 -0.0102  0.6354
  181SLPC  H16Y20795   7.184   0.944   9.327 -0.3392  0.0600  0.9189
  181SLPC  C31720796   7.020   0.933   9.171  0.2605  0.1250 -0.0047
  181SLPC  H17X20797   7.044   1.021   9.108 -0.3561  1.2533  1.3126
  181SLPC  H17Y20798   6.910   0.927   9.173  0.2119  0.8849 -0.1809
  181SLPC  C31820799   7.074   0.802   9.117 -0.3034 -0.1231 -0.8777
  181SLPC  H18X20800   7.178   0.826   9.085 -0.8728  0.4319 -2.3146
  181SLPC  H18Y20801   7.023   0.764   9.027  0.9725 -0.5462 -1.4362
  181SLPC  H18Z20802   7.075   0.733   9.204  0.7000  1.8953  0.7575
  182SLPC     N20803   4.775   2.055  11.243 -0.3988  0.2353  0.7002
  182SLPC   C1320804   4.886   1.989  11.316 -0.6466  0.2213 -0.1535
  182SLPC  H13A20805   4.891   2.026  11.417  4.2420  1.3190 -0.6697
  182SLPC  H13B20806   4.871   1.882  11.314  1.0002 -0.0111 -1.8909
  182SLPC  H13C20807   4.979   2.008  11.264 -0.2812 -0.2799  0.3091
  182SLPC   C1420808   4.785   2.206  11.260 -0.3018  0.4964 -0.1220
  182SLPC  H14A20809   4.884   2.239  11.233  0.0582 -2.2414 -2.3043
  182SLPC  H14B20810   4.726   2.261  11.188 -0.2382 -1.3481 -1.6342
  182SLPC  H14C20811   4.755   2.228  11.362 -0.5070  0.7747 -0.2407
  182SLPC   C1520812   4.652   2.008  11.305 -0.3990  0.0337  0.2227
  182SLPC  H15A20813   4.558   2.052  11.276 -1.2085 -2.7878 -1.5787
  182SLPC  H15B20814   4.646   1.902  11.287 -0.0607 -0.4782  2.9408
  182SLPC  H15C20815   4.653   2.010  11.413  0.1708 -0.5520  0.2281
  182SLPC   C1220816   4.788   2.013  11.106  0.2433 -0.4351  0.0003
  182SLPC  H12A20817   4.782   1.905  11.111  2.3683 -0.4977  1.8679
  182SLPC  H12B20818   4.886   2.041  11.071  0.5149 -0.6198  0.6075
  182SLPC   C1120819   4.684   2.053  11.000 -0.1805 -0.1267 -0.1778
  182SLPC  H11A20820   4.729   2.056  10.899  1.2563 -0.0132  0.4573
  182SLPC  H11B20821   4.657   2.161  11.009  1.4418  0.1523  1.5472
  182SLPC     P20822   4.572   1.846  10.930  0.2921  0.2467 -0.2649
  182SLPC   O1320823   4.693   1.760  10.958 -0.3946  0.2672 -0.9266
  182SLPC   O1420824   4.442   1.779  10.932  0.6000  0.4684 -0.0864
  182SLPC   O1220825   4.575   1.971  11.022  0.2953 -0.3742  0.1914
  182SLPC   O1120826   4.590   1.905  10.780  1.0461  0.1049 -0.4275
  182SLPC    C120827   4.495   2.006  10.742 -0.9285  0.3141 -0.3200
  182SLPC    HA20828   4.479   2.078  10.825  2.3214  1.1312 -0.3411
  182SLPC    HB20829   4.537   2.074  10.666  1.3320 -1.6545 -0.8896
  182SLPC    C220830   4.364   1.955  10.677 -0.8309 -0.0001  1.4966
  182SLPC    HS20831   4.333   1.874  10.746  0.9517  0.2356  2.6034
  182SLPC   O2120832   4.390   1.911  10.544 -0.5515  0.4054  0.5338
  182SLPC   C2120833   4.291   1.841  10.487  0.2820  0.8549  0.6545
  182SLPC   O2220834   4.195   1.794  10.546  0.1339 -0.2304 -0.0477
  182SLPC   C2220835   4.317   1.834  10.338 -0.0109  0.0039  0.7158
  182SLPC   H2R20836   4.302   1.932  10.288  0.6656 -0.0894  0.3162
  182SLPC   H2S20837   4.426   1.812  10.337 -0.0831 -0.3644 -2.4834
  182SLPC    C320838   4.255   2.064  10.683 -0.2301  0.3932  1.0882
  182SLPC    HX20839   4.239   2.100  10.787  0.1989  2.4264  0.4798
  182SLPC    HY20840   4.159   2.019  10.647 -1.0596 -0.0317  3.7587
  182SLPC   O3120841   4.301   2.171  10.602 -0.1206 -0.2172  0.1019
  182SLPC   C3120842   4.268   2.179  10.477 -0.0914  0.3570  0.2263
  182SLPC   O3220843   4.178   2.116  10.423  0.4874  0.1523 -0.0645
  182SLPC   C3220844   4.364   2.266  10.398  0.1393 -0.3975  0.0157
  182SLPC   H2X20845   4.408   2.340  10.469  0.9663 -1.1009  0.2381
  182SLPC   H2Y20846   4.311   2.321  10.317 -1.0031 -0.6388  0.5773
  182SLPC   C2320847   4.253   1.711  10.265  0.1577 -0.5242 -0.1343
  182SLPC   H3R20848   4.148   1.729  10.235  0.6027  3.3356  0.3333
  182SLPC   H3S20849   4.260   1.613  10.317 -1.4305 -0.1730  0.7652
  182SLPC   C2420850   4.333   1.681  10.137  0.0803  0.5175 -0.1774
  182SLPC   H4R20851   4.440   1.665  10.162  0.0546 -0.2445 -0.5412
  182SLPC   H4S20852   4.345   1.765  10.066  3.2415  0.3779  0.1264
  182SLPC   C2520853   4.290   1.558  10.062 -0.0523 -0.2253 -0.1049
  182SLPC   H5R20854   4.189   1.556  10.017  0.5245  1.7215 -1.5581
  182SLPC   H5S20855   4.289   1.476  10.137 -0.2389 -1.2781 -1.2429
  182SLPC   C2620856   4.390   1.496   9.962 -0.7183  1.1209  0.2815
  182SLPC   H6R20857   4.370   1.387   9.959 -4.3566  1.7233  0.5032
  182SLPC   H6S20858   4.494   1.523   9.989 -0.4728 -1.0114  1.6039
  182SLPC   C2720859   4.377   1.555   9.818  0.6842  0.4881 -0.2785
  182SLPC   H7R20860   4.367   1.665   9.821  2.1303  0.6003  1.1894
  182SLPC   H7S20861   4.275   1.528   9.783  0.6483 -0.9959  0.9016
  182SLPC   C2820862   4.484   1.510   9.715 -0.3981 -1.4278  0.0953
  182SLPC   H8R20863   4.579   1.554   9.753 -1.5006  4.2396 -3.1531
  182SLPC   H8S20864   4.478   1.576   9.626 -1.4203  1.4563  2.2438
  182SLPC   C2920865   4.499   1.363   9.694 -0.2949  0.1220  0.3153
  182SLPC   H9R20866   4.505   1.311   9.791 -1.5469 -1.6561 -0.5421
  182SLPC  C21020867   4.508   1.294   9.581  1.0499  0.1003  0.5317
  182SLPC  H10R20868   4.534   1.188   9.596  0.4016  0.0032  0.9919
  182SLPC  C21120869   4.478   1.348   9.444 -0.1442  0.0641 -0.4616
  182SLPC  H11R20870   4.385   1.407   9.455  0.2850  0.2866  2.2495
  182SLPC  H11S20871   4.457   1.257   9.385  0.5150 -0.0599 -0.5167
  182SLPC  C21220872   4.593   1.437   9.385  0.7145  0.3641  0.1656
  182SLPC  H12R20873   4.695   1.413   9.421 -0.5905 -1.6633  2.6841
  182SLPC  C21320874   4.569   1.514   9.281 -0.2025  0.4791 -0.4438
  182SLPC  H13R20875   4.659   1.559   9.236  0.6521 -1.0453 -0.2955
  182SLPC  C21420876   4.443   1.540   9.215 -0.1204  0.0605 -0.1735
  182SLPC  H14R20877   4.426   1.649   9.203  0.0757  0.0505 -0.5432
  182SLPC  H14S20878   4.358   1.508   9.278  0.6794 -1.0451  0.3786
  182SLPC  C21520879   4.417   1.482   9.077 -0.0920  0.9095  0.8018
  182SLPC  H15R20880   4.307   1.485   9.060 -0.0439  2.7868  0.7382
  182SLPC  H15S20881   4.442   1.374   9.071  2.7858  1.4929  1.7538
  182SLPC  C21620882   4.485   1.539   8.949  0.0829  0.1725 -0.2607
  182SLPC  H16R20883   4.594   1.527   8.968  0.0820  0.1933 -0.2473
  182SLPC  H16S20884   4.477   1.649   8.940  0.9874  0.0347 -3.3210
  182SLPC  C21720885   4.448   1.463   8.823 -0.0449 -0.8185 -0.1151
  182SLPC  H17R20886   4.338   1.450   8.826  0.0757 -1.7716  0.4617
  182SLPC  H17S20887   4.502   1.366   8.826 -1.4733 -1.6086  0.1271
  182SLPC  C21820888   4.491   1.540   8.698 -0.0595 -0.1923  0.2329
  182SLPC  H18R20889   4.599   1.567   8.696 -0.1408  0.2131  0.9043
  182SLPC  H18S20890   4.445   1.641   8.692  2.6553  1.1633  1.2519
  182SLPC  H18T20891   4.473   1.477   8.609 -4.5087  0.4752  0.5408
  182SLPC   C3320892   4.474   2.179  10.336  0.4795  0.5390  0.0237
  182SLPC   H3X20893   4.430   2.100  10.271 -0.0523  1.9203 -1.3312
  182SLPC   H3Y20894   4.544   2.130  10.407  0.4632 -0.7663 -0.8350
  182SLPC   C3420895   4.562   2.266  10.245 -0.6108 -0.1068 -0.4712
  182SLPC   H4X20896   4.628   2.184  10.212  1.5690  1.8242 -1.0572
  182SLPC   H4Y20897   4.610   2.337  10.317 -1.4623  0.5456 -0.5346
  182SLPC   C3520898   4.487   2.333  10.126 -0.3481 -1.0509 -0.1378
  182SLPC   H5X20899   4.409   2.400  10.166 -0.4965 -1.9378  1.0801
  182SLPC   H5Y20900   4.438   2.257  10.060 -0.6072 -1.1058  0.1190
  182SLPC   C3620901   4.585   2.420  10.044  0.1239 -0.6227 -0.1803
  182SLPC   H6X20902   4.658   2.355   9.990  0.5536 -1.6941  1.6551
  182SLPC   H6Y20903   4.645   2.495  10.100  0.4283 -1.9740  1.3571
  182SLPC   C3720904   4.510   2.510   9.935 -0.4020 -0.2687  0.4204
  182SLPC   H7X20905   4.460   2.590   9.994 -1.5245 -1.7007  1.4453
  182SLPC   H7Y20906   4.427   2.450   9.893 -1.7521  0.5383  1.8706
  182SLPC   C3820907   4.598   2.554   9.823  0.4233  0.3846  0.2632
  182SLPC   H8X20908   4.694   2.582   9.870  0.7594 -0.5804  0.1595
  182SLPC   H8Y20909   4.555   2.647   9.781 -0.7693  0.4212  1.5351
  182SLPC   C3920910   4.616   2.459   9.704  0.4551  0.5021 -0.0802
  182SLPC   H9X20911   4.514   2.429   9.671  0.4377  2.2524 -1.6853
  182SLPC   H9Y20912   4.665   2.371   9.751  1.0695  0.3815 -0.9562
  182SLPC  C31020913   4.696   2.519   9.593 -0.3522 -0.3022 -0.1204
  182SLPC  H10X20914   4.798   2.541   9.630 -1.1206  0.1876  1.7149
  182SLPC  H10Y20915   4.642   2.612   9.564 -1.1538 -1.4083 -2.3490
  182SLPC  C31120916   4.704   2.436   9.462  0.1176  0.0290  0.4235
  182SLPC  H11X20917   4.606   2.386   9.450  0.2566  0.3870 -2.5575
  182SLPC  H11Y20918   4.773   2.350   9.471  0.3494 -0.0719 -2.0877
  182SLPC  C31220919   4.734   2.514   9.330  0.0287 -0.8692 -0.2913
  182SLPC  H12X20920   4.833   2.561   9.347  0.2435 -0.8237 -1.6058
  182SLPC  H12Y20921   4.654   2.591   9.321  0.5016 -0.4729 -1.1515
  182SLPC  C31320922   4.747   2.417   9.213 -0.4448 -0.1025 -0.0171
  182SLPC  H13X20923   4.648   2.375   9.187  0.8969 -2.1356 -1.9550
  182SLPC  H13Y20924   4.814   2.332   9.237 -1.0634 -0.2683  1.1235
  182SLPC  C31420925   4.793   2.483   9.088  0.0339 -0.3356 -0.7059
  182SLPC  H14X20926   4.734   2.577   9.083  2.1035  0.9670 -1.3984
  182SLPC  H14Y20927   4.774   2.423   8.996  1.1934 -3.5650  1.0724
  182SLPC  C31520928   4.946   2.494   9.076  0.0281  0.7491 -0.3630
  182SLPC  H15X20929   4.987   2.391   9.087  0.8784  1.0067 -1.0372
  182SLPC  H15Y20930   4.998   2.547   9.158  2.7922 -1.2281 -0.7249
  182SLPC  C31620931   4.986   2.554   8.947  0.2111  0.1963  0.0157
  182SLPC  H16X20932   4.927   2.517   8.860 -0.4964 -1.2393  1.0744
  182SLPC  H16Y20933   5.092   2.532   8.919  0.2574  2.4589 -1.7517
  182SLPC  C31720934   4.967   2.705   8.950  0.5076 -0.1420  0.1216
  182SLPC  H17X20935   5.038   2.728   9.032  0.5395  2.5792 -0.6160
  182SLPC  H17Y20936   4.861   2.731   8.972  0.9344  1.9683 -0.2139
  182SLPC  C31820937   5.020   2.770   8.824  0.2753  0.1865  0.2877
  182SLPC  H18X20938   4.994   2.711   8.733  0.4595 -1.1831  1.1078
  182SLPC  H18Y20939   5.130   2.785   8.824  0.1698  1.1701 -2.0429
  182SLPC  H18Z20940   4.976   2.872   8.822  2.9268  1.3857  1.0069
  183SLPC     N20941   5.955   2.339  10.968  0.1409 -0.4782  0.1005
  183SLPC   C1320942   5.978   2.237  11.080 -0.3280  0.2654  0.2520
  183SLPC  H13A20943   6.009   2.144  11.035 -0.7334  0.0565  0.3981
  183SLPC  H13B20944   6.055   2.270  11.147  0.7062  1.8063 -1.6419
  183SLPC  H13C20945   5.888   2.211  11.134  0.5986 -1.8766  0.8168
  183SLPC   C1420946   5.859   2.278  10.869 -0.0039  0.3962 -0.0593
  183SLPC  H14A20947   5.847   2.347  10.787  0.6535  1.2358  0.5395
  183SLPC  H14B20948   5.891   2.182  10.829 -0.0620  0.5175 -0.3945
  183SLPC  H14C20949   5.764   2.276  10.920 -0.0608  2.6992 -0.0295
  183SLPC   C1520950   6.079   2.356  10.893 -0.2899  0.2189  0.4482
  183SLPC  H15A20951   6.123   2.258  10.880  0.9416  1.0344 -1.8072
  183SLPC  H15B20952   6.066   2.386  10.790  0.1584 -1.3057 -0.0729
  183SLPC  H15C20953   6.146   2.412  10.957  0.1368 -0.0673  0.2599
  183SLPC   C1220954   5.885   2.465  11.028 -0.1979  0.5078  0.8862
  183SLPC  H12A20955   5.805   2.428  11.091 -0.4938  0.4536  0.4845
  183SLPC  H12B20956   5.836   2.514  10.945  0.3750  0.1786  0.3506
  183SLPC   C1120957   5.964   2.579  11.103  0.1436 -0.1971 -0.2443
  183SLPC  H11A20958   6.056   2.530  11.141 -1.5571 -3.7640 -0.5002
  183SLPC  H11B20959   5.905   2.634  11.178 -1.3845  0.7181 -2.0846
  183SLPC     P20960   5.926   2.782  10.952 -0.4152 -0.6679  0.3492
  183SLPC   O1320961   5.808   2.727  10.885 -0.1677  0.3548 -0.4851
  183SLPC   O1420962   5.902   2.870  11.073  0.5252  0.5666  0.4459
  183SLPC   O1220963   6.015   2.663  10.999 -0.1267 -0.3051  0.0672
  183SLPC   O1120964   6.029   2.853  10.859 -0.0676  0.6191 -0.3940
  183SLPC    C120965   6.097   2.790  10.752 -0.0340  0.2212  0.0037
  183SLPC    HA20966   6.205   2.816  10.760 -0.0743  0.1582  0.7051
  183SLPC    HB20967   6.090   2.680  10.743 -0.7446  0.0645  2.2044
  183SLPC    C220968   6.063   2.855  10.615 -0.4275 -0.3474 -0.5685
  183SLPC    HS20969   5.971   2.802  10.582  0.4505 -2.1242 -0.2067
  183SLPC   O2120970   6.174   2.837  10.525  0.0189 -1.0374  0.2480
  183SLPC   C2120971   6.169   2.745  10.436 -0.5049 -0.8917  0.5462
  183SLPC   O2220972   6.093   2.653  10.421 -0.1953  0.2643  0.0051
  183SLPC   C2220973   6.285   2.781  10.334 -0.5568 -0.1634  0.4034
  183SLPC   H2R20974   6.286   2.892  10.322 -0.3886 -0.2840 -0.7169
  183SLPC   H2S20975   6.386   2.772  10.379  0.9610  2.8848 -2.1545
  183SLPC    C320976   6.027   3.001  10.634 -0.2575 -1.1012 -0.4424
  183SLPC    HX20977   6.109   3.057  10.684 -0.3977 -1.5902  0.3454
  183SLPC    HY20978   5.941   3.011  10.704 -0.1823  1.3703 -0.6690
  183SLPC   O3120979   5.988   3.058  10.512 -0.1829 -0.2418 -0.2059
  183SLPC   C3120980   6.084   3.125  10.436  0.0150  0.4589 -0.1094
  183SLPC   O3220981   6.200   3.144  10.465  0.0619 -0.1364  0.2583
  183SLPC   C3220982   6.011   3.168  10.306 -0.1450  0.7547  0.1602
  183SLPC   H2X20983   5.907   3.196  10.334 -0.6102 -2.1219  1.5917
  183SLPC   H2Y20984   5.995   3.078  10.243  0.7304  1.1754 -0.6694
  183SLPC   C2320985   6.270   2.708  10.199  0.0878 -0.0174  0.6269
  183SLPC   H3R20986   6.241   2.602  10.212  1.8114 -0.4350  1.2363
  183SLPC   H3S20987   6.365   2.711  10.142  0.3656 -1.2637  1.0054
  183SLPC   C2420988   6.158   2.779  10.118  0.6761 -0.2043  0.7721
  183SLPC   H4R20989   6.191   2.880  10.085  2.2641  0.0295  2.9865
  183SLPC   H4S20990   6.063   2.787  10.174  0.4670  2.9999  0.0373
  183SLPC   C2520991   6.115   2.700   9.993  0.3278 -0.1165 -0.4582
  183SLPC   H5R20992   6.018   2.741   9.959  0.2576  0.8430  0.8581
  183SLPC   H5S20993   6.086   2.596  10.018  2.5291 -0.3671  1.2191
  183SLPC   C2620994   6.210   2.703   9.873  0.3392  0.1141  0.8355
  183SLPC   H6R20995   6.187   2.623   9.799 -0.7856 -0.4978  1.8244
  183SLPC   H6S20996   6.314   2.681   9.907  0.3630 -0.9055  0.1557
  183SLPC   C2720997   6.185   2.839   9.796  0.2023 -0.4020  0.5885
  183SLPC   H7R20998   6.206   2.918   9.872 -0.1944  2.1202 -1.8429
  183SLPC   H7S20999   6.082   2.860   9.762  0.0223  0.6708  1.7689
  183SLPC   C2821000   6.280   2.853   9.677 -0.5972 -0.5114 -1.1792
  183SLPC   H8R21001   6.382   2.834   9.719 -1.2723 -0.3974  0.5458
  183SLPC   H8S21002   6.278   2.958   9.641  0.5338 -0.3798 -0.9080
  183SLPC   C2921003   6.237   2.761   9.564 -0.6696 -0.9536  0.3587
  183SLPC   H9R21004   6.128   2.752   9.547 -0.2526 -0.9807 -2.6019
  183SLPC  C21021005   6.330   2.701   9.486  0.1410  0.0222 -0.4117
  183SLPC  H10R21006   6.299   2.643   9.398 -0.1597  0.4334 -0.5753
  183SLPC  C21121007   6.481   2.702   9.498  0.5769  0.1877 -0.4993
  183SLPC  H11R21008   6.517   2.784   9.564  0.3449  0.0630 -0.2155
  183SLPC  H11S21009   6.526   2.741   9.404  1.1497  1.4658  0.2947
  183SLPC  C21221010   6.535   2.563   9.531  0.5168  0.5149 -0.3636
  183SLPC  H12R21011   6.511   2.489   9.453  2.6583 -0.1652 -0.3940
  183SLPC  C21321012   6.591   2.512   9.649 -0.2141 -0.4261 -0.2851
  183SLPC  H13R21013   6.633   2.410   9.648  0.3710 -0.1867 -1.0564
  183SLPC  C21421014   6.602   2.600   9.776  0.0733  0.2759 -0.1544
  183SLPC  H14R21015   6.538   2.691   9.769 -0.1520  0.0276 -1.4732
  183SLPC  H14S21016   6.708   2.633   9.785 -0.6330  2.3619  0.7337
  183SLPC  C21521017   6.563   2.536   9.910 -0.7505  0.2978 -0.3391
  183SLPC  H15R21018   6.596   2.430   9.923  0.3498  0.5358 -1.1480
  183SLPC  H15S21019   6.454   2.541   9.932 -0.1261  0.1205  2.9945
  183SLPC  C21621020   6.623   2.616  10.024  0.5569  0.2647 -0.3228
  183SLPC  H16R21021   6.574   2.714  10.042  1.0046  0.2602  0.9361
  183SLPC  H16S21022   6.728   2.647  10.005  0.3623  0.4758 -1.0900
  183SLPC  C21721023   6.618   2.549  10.163 -0.1922  0.6864 -0.2731
  183SLPC  H17R21024   6.667   2.450  10.151 -2.9772 -0.8619  0.7440
  183SLPC  H17S21025   6.514   2.523  10.192  0.0345  0.9086  0.7697
  183SLPC  C21821026   6.686   2.636  10.261 -0.0428 -0.2710  0.5925
  183SLPC  H18R21027   6.620   2.654  10.349 -0.3035 -0.8262  0.5123
  183SLPC  H18S21028   6.724   2.731  10.217  0.7019 -0.9648 -0.2872
  183SLPC  H18T21029   6.771   2.580  10.304  0.6690  1.0227  0.8825
  183SLPC   C3321030   6.092   3.265  10.220  0.4454  0.1708 -0.3227
  183SLPC   H3X21031   6.201   3.254  10.240  0.6818  1.8605 -0.6300
  183SLPC   H3Y21032   6.063   3.371  10.234 -0.7246 -0.0393 -1.1161
  183SLPC   C3421033   6.070   3.237  10.075 -0.1816  0.0745  0.4238
  183SLPC   H4X21034   5.965   3.259  10.046  0.6340  1.1226 -1.8579
  183SLPC   H4Y21035   6.091   3.128  10.075  2.5807  0.5617  0.2520
  183SLPC   C3521036   6.169   3.295   9.979  0.0469  0.1127 -0.1141
  183SLPC   H5X21037   6.275   3.275  10.005  0.0588 -1.8901 -1.6186
  183SLPC   H5Y21038   6.157   3.405   9.991  2.0668  0.4890 -1.2486
  183SLPC   C3621039   6.136   3.269   9.836  0.1159  0.3994  0.2256
  183SLPC   H6X21040   6.034   3.304   9.812  0.0714 -0.1436 -0.3986
  183SLPC   H6Y21041   6.126   3.162   9.810 -0.5641  0.6851 -0.6985
  183SLPC   C3721042   6.231   3.328   9.735 -0.1753  0.6564  0.7277
  183SLPC   H7X21043   6.335   3.305   9.766  0.0474  0.9757  0.2342
  183SLPC   H7Y21044   6.219   3.438   9.739 -1.8180  0.6322 -2.2317
  183SLPC   C3821045   6.206   3.276   9.589 -0.0041 -0.2681 -0.1490
  183SLPC   H8X21046   6.112   3.320   9.550  1.4138  2.0896 -1.0468
  183SLPC   H8Y21047   6.213   3.166   9.598 -0.2959 -0.0289  3.9643
  183SLPC   C3921048   6.317   3.316   9.492 -0.1468 -0.1609  0.8222
  183SLPC   H9X21049   6.414   3.268   9.518 -1.0583 -3.4093 -1.4245
  183SLPC   H9Y21050   6.343   3.424   9.495  0.7695 -0.2634 -1.6187
  183SLPC  C31021051   6.279   3.262   9.354  0.4871 -0.0154  0.4367
  183SLPC  H10X21052   6.354   3.301   9.283  0.3530  0.9821  0.8414
  183SLPC  H10Y21053   6.183   3.315   9.336  0.8529 -0.0801 -1.8635
  183SLPC  C31121054   6.266   3.113   9.343  0.9671  0.4549  0.8287
  183SLPC  H11X21055   6.179   3.074   9.400  1.7401 -1.6892  0.6049
  183SLPC  H11Y21056   6.352   3.043   9.354 -1.5928 -2.7601  1.2263
  183SLPC  C31221057   6.216   3.072   9.199 -0.0178 -0.0207  0.2612
  183SLPC  H12X21058   6.294   3.070   9.119 -0.1372 -1.3157  0.1744
  183SLPC  H12Y21059   6.147   3.151   9.162 -1.6657 -1.4445  0.3029
  183SLPC  C31321060   6.144   2.941   9.194 -0.2781  0.5388 -0.2886
  183SLPC  H13X21061   6.038   2.948   9.225 -0.4307 -0.6741 -0.4972
  183SLPC  H13Y21062   6.194   2.870   9.263 -2.1705  1.5645  2.1686
  183SLPC  C31421063   6.148   2.876   9.053  0.2460 -0.6920 -0.7081
  183SLPC  H14X21064   6.083   2.786   9.053 -0.8079  0.0160  1.9530
  183SLPC  H14Y21065   6.252   2.847   9.029  1.2245  2.5743 -0.6911
  183SLPC  C31521066   6.108   2.973   8.942  0.2382  0.1092  0.7467
  183SLPC  H15X21067   6.188   3.048   8.921  0.4305 -0.1010  0.7204
  183SLPC  H15Y21068   6.023   3.034   8.979 -0.9817 -0.6371 -0.7876
  183SLPC  C31621069   6.090   2.894   8.807  0.1605  0.3814  0.1366
  183SLPC  H16X21070   6.172   2.820   8.815  0.4009  0.4977 -1.2520
  183SLPC  H16Y21071   6.102   2.954   8.715 -0.9222  0.9029  0.3181
  183SLPC  C31721072   5.963   2.814   8.808 -0.1525 -0.1184  0.8591
  183SLPC  H17X21073   5.882   2.880   8.847  0.2255  1.7134 -1.3930
  183SLPC  H17Y21074   5.968   2.727   8.877  0.8607 -0.4838  0.3216
  183SLPC  C31821075   5.923   2.764   8.673 -0.1895 -0.5659 -0.3702
  183SLPC  H18X21076   5.818   2.726   8.669 -0.4159 -0.3696  2.8624
  183SLPC  H18Y21077   5.993   2.684   8.642 -0.2707 -0.0180 -2.0275
  183SLPC  H18Z21078   5.922   2.839   8.590  4.3529  0.4291  0.3331
  184SLPC     N21079   1.679   0.422  10.674  0.0837 -0.4456 -0.5575
  184SLPC   C1321080   1.589   0.492  10.771 -0.6576  0.0816 -0.1695
  184SLPC  H13A21081   1.652   0.535  10.847 -2.0918  1.5838  0.1713
  184SLPC  H13B21082   1.540   0.576  10.724  0.6945  1.0004  0.0372
  184SLPC  H13C21083   1.517   0.430  10.823 -1.8324  1.6415  0.0698
  184SLPC   C1421084   1.599   0.370  10.557 -0.0155  0.2007  0.5641
  184SLPC  H14A21085   1.514   0.322  10.603  0.4580 -1.7002 -0.5334
  184SLPC  H14B21086   1.570   0.441  10.481  2.5286  1.7996  1.0296
  184SLPC  H14C21087   1.652   0.299  10.497  0.3045  0.4673  0.5286
  184SLPC   C1521088   1.754   0.315  10.746 -0.1857  0.6246 -0.3202
  184SLPC  H15A21089   1.684   0.236  10.768  0.5806  1.0593  4.1156
  184SLPC  H15B21090   1.817   0.275  10.667 -0.4853 -1.2231  0.3452
  184SLPC  H15C21091   1.822   0.344  10.825 -2.2084  3.9064  0.2959
  184SLPC   C1221092   1.782   0.521  10.625 -0.1647 -0.1180 -0.3305
  184SLPC  H12A21093   1.727   0.592  10.565 -0.0683  1.4532  1.3956
  184SLPC  H12B21094   1.855   0.466  10.567  3.6809 -0.0419  4.0980
  184SLPC   C1121095   1.858   0.592  10.736  0.4858 -0.1082  0.5787
  184SLPC  H11A21096   1.890   0.533  10.824 -0.6008 -0.1566  0.9469
  184SLPC  H11B21097   1.789   0.665  10.783  0.0446  1.1309 -1.9079
  184SLPC     P21098   2.127   0.623  10.690  0.6185 -0.5067  0.3328
  184SLPC   O1321099   2.191   0.741  10.754  0.7197 -0.0084 -0.7788
  184SLPC   O1421100   2.152   0.495  10.760  0.3865  0.6914  0.3687
  184SLPC   O1221101   1.972   0.655  10.676  0.2742  0.2346 -0.1876
  184SLPC   O1121102   2.177   0.610  10.535  0.2123  0.4932 -0.2158
  184SLPC    C121103   2.125   0.509  10.458  0.2696 -0.4561  0.0998
  184SLPC    HA21104   2.214   0.459  10.415  1.4120  2.3584 -0.9392
  184SLPC    HB21105   2.057   0.438  10.510  1.4834 -2.1821 -0.6459
  184SLPC    C221106   2.046   0.573  10.339  0.4988 -0.0766  0.1604
  184SLPC    HS21107   2.118   0.626  10.275  2.6742  0.0031  2.5816
  184SLPC   O2121108   1.933   0.659  10.380 -0.2123  0.5963  0.3597
  184SLPC   C2121109   1.936   0.780  10.333  0.9691 -0.3920  0.9522
  184SLPC   O2221110   2.034   0.829  10.282  0.2018 -0.5860 -0.6237
  184SLPC   C2221111   1.797   0.852  10.357 -0.0221  0.3126  0.0646
  184SLPC   H2R21112   1.718   0.776  10.339  1.4639 -1.3792  0.5224
  184SLPC   H2S21113   1.781   0.864  10.467 -2.8222 -1.0817 -0.1339
  184SLPC    C321114   1.986   0.458  10.250 -0.1267 -0.5868  0.3431
  184SLPC    HX21115   1.906   0.415  10.314  0.1577  0.1688  1.2312
  184SLPC    HY21116   2.057   0.373  10.246 -1.3051 -1.5942  0.6539
  184SLPC   O3121117   1.932   0.493  10.119  0.0310  0.3130 -0.0479
  184SLPC   C3121118   2.016   0.487  10.020  0.0680 -0.8376  0.2087
  184SLPC   O3221119   2.132   0.444  10.024  0.2294 -0.0952 -0.8318
  184SLPC   C3221120   1.954   0.529   9.892  0.0685  0.1454  0.0740
  184SLPC   H2X21121   1.963   0.639   9.884  0.8257  0.1361  0.6980
  184SLPC   H2Y21122   1.846   0.502   9.898 -0.6647  2.1749 -2.7171
  184SLPC   C2321123   1.764   0.983  10.293  0.5395  0.1204 -0.3363
  184SLPC   H3R21124   1.851   1.052  10.298 -0.5113  1.3887  0.7735
  184SLPC   H3S21125   1.678   1.025  10.350 -0.8438  1.2062 -3.1499
  184SLPC   C2421126   1.727   0.994  10.141  0.2434 -0.4940 -0.0654
  184SLPC   H4R21127   1.701   1.100  10.120  1.0183 -0.4259 -0.7138
  184SLPC   H4S21128   1.634   0.935  10.134  0.0494  0.0787 -2.9262
  184SLPC   C2521129   1.828   0.959  10.034 -0.2507  0.5187 -0.6637
  184SLPC   H5R21130   1.858   0.853  10.039 -0.3552  0.3307 -3.2141
  184SLPC   H5S21131   1.919   1.020  10.049  0.4080 -1.0309  1.7045
  184SLPC   C2621132   1.765   0.986   9.899 -0.1652  0.0466  0.0514
  184SLPC   H6R21133   1.732   1.092   9.909  1.7739  0.4293  3.0652
  184SLPC   H6S21134   1.674   0.921   9.897  0.4740 -0.9119  1.4379
  184SLPC   C2721135   1.859   0.956   9.781 -0.8385 -0.4294  0.2713
  184SLPC   H7R21136   1.917   0.863   9.799 -0.2006  0.5266  3.4410
  184SLPC   H7S21137   1.928   1.042   9.793 -2.8548  1.3892 -0.7644
  184SLPC   C2821138   1.810   0.974   9.642 -0.7249 -0.2693  0.2005
  184SLPC   H8R21139   1.886   0.965   9.561 -1.9526 -2.2840 -0.7751
  184SLPC   H8S21140   1.768   1.076   9.635  0.2878  0.0581 -1.6084
  184SLPC   C2921141   1.699   0.882   9.606  0.1782  0.4641  0.6255
  184SLPC   H9R21142   1.662   0.827   9.693  1.6966 -1.8211 -0.0998
  184SLPC  C21021143   1.645   0.861   9.476  0.0162  0.3550 -0.4934
  184SLPC  H10R21144   1.570   0.782   9.460 -0.5383  1.0000 -1.1471
  184SLPC  C21121145   1.680   0.936   9.346  0.1834 -0.1910  0.2196
  184SLPC  H11R21146   1.765   1.007   9.354  0.4535 -0.4030 -0.7155
  184SLPC  H11S21147   1.593   0.987   9.300 -0.6739 -1.7421  0.0879
  184SLPC  C21221148   1.728   0.834   9.247  0.3302 -0.4936 -0.0770
  184SLPC  H12R21149   1.787   0.749   9.284 -1.1522 -0.5023  2.3423
  184SLPC  C21321150   1.704   0.833   9.114 -0.4557 -0.0221  0.3638
  184SLPC  H13R21151   1.743   0.748   9.057 -1.1367 -1.3592  1.8569
  184SLPC  C21421152   1.630   0.928   9.029  0.7070  0.4271  0.3959
  184SLPC  H14R21153   1.631   1.028   9.077  1.3199 -0.0436  1.3723
  184SLPC  H14S21154   1.526   0.901   9.002  0.8598  0.5488 -0.3494
  184SLPC  C21521155   1.683   0.943   8.886  0.1647 -0.1809 -0.0659
  184SLPC  H15R21156   1.786   0.982   8.897 -0.4877  1.2523  1.2001
  184SLPC  H15S21157   1.620   1.026   8.847  1.1731  0.8127  0.3950
  184SLPC  C21621158   1.657   0.828   8.793  0.5113  0.1658  0.0527
  184SLPC  H16R21159   1.553   0.796   8.816 -0.4315  2.3444 -1.0349
  184SLPC  H16S21160   1.733   0.751   8.815 -0.0012  0.2274  2.1382
  184SLPC  C21721161   1.667   0.866   8.647  0.0579 -0.5059 -0.5879
  184SLPC  H17R21162   1.769   0.895   8.616  0.3919 -0.6497  0.3564
  184SLPC  H17S21163   1.601   0.953   8.626  0.4525  0.0152  0.3163
  184SLPC  C21821164   1.632   0.760   8.540 -0.4094 -0.0405  0.8397
  184SLPC  H18R21165   1.522   0.751   8.550 -0.6879  0.8738 -1.0721
  184SLPC  H18S21166   1.688   0.669   8.570 -0.7638 -0.0978  1.3227
  184SLPC  H18T21167   1.663   0.801   8.441  0.6749  0.5756  1.4216
  184SLPC   C3321168   2.035   0.454   9.776 -0.1183  0.2619 -0.0700
  184SLPC   H3X21169   2.026   0.344   9.783 -1.6229  0.4125  0.5536
  184SLPC   H3Y21170   2.146   0.461   9.780  0.2268 -3.2604 -1.9618
  184SLPC   C3421171   1.977   0.501   9.644 -0.6561  0.1474  0.0178
  184SLPC   H4X21172   1.957   0.609   9.628  0.4274  0.5134  1.1055
  184SLPC   H4Y21173   1.873   0.461   9.650 -1.0366  1.2729  1.0773
  184SLPC   C3521174   2.037   0.441   9.517 -0.1549 -0.2891  0.2580
  184SLPC   H5X21175   2.008   0.334   9.505  1.7352 -0.5493 -2.6744
  184SLPC   H5Y21176   2.148   0.452   9.525 -0.1404  0.5029 -0.9102
  184SLPC   C3621177   1.974   0.500   9.392 -0.1750  0.9464 -0.1297
  184SLPC   H6X21178   2.010   0.602   9.367 -0.3780  0.8287 -0.8976
  184SLPC   H6Y21179   1.863   0.499   9.393 -0.1669  0.5927  1.3182
  184SLPC   C3721180   2.027   0.432   9.259 -0.5339 -0.2941 -0.1124
  184SLPC   H7X21181   2.006   0.322   9.258 -1.3550 -0.1391 -0.4531
  184SLPC   H7Y21182   2.137   0.427   9.255 -0.6141 -0.5343 -2.8757
  184SLPC   C3821183   1.969   0.489   9.128  0.1251 -0.5808  0.0532
  184SLPC   H8X21184   1.967   0.600   9.123  3.2823 -0.3800  1.5260
  184SLPC   H8Y21185   1.861   0.465   9.132 -0.4720  2.0668  1.5579
  184SLPC   C3921186   2.038   0.439   9.002  0.5406  0.0725  0.8704
  184SLPC   H9X21187   2.046   0.329   9.004  2.3515  0.0369 -2.8819
  184SLPC   H9Y21188   2.142   0.478   9.007  0.8637 -0.6599 -0.1255
  184SLPC  C31021189   1.962   0.498   8.886 -0.5910 -0.0940  0.1233
  184SLPC  H10X21190   1.968   0.609   8.889  1.3108 -0.1254 -1.8406
  184SLPC  H10Y21191   1.853   0.480   8.897 -0.5223 -0.8867 -0.4562
  184SLPC  C31121192   2.013   0.447   8.749 -0.1780 -0.4823  0.5559
  184SLPC  H11X21193   1.931   0.471   8.679 -0.6538  1.5556  1.7577
  184SLPC  H11Y21194   2.023   0.337   8.751  1.1876 -0.3666  1.4000
  184SLPC  C31221195   2.153   0.504   8.709  0.4131  0.0562 -0.1443
  184SLPC  H12X21196   2.183   0.460   8.612 -1.2336 -1.4123 -0.0168
  184SLPC  H12Y21197   2.230   0.474   8.784  0.6635  0.7461 -0.1241
  184SLPC  C31321198   2.158   0.662   8.702  0.7470  0.4202 -0.2425
  184SLPC  H13X21199   2.265   0.691   8.702  0.2249  2.5067 -2.1972
  184SLPC  H13Y21200   2.110   0.707   8.792  1.1128  1.3772 -0.5153
  184SLPC  C31421201   2.091   0.720   8.572 -0.4820  0.1114 -0.5077
  184SLPC  H14X21202   2.076   0.828   8.595 -0.7216  0.2476 -1.2788
  184SLPC  H14Y21203   1.994   0.669   8.552  0.2194 -0.8904 -1.3998
  184SLPC  C31521204   2.167   0.702   8.442  0.4602  0.1049 -0.2615
  184SLPC  H15X21205   2.116   0.752   8.357  2.2000  0.3571 -1.1824
  184SLPC  H15Y21206   2.168   0.591   8.437  3.3844  0.1020 -0.4635
  184SLPC  C31621207   2.317   0.743   8.446 -0.0288  0.3533  0.3031
  184SLPC  H16X21208   2.372   0.712   8.537  1.8302  0.2448 -0.8476
  184SLPC  H16Y21209   2.306   0.853   8.434  0.7072  0.4970  0.9370
  184SLPC  C31721210   2.394   0.687   8.323  0.2427  0.1159 -0.3769
  184SLPC  H17X21211   2.407   0.577   8.317 -1.1589 -0.3359  3.5320
  184SLPC  H17Y21212   2.499   0.721   8.336 -0.2465  1.6722 -0.4618
  184SLPC  C31821213   2.337   0.727   8.185  0.1516 -0.3509 -0.8451
  184SLPC  H18X21214   2.238   0.679   8.166  0.6593 -0.4693 -3.3257
  184SLPC  H18Y21215   2.407   0.709   8.101  1.4779  2.3234 -0.3695
  184SLPC  H18Z21216   2.315   0.836   8.184  0.9156 -0.1998 -1.7635
  185SLPC     N21217   6.054   4.496   6.274 -0.0402 -0.5128 -0.3910
  185SLPC   C1321218   6.123   4.596   6.186 -0.2177 -0.0079 -0.2640
  185SLPC  H13A21219   6.114   4.694   6.230  3.9742  1.2732 -1.9830
  185SLPC  H13B21220   6.229   4.582   6.203 -0.0850  1.5241  0.2536
  185SLPC  H13C21221   6.100   4.576   6.083 -0.3777  0.6590 -0.3597
  185SLPC   C1421222   6.080   4.363   6.217  0.3476  0.3776 -0.2765
  185SLPC  H14A21223   6.170   4.320   6.259  0.7061 -0.3591 -1.7362
  185SLPC  H14B21224   6.002   4.291   6.232  0.4937  0.3583  0.4069
  185SLPC  H14C21225   6.106   4.361   6.112 -1.2871  3.6156 -0.7833
  185SLPC   C1521226   5.910   4.527   6.269  0.6177  0.7086 -0.2099
  185SLPC  H15A21227   5.892   4.619   6.322 -0.2469 -0.0976  0.9028
  185SLPC  H15B21228   5.863   4.525   6.171 -1.1540  0.6124  0.6302
  185SLPC  H15C21229   5.847   4.466   6.332 -0.9000  0.9988 -1.4112
  185SLPC   C1221230   6.098   4.508   6.425 -0.1737 -0.4867  0.3018
  185SLPC  H12A21231   6.026   4.450   6.482 -1.2875  0.1423 -0.4571
  185SLPC  H12B21232   6.077   4.607   6.461  0.5479  0.2172 -1.1703
  185SLPC   C1121233   6.243   4.455   6.463  0.0918 -0.6637  0.7889
  185SLPC  H11A21234   6.262   4.492   6.567 -0.4458  0.2877  0.5559
  185SLPC  H11B21235   6.310   4.504   6.389  0.4145  0.8288  2.0296
  185SLPC     P21236   6.173   4.212   6.544  0.5872 -0.3480 -0.0885
  185SLPC   O1321237   6.035   4.203   6.502  0.1576 -0.5309 -0.2270
  185SLPC   O1421238   6.246   4.080   6.560 -0.0075 -0.1698  0.1797
  185SLPC   O1221239   6.258   4.311   6.457  0.0331 -0.2154 -0.4477
  185SLPC   O1121240   6.174   4.293   6.683 -0.0903  0.1358  0.2031
  185SLPC    C121241   6.313   4.303   6.744  0.9340 -0.1557  0.0455
  185SLPC    HA21242   6.396   4.263   6.682 -0.5987 -0.1754 -2.0725
  185SLPC    HB21243   6.346   4.409   6.754  0.6725 -0.1109  0.4499
  185SLPC    C221244   6.340   4.235   6.878  0.3564 -0.2639 -0.0858
  185SLPC    HS21245   6.380   4.132   6.870 -2.7287 -1.5035 -0.3895
  185SLPC   O2121246   6.221   4.249   6.952 -0.0214  0.3159  0.1507
  185SLPC   C2121247   6.143   4.153   6.942  0.5808  0.6938 -0.7997
  185SLPC   O2221248   6.168   4.045   6.889  0.1842 -0.6136  0.8207
  185SLPC   C2221249   6.014   4.175   7.026  0.3437  0.3216  0.2105
  185SLPC   H2R21250   6.036   4.249   7.107  1.6790  0.4010 -0.2078
  185SLPC   H2S21251   5.939   4.220   6.958 -0.7684  1.1883  1.9546
  185SLPC    C321252   6.450   4.322   6.947 -0.4167  0.7734 -0.4451
  185SLPC    HX21253   6.410   4.425   6.964 -0.0862  0.7367  0.5754
  185SLPC    HY21254   6.528   4.326   6.867  0.6604  1.5909  0.6201
  185SLPC   O3121255   6.500   4.262   7.066 -0.0345 -0.1429 -0.2740
  185SLPC   C3121256   6.594   4.331   7.136 -0.1136 -0.1304  0.5929
  185SLPC   O3221257   6.641   4.439   7.096  0.0832 -0.3929 -0.6050
  185SLPC   C3221258   6.636   4.246   7.252  0.3002  0.0319  0.2215
  185SLPC   H2X21259   6.719   4.301   7.301  2.2183 -1.9292 -0.7365
  185SLPC   H2Y21260   6.687   4.156   7.212 -2.3007 -1.7692  0.8531
  185SLPC   C2321261   5.952   4.044   7.080 -0.1657 -0.2023 -0.7347
  185SLPC   H3R21262   5.966   3.961   7.007  1.6104  0.6046 -1.3431
  185SLPC   H3S21263   5.843   4.052   7.097 -0.1045 -0.2621 -0.3009
  185SLPC   C2421264   6.010   4.015   7.221 -0.1792 -0.8498 -0.4139
  185SLPC   H4R21265   5.951   3.933   7.268 -0.6907 -0.3436 -0.1655
  185SLPC   H4S21266   6.012   4.103   7.289  2.9994 -1.4303  0.3074
  185SLPC   C2521267   6.162   3.972   7.225 -0.2032  0.0516 -0.2528
  185SLPC   H5R21268   6.226   4.026   7.152  1.5742 -1.4411  0.1776
  185SLPC   H5S21269   6.169   3.863   7.205  0.8703  0.4887 -2.4943
  185SLPC   C2621270   6.214   3.996   7.362  0.0823  0.7620  0.0314
  185SLPC   H6R21271   6.216   4.106   7.378 -1.1389  0.8244 -0.2054
  185SLPC   H6S21272   6.322   3.969   7.358  0.7422  3.3665 -0.9244
  185SLPC   C2721273   6.137   3.915   7.472  0.2236  0.3383 -0.4435
  185SLPC   H7R21274   6.149   3.810   7.439 -1.3021  0.2409 -0.6901
  185SLPC   H7S21275   6.029   3.936   7.466 -0.4564 -2.0992  2.1902
  185SLPC   C2821276   6.191   3.940   7.612  0.2551  0.3952  0.0925
  185SLPC   H8R21277   6.301   3.924   7.610  0.1425 -0.5188  0.8201
  185SLPC   H8S21278   6.149   3.866   7.683 -0.3377  1.8455  1.2808
  185SLPC   C2921279   6.164   4.073   7.667 -0.2132 -0.3127 -0.4369
  185SLPC   H9R21280   6.171   4.151   7.591 -2.8358 -0.2933 -0.7159
  185SLPC  C21021281   6.119   4.101   7.793  0.2796 -0.1213 -0.7118
  185SLPC  H10R21282   6.116   4.210   7.808 -0.1408  0.0397 -1.9171
  185SLPC  C21121283   6.083   4.017   7.915  0.5753  0.2167  0.2634
  185SLPC  H11R21284   6.169   4.014   7.986  0.9571 -1.3944 -0.2416
  185SLPC  H11S21285   6.047   3.915   7.889  1.5208  0.1849 -1.0146
  185SLPC  C21221286   5.968   4.083   7.986  0.5904 -0.6565 -1.1029
  185SLPC  H12R21287   5.871   4.054   7.942 -0.0104 -1.1986  0.5547
  185SLPC  C21321288   5.965   4.155   8.101  0.0394  0.1097  0.2319
  185SLPC  H13R21289   5.872   4.198   8.142 -0.2599 -0.2158 -0.1017
  185SLPC  C21421290   6.085   4.192   8.189  0.1390  0.3266 -0.0493
  185SLPC  H14R21291   6.070   4.292   8.234 -0.0266 -0.2893  1.2933
  185SLPC  H14S21292   6.175   4.206   8.125  0.9267 -2.2542  0.4429
  185SLPC  C21521293   6.121   4.102   8.315 -0.1291  0.0490  0.5265
  185SLPC  H15R21294   6.214   4.151   8.352  0.2472 -1.6059  1.8441
  185SLPC  H15S21295   6.136   4.000   8.273 -0.8368 -0.2568  0.9998
  185SLPC  C21621296   6.008   4.102   8.416  0.1151  0.1168 -0.2389
  185SLPC  H16R21297   5.924   4.038   8.382 -0.0411  0.7027 -0.9738
  185SLPC  H16S21298   5.960   4.202   8.430  0.7437  0.5278 -0.9742
  185SLPC  C21721299   6.057   4.067   8.560  0.3520 -0.0441 -1.2174
  185SLPC  H17R21300   6.159   4.110   8.571  0.0809  0.3058  0.0479
  185SLPC  H17S21301   6.070   3.957   8.560  0.6408 -0.0121 -1.4206
  185SLPC  C21821302   5.963   4.130   8.671 -0.5033 -1.1818 -0.2925
  185SLPC  H18R21303   5.955   4.240   8.663 -0.6834 -1.0711  1.2663
  185SLPC  H18S21304   5.999   4.112   8.774  0.3257 -0.2728 -0.4179
  185SLPC  H18T21305   5.860   4.092   8.654 -1.5127  0.4049  1.9959
  185SLPC   C3321306   6.513   4.231   7.347 -0.6594  0.3268  0.9316
  185SLPC   H3X21307   6.540   4.160   7.428 -0.0250  0.7367  1.0831
  185SLPC   H3Y21308   6.437   4.174   7.289  0.3488  0.5103 -0.6133
  185SLPC   C3421309   6.448   4.370   7.389  0.4298 -0.4757  0.0375
  185SLPC   H4X21310   6.365   4.339   7.456 -0.5655  2.9131  0.4623
  185SLPC   H4Y21311   6.401   4.429   7.308  1.8648  0.1556 -0.3553
  185SLPC   C3521312   6.544   4.451   7.474 -0.3644  0.1194  0.4938
  185SLPC   H5X21313   6.496   4.545   7.506 -3.1696 -1.6746  1.7267
  185SLPC   H5Y21314   6.630   4.468   7.406 -1.6136 -1.0140 -1.4315
  185SLPC   C3621315   6.590   4.386   7.607  0.1678 -0.4757 -0.4473
  185SLPC   H6X21316   6.656   4.462   7.654 -0.5828 -1.0225  1.5350
  185SLPC   H6Y21317   6.648   4.292   7.589 -0.1321 -1.1489  1.9894
  185SLPC   C3721318   6.473   4.370   7.712 -0.0415 -0.1949  0.7281
  185SLPC   H7X21319   6.414   4.281   7.682  0.2161  0.0329 -0.4616
  185SLPC   H7Y21320   6.417   4.465   7.697  0.4158 -0.3928 -2.6640
  185SLPC   C3821321   6.519   4.348   7.851  0.6378  0.3045  0.8075
  185SLPC   H8X21322   6.428   4.340   7.915 -1.0919  0.2238 -1.6150
  185SLPC   H8Y21323   6.573   4.441   7.877  0.9462 -0.0238  1.3760
  185SLPC   C3921324   6.596   4.218   7.881  0.8491  0.3084 -0.8045
  185SLPC   H9X21325   6.690   4.206   7.824  1.1659  0.1633 -0.2534
  185SLPC   H9Y21326   6.527   4.143   7.837  0.5229 -0.1979  0.5346
  185SLPC  C31021327   6.620   4.186   8.031  0.6525  0.1165 -0.4549
  185SLPC  H10X21328   6.555   4.251   8.092 -2.9770 -0.8820 -3.0624
  185SLPC  H10Y21329   6.724   4.213   8.058 -0.0703  2.1976  0.2746
  185SLPC  C31121330   6.587   4.043   8.073 -0.1933  0.0973 -0.0094
  185SLPC  H11X21331   6.639   3.970   8.007  1.3659  0.6751  0.5737
  185SLPC  H11Y21332   6.478   4.024   8.060  0.0894 -0.9984 -0.8755
  185SLPC  C31221333   6.608   4.011   8.225 -0.6494  0.2157  0.1645
  185SLPC  H12X21334   6.559   4.094   8.282  1.0408  1.0718  0.4058
  185SLPC  H12Y21335   6.717   3.993   8.240 -0.5203  0.4412 -0.4942
  185SLPC  C31321336   6.524   3.893   8.264  0.6478 -0.3665 -0.2723
  185SLPC  H13X21337   6.550   3.801   8.207 -1.0731 -0.7707 -0.4631
  185SLPC  H13Y21338   6.418   3.912   8.234  0.5559  2.2919  1.5606
  185SLPC  C31421339   6.528   3.871   8.416 -0.2557  0.4140 -0.0297
  185SLPC  H14X21340   6.432   3.834   8.458  0.6030 -1.9536 -0.1026
  185SLPC  H14Y21341   6.549   3.969   8.464  2.0971 -0.3606  0.5883
  185SLPC  C31521342   6.635   3.773   8.449  0.2040  0.6313  0.1895
  185SLPC  H15X21343   6.619   3.746   8.556 -1.2775 -1.4179 -0.5322
  185SLPC  H15Y21344   6.738   3.806   8.426  0.5927 -1.2888 -0.8833
  185SLPC  C31621345   6.623   3.632   8.378  0.0602  0.6953 -0.2537
  185SLPC  H16X21346   6.710   3.582   8.426  0.5874  1.1816 -0.6831
  185SLPC  H16Y21347   6.637   3.642   8.268  1.8858  0.2586 -0.0855
  185SLPC  C31721348   6.487   3.569   8.403  0.4780  0.0934  0.3779
  185SLPC  H17X21349   6.412   3.646   8.375 -0.4024 -0.5530  0.9054
  185SLPC  H17Y21350   6.474   3.546   8.511  0.1698 -2.3948 -0.1500
  185SLPC  C31821351   6.481   3.433   8.330 -0.7160 -0.6712 -0.0603
  185SLPC  H18X21352   6.564   3.363   8.353  0.9150  1.4499  0.6473
  185SLPC  H18Y21353   6.482   3.465   8.223  1.4568 -0.9900 -0.1423
  185SLPC  H18Z21354   6.378   3.395   8.347 -1.0204  0.2218  0.1414
  186SLPC     N21355   0.602   6.067   6.333 -0.0040 -0.4013  0.4304
  186SLPC   C1321356   0.574   6.096   6.186  0.6938 -0.7540 -0.0910
  186SLPC  H13A21357   0.539   6.009   6.133  0.2261 -1.4755  1.3642
  186SLPC  H13B21358   0.493   6.168   6.181  0.2174 -1.2983 -0.2923
  186SLPC  H13C21359   0.649   6.156   6.137  0.3567 -1.2610 -1.2424
  186SLPC   C1421360   0.701   5.957   6.345  0.0206 -0.4970  0.3739
  186SLPC  H14A21361   0.672   5.867   6.292  0.7725 -1.5395  1.7134
  186SLPC  H14B21362   0.793   5.981   6.293 -1.0464 -0.3691 -1.5142
  186SLPC  H14C21363   0.721   5.923   6.445  2.7194  0.9188  0.3834
  186SLPC   C1521364   0.471   6.029   6.396  0.4022 -1.0938 -0.1353
  186SLPC  H15A21365   0.483   6.022   6.503 -1.1545 -3.0750 -0.0566
  186SLPC  H15B21366   0.390   6.099   6.381 -0.6119 -2.3253 -0.5430
  186SLPC  H15C21367   0.432   5.937   6.355  0.8533 -1.4043  0.1349
  186SLPC   C1221368   0.662   6.192   6.412  0.6191 -0.0267 -0.0018
  186SLPC  H12A21369   0.764   6.214   6.382 -0.3437  4.2113 -0.5253
  186SLPC  H12B21370   0.684   6.165   6.514 -0.7704 -0.9399  0.0737
  186SLPC   C1121371   0.582   6.325   6.411 -1.0252  0.1909 -0.0326
  186SLPC  H11A21372   0.647   6.406   6.451 -1.6803  0.4167  0.6007
  186SLPC  H11B21373   0.497   6.319   6.483  1.0272 -1.5442  2.3098
  186SLPC     P21374   0.403   6.413   6.251  0.5510 -0.1298 -0.2032
  186SLPC   O1321375   0.379   6.535   6.333  0.1013  0.2667  0.4150
  186SLPC   O1421376   0.373   6.433   6.108 -0.4436  0.2608  0.3419
  186SLPC   O1221377   0.545   6.364   6.284 -0.2444  0.0354 -0.5033
  186SLPC   O1121378   0.304   6.295   6.299 -0.5612  0.1509 -0.1626
  186SLPC    C121379   0.175   6.325   6.349 -0.6239 -0.4580  0.2506
  186SLPC    HA21380   0.117   6.380   6.272 -0.1477 -0.1217  0.1233
  186SLPC    HB21381   0.119   6.229   6.347  0.4230 -1.0635 -0.6696
  186SLPC    C221382   0.166   6.384   6.493 -0.6928  0.3006  0.3027
  186SLPC    HS21383   0.220   6.482   6.494 -1.2218  0.5912  0.5043
  186SLPC   O2121384   0.231   6.284   6.579  0.1158  0.4850  0.0037
  186SLPC   C2121385   0.311   6.335   6.670  0.4602 -0.2394 -0.5559
  186SLPC   O2221386   0.343   6.451   6.687  0.9401 -0.2246 -0.2487
  186SLPC   C2221387   0.355   6.225   6.770  0.7477  0.1680  0.2254
  186SLPC   H2R21388   0.262   6.178   6.809  0.0246  0.7006 -0.8331
  186SLPC   H2S21389   0.403   6.146   6.707 -0.9095 -0.6710 -0.0034
  186SLPC    C321390   0.013   6.412   6.541 -0.0106  0.0188  0.2716
  186SLPC    HX21391  -0.022   6.311   6.574  2.4311  0.2789  3.9716
  186SLPC    HY21392  -0.044   6.440   6.450 -0.4007 -4.4396 -0.9699
  186SLPC   O3121393   0.008   6.514   6.640 -0.6533 -0.6634 -0.2488
  186SLPC   C3121394   0.016   6.475   6.767  0.4038 -0.0808  0.0488
  186SLPC   O3221395   0.030   6.363   6.809 -0.5247  0.6202  0.4018
  186SLPC   C3221396   0.013   6.599   6.855 -0.7629 -0.2568  0.3594
  186SLPC   H2X21397  -0.085   6.649   6.841  0.2150  0.4778 -4.5780
  186SLPC   H2Y21398   0.094   6.664   6.818 -1.0555 -0.0986 -0.0012
  186SLPC   C2321399   0.455   6.272   6.878 -0.0529 -0.0065 -0.1062
  186SLPC   H3R21400   0.543   6.330   6.842  0.5085 -1.3114 -0.8523
  186SLPC   H3S21401   0.495   6.182   6.929 -1.2018 -0.5243 -0.0919
  186SLPC   C2421402   0.379   6.351   6.985 -0.3565  0.2324  0.3806
  186SLPC   H4R21403   0.294   6.291   7.025 -0.3290 -0.6731 -0.9144
  186SLPC   H4S21404   0.341   6.448   6.945 -1.0833 -1.1271 -2.3710
  186SLPC   C2521405   0.470   6.386   7.106 -0.1757  0.6855 -0.1963
  186SLPC   H5R21406   0.548   6.455   7.067  0.0953  0.3639 -0.2318
  186SLPC   H5S21407   0.519   6.298   7.154 -1.2496  1.6199  2.7438
  186SLPC   C2621408   0.399   6.465   7.215 -0.2636 -0.4249  0.4310
  186SLPC   H6R21409   0.357   6.380   7.273 -3.4918  1.6586  1.2829
  186SLPC   H6S21410   0.315   6.524   7.173 -0.8252 -2.1489 -0.9345
  186SLPC   C2721411   0.497   6.558   7.291 -0.3693 -0.1680  0.2491
  186SLPC   H7R21412   0.542   6.618   7.209  1.9635 -0.6781  1.1099
  186SLPC   H7S21413   0.579   6.494   7.328 -0.7645 -1.6569 -1.4134
  186SLPC   C2821414   0.430   6.646   7.388 -0.1331  0.4626  0.2492
  186SLPC   H8R21415   0.353   6.704   7.332  1.5569 -1.6264 -4.4709
  186SLPC   H8S21416   0.492   6.724   7.437  1.7484 -1.4977  1.0822
  186SLPC   C2921417   0.384   6.560   7.501 -0.4984 -0.0164  0.0422
  186SLPC   H9R21418   0.336   6.462   7.490  0.8080 -0.6358 -0.1668
  186SLPC  C21021419   0.395   6.587   7.636 -0.5374  0.0766  0.5107
  186SLPC  H10R21420   0.363   6.504   7.701  0.7368 -0.3174  0.6479
  186SLPC  C21121421   0.462   6.706   7.711 -0.2113  0.1510  0.3631
  186SLPC  H11R21422   0.410   6.736   7.805 -1.0377  0.3927 -0.1670
  186SLPC  H11S21423   0.466   6.794   7.643  1.4355 -0.4672 -0.3618
  186SLPC  C21221424   0.613   6.681   7.744  0.6878 -0.3454 -0.5472
  186SLPC  H12R21425   0.674   6.720   7.661 -0.7730  0.7551 -1.1332
  186SLPC  C21321426   0.667   6.631   7.854 -0.6455 -0.1846  0.6341
  186SLPC  H13R21427   0.776   6.634   7.867 -0.5194  1.6166 -0.6971
  186SLPC  C21421428   0.589   6.577   7.974 -0.1874 -0.1930  0.0413
  186SLPC  H14R21429   0.619   6.474   8.002 -0.9264 -0.4479 -0.0874
  186SLPC  H14S21430   0.481   6.568   7.948 -0.3926 -3.3766  1.8120
  186SLPC  C21521431   0.589   6.669   8.095 -0.0361 -0.0285  0.0250
  186SLPC  H15R21432   0.574   6.775   8.065 -0.9960 -0.3004 -0.4935
  186SLPC  H15S21433   0.688   6.653   8.144  1.1528 -2.4528 -3.0045
  186SLPC  C21621434   0.482   6.629   8.202 -0.1021 -0.1369 -0.0725
  186SLPC  H16R21435   0.386   6.656   8.152  0.5434 -2.1779 -2.5206
  186SLPC  H16S21436   0.495   6.690   8.294 -2.4318  1.8376 -0.9725
  186SLPC  C21721437   0.487   6.479   8.236  0.5915 -0.2921 -0.3610
  186SLPC  H17R21438   0.588   6.448   8.271  0.8119  1.6395  0.7913
  186SLPC  H17S21439   0.461   6.423   8.143  0.2142  0.2019 -0.5531
  186SLPC  C21821440   0.388   6.437   8.345 -0.1117  0.2387  0.6070
  186SLPC  H18R21441   0.408   6.490   8.440  1.2111 -1.0081  1.0475
  186SLPC  H18S21442   0.400   6.328   8.362  1.2483  0.3726  0.5345
  186SLPC  H18T21443   0.289   6.460   8.299 -0.7831 -3.5111 -0.0180
  186SLPC   C3321444   0.030   6.556   6.999 -0.7628  1.0561  0.1046
  186SLPC   H3X21445   0.109   6.479   7.009  0.7086  2.2667 -1.8420
  186SLPC   H3Y21446  -0.064   6.507   7.032 -0.4050 -0.0065 -0.4169
  186SLPC   C3421447   0.056   6.673   7.099  0.0096 -0.0892  1.2242
  186SLPC   H4X21448  -0.014   6.758   7.083  2.9553  2.4676  1.6398
  186SLPC   H4Y21449   0.157   6.718   7.096 -0.6050  1.4773  3.4367
  186SLPC   C3521450   0.025   6.625   7.233 -0.5105 -0.2831 -0.8100
  186SLPC   H5X21451   0.076   6.530   7.261 -0.1533  0.1535  0.0547
  186SLPC   H5Y21452  -0.082   6.598   7.243  0.1019 -2.5672 -0.0205
  186SLPC   C3621453   0.052   6.727   7.341  0.5852 -0.3290  0.3446
  186SLPC   H6X21454   0.003   6.825   7.321 -0.3571 -0.7734  0.4772
  186SLPC   H6Y21455   0.156   6.769   7.341 -0.3067  1.9991 -0.2294
  186SLPC   C3721456   0.029   6.679   7.484 -0.3073 -0.0812 -0.3782
  186SLPC   H7X21457   0.079   6.580   7.492  1.9361  0.7387 -3.3754
  186SLPC   H7Y21458  -0.081   6.679   7.494 -0.4318 -0.4316 -1.7854
  186SLPC   C3821459   0.072   6.778   7.599  0.3994 -0.5501  0.2660
  186SLPC   H8X21460   0.041   6.882   7.576 -0.6245 -0.2767  2.6711
  186SLPC   H8Y21461   0.182   6.782   7.615  0.8066 -0.8100 -2.2747
  186SLPC   C3921462   0.019   6.742   7.741  0.0254 -0.6496  0.3503
  186SLPC   H9X21463  -0.091   6.752   7.745  0.0281 -0.4872  0.0424
  186SLPC   H9Y21464   0.058   6.832   7.794 -0.5635  0.5572 -1.2391
  186SLPC  C31021465   0.069   6.617   7.809  0.6892  0.5687 -0.8352
  186SLPC  H10X21466   0.180   6.621   7.806  0.6934  0.4092 -0.8607
  186SLPC  H10Y21467   0.033   6.534   7.745  1.0071  0.0933 -0.4004
  186SLPC  C31121468   0.025   6.606   7.955 -0.3524 -0.0432 -0.2759
  186SLPC  H11X21469   0.079   6.522   8.003  1.3670  0.8956 -0.5306
  186SLPC  H11Y21470  -0.083   6.583   7.962 -0.1826 -0.8074 -0.1036
  186SLPC  C31221471   0.055   6.733   8.043 -0.1920 -0.1660  0.5932
  186SLPC  H12X21472  -0.001   6.824   8.012 -1.5697 -1.1946 -0.0279
  186SLPC  H12Y21473   0.165   6.748   8.043  0.0197 -1.6861  0.0476
  186SLPC  C31321474   0.015   6.703   8.191  0.3044 -0.7553  0.5573
  186SLPC  H13X21475   0.037   6.597   8.214  0.9450 -0.5969  0.6776
  186SLPC  H13Y21476  -0.095   6.706   8.202  0.0064 -0.0780 -2.1323
  186SLPC  C31421477   0.097   6.784   8.299 -0.1412 -0.3499 -0.7315
  186SLPC  H14X21478   0.051   6.885   8.308 -0.3110 -0.6477  2.2260
  186SLPC  H14Y21479   0.204   6.788   8.267  0.4169 -3.3405  0.5828
  186SLPC  C31521480   0.095   6.723   8.436 -0.0728 -0.4409  0.3496
  186SLPC  H15X21481   0.135   6.791   8.515  0.1270  2.0079 -1.8238
  186SLPC  H15Y21482   0.161   6.634   8.434 -0.6475 -0.8337 -1.7024
  186SLPC  C31621483  -0.052   6.699   8.493 -0.1090 -0.5383  0.8180
  186SLPC  H16X21484  -0.038   6.644   8.589 -1.3131 -1.4506  0.4925
  186SLPC  H16Y21485  -0.106   6.620   8.435 -0.6967  0.3686  0.1120
  186SLPC  C31721486  -0.144   6.823   8.492 -0.4404 -0.6185 -0.1463
  186SLPC  H17X21487  -0.172   6.844   8.387 -0.2576  0.1866 -0.0360
  186SLPC  H17Y21488  -0.097   6.917   8.527 -1.0021  0.0669 -1.1947
  186SLPC  C31821489  -0.260   6.794   8.592  0.1724  0.1042 -0.4301
  186SLPC  H18X21490  -0.324   6.884   8.585 -0.3083  0.0629  2.7658
  186SLPC  H18Y21491  -0.212   6.780   8.691  0.8242 -2.4677 -1.0870
  186SLPC  H18Z21492  -0.320   6.703   8.573 -0.6661  0.0861  2.2025
  187SLPC     N21493   0.112   3.272   6.379 -0.9983 -0.4152  0.9624
  187SLPC   C1321494   0.053   3.317   6.251 -0.6759 -0.3821 -0.0237
  187SLPC  H13A21495   0.004   3.236   6.199 -1.2340 -0.4791  0.6632
  187SLPC  H13B21496   0.001   3.411   6.257  0.4393  0.3903 -1.8357
  187SLPC  H13C21497   0.134   3.329   6.180 -0.6316 -1.4477 -0.1569
  187SLPC   C1421498   0.157   3.135   6.333  0.0499 -0.0338 -0.4606
  187SLPC  H14A21499   0.065   3.083   6.312 -1.3506  1.8637  0.7354
  187SLPC  H14B21500   0.231   3.142   6.255  0.5729  1.1936  0.1299
  187SLPC  H14C21501   0.206   3.077   6.410  1.9685  1.5167 -0.4645
  187SLPC   C1521502   0.006   3.267   6.478 -0.5420  0.1766 -0.1416
  187SLPC  H15A21503  -0.024   3.368   6.502 -0.9337  0.5646 -2.1441
  187SLPC  H15B21504  -0.087   3.224   6.443 -0.5607 -0.4179  0.6262
  187SLPC  H15C21505   0.038   3.211   6.565 -0.9414  0.4899  0.2068
  187SLPC   C1221506   0.224   3.360   6.434  0.9660 -0.2269  0.0581
  187SLPC  H12A21507   0.257   3.327   6.531 -0.8074 -1.1526  0.3742
  187SLPC  H12B21508   0.188   3.462   6.446 -0.5268 -0.8033  0.6953
  187SLPC   C1121509   0.346   3.360   6.351 -0.2290  0.0540 -0.3130
  187SLPC  H11A21510   0.396   3.456   6.377 -2.2248  1.4782 -1.6128
  187SLPC  H11B21511   0.317   3.365   6.244 -0.4936 -0.6829 -0.2710
  187SLPC     P21512   0.508   3.195   6.491  0.1128 -0.0881  0.0985
  187SLPC   O1321513   0.615   3.106   6.440  0.3798  0.3510  0.1386
  187SLPC   O1421514   0.541   3.317   6.570 -0.3321  0.4787  0.6943
  187SLPC   O1221515   0.431   3.246   6.367  0.0596 -0.4659 -0.0491
  187SLPC   O1121516   0.407   3.111   6.571  0.2750  0.6537  0.6243
  187SLPC    C121517   0.328   3.154   6.679  0.0652 -0.7458  0.3237
  187SLPC    HA21518   0.325   3.264   6.695  0.1641 -0.6205 -0.4850
  187SLPC    HB21519   0.221   3.132   6.661  0.1905 -1.4039  0.3895
  187SLPC    C221520   0.385   3.102   6.822  0.4525  0.2114 -0.0491
  187SLPC    HS21521   0.323   3.143   6.904 -1.2981 -2.1293 -0.1451
  187SLPC   O2121522   0.521   3.135   6.824  0.1564  0.1406 -0.3388
  187SLPC   C2121523   0.537   3.255   6.886 -0.1892 -0.3080 -0.3633
  187SLPC   O2221524   0.452   3.321   6.944 -0.0631  0.4852 -0.4733
  187SLPC   C2221525   0.681   3.302   6.853 -0.4169 -0.0274  0.0688
  187SLPC   H2R21526   0.735   3.208   6.827 -0.0180  0.2422 -0.0969
  187SLPC   H2S21527   0.677   3.369   6.764 -1.3532  0.9035  0.7988
  187SLPC    C321528   0.365   2.950   6.840 -0.2181  0.1116  0.3537
  187SLPC    HX21529   0.419   2.908   6.752  1.5720  0.7376  1.1417
  187SLPC    HY21530   0.263   2.907   6.828  0.1460 -1.1012  1.5197
  187SLPC   O3121531   0.421   2.895   6.960  0.5037 -0.1508 -0.0526
  187SLPC   C3121532   0.548   2.843   6.950  0.2981 -0.3707 -0.1048
  187SLPC   O3221533   0.624   2.857   6.853  0.2453  0.3938  0.7957
  187SLPC   C3221534   0.579   2.794   7.087 -0.0807  0.4199  0.3451
  187SLPC   H2X21535   0.629   2.695   7.073  2.0364  1.5201 -0.1542
  187SLPC   H2Y21536   0.491   2.778   7.153 -0.9902  0.5016 -0.8398
  187SLPC   C2321537   0.743   3.374   6.977 -0.2572 -0.1443  0.1182
  187SLPC   H3R21538   0.681   3.463   7.000  1.0519  0.8380 -0.0613
  187SLPC   H3S21539   0.843   3.413   6.946 -1.4572  2.1871 -0.9419
  187SLPC   C2421540   0.770   3.291   7.110  0.4384 -0.2357  0.5313
  187SLPC   H4R21541   0.845   3.221   7.069 -1.4538 -0.5530 -2.5965
  187SLPC   H4S21542   0.669   3.252   7.135 -0.4139  1.4674 -0.0955
  187SLPC   C2521543   0.816   3.388   7.217 -0.4153 -0.2370 -1.0441
  187SLPC   H5R21544   0.730   3.450   7.249  0.9391  0.6459  0.9379
  187SLPC   H5S21545   0.889   3.463   7.180  0.1134 -0.3300 -0.2172
  187SLPC   C2621546   0.880   3.331   7.346 -0.0196 -0.5035 -0.3708
  187SLPC   H6R21547   0.978   3.300   7.303  0.4524  1.9184 -1.1315
  187SLPC   H6S21548   0.801   3.262   7.382  0.9152 -1.7263 -0.6213
  187SLPC   C2721549   0.897   3.438   7.456 -0.4044  0.8837 -0.1944
  187SLPC   H7R21550   0.799   3.481   7.485  0.5483  1.8892  1.6245
  187SLPC   H7S21551   0.948   3.533   7.430 -0.9696  1.3592  0.4057
  187SLPC   C2821552   0.969   3.393   7.580  0.2713  0.7710  0.3386
  187SLPC   H8R21553   1.079   3.400   7.561 -0.3728  2.6580 -3.0736
  187SLPC   H8S21554   0.947   3.286   7.600  0.2416  0.6278 -0.4357
  187SLPC   C2921555   0.956   3.476   7.705  0.2365  0.0300  0.0986
  187SLPC   H9R21556   1.046   3.527   7.742 -0.8385  0.9078  1.5667
  187SLPC  C21021557   0.846   3.480   7.783 -0.0836  0.2422  0.0031
  187SLPC  H10R21558   0.848   3.538   7.877 -1.0726 -0.0706  0.2242
  187SLPC  C21121559   0.712   3.404   7.759  0.2897  0.1422 -0.2338
  187SLPC  H11R21560   0.720   3.304   7.808  1.9600 -1.0713 -2.8609
  187SLPC  H11S21561   0.715   3.370   7.653 -0.7211 -0.2314 -0.1468
  187SLPC  C21221562   0.585   3.478   7.806 -0.5421 -0.0150 -0.1406
  187SLPC  H12R21563   0.503   3.500   7.736 -0.6858 -0.1555 -0.0206
  187SLPC  C21321564   0.571   3.506   7.942 -0.1944 -0.1704 -0.7999
  187SLPC  H13R21565   0.487   3.569   7.976 -1.7469 -1.4253 -2.2059
  187SLPC  C21421566   0.669   3.480   8.055  0.2588 -0.3654  0.5709
  187SLPC  H14R21567   0.759   3.422   8.029  0.7163  1.0620 -1.1256
  187SLPC  H14S21568   0.604   3.428   8.129  0.4626  1.8600  2.3894
  187SLPC  C21521569   0.718   3.611   8.123 -0.2889 -0.2649 -0.4258
  187SLPC  H15R21570   0.627   3.674   8.139 -0.3715 -0.0161 -1.7952
  187SLPC  H15S21571   0.783   3.672   8.057 -0.5357 -0.6366 -1.0203
  187SLPC  C21621572   0.795   3.594   8.253  0.8035  0.5317  0.2934
  187SLPC  H16R21573   0.885   3.534   8.230  1.5209  2.2243 -1.3750
  187SLPC  H16S21574   0.737   3.552   8.339  0.5032 -0.6422 -0.4625
  187SLPC  C21721575   0.859   3.725   8.300 -0.0344 -0.6313  0.1590
  187SLPC  H17R21576   0.781   3.798   8.330  2.3129  1.3497  1.6104
  187SLPC  H17S21577   0.926   3.770   8.224 -1.3261 -0.4533 -0.8865
  187SLPC  C21821578   0.955   3.705   8.417  0.1936 -0.2818 -0.0225
  187SLPC  H18R21579   0.895   3.670   8.504  0.4541  1.4543  0.8810
  187SLPC  H18S21580   1.005   3.804   8.430 -0.1128 -0.2630  1.1512
  187SLPC  H18T21581   1.031   3.627   8.394  0.9859  0.9997 -1.8375
  187SLPC   C3321582   0.677   2.897   7.151 -0.2637 -0.4208 -0.0344
  187SLPC   H3X21583   0.627   2.996   7.150 -1.9370 -1.2472 -1.5229
  187SLPC   H3Y21584   0.764   2.895   7.083 -0.3124  2.1041 -0.2072
  187SLPC   C3421585   0.727   2.849   7.286 -0.2154 -0.5824  0.1232
  187SLPC   H4X21586   0.828   2.895   7.297 -0.7458  0.3722  1.0615
  187SLPC   H4Y21587   0.740   2.739   7.283 -0.5449 -0.5896 -1.2334
  187SLPC   C3521588   0.656   2.903   7.409 -0.0292  0.1262  0.1683
  187SLPC   H5X21589   0.551   2.869   7.401 -0.8141  2.5066 -0.0825
  187SLPC   H5Y21590   0.659   3.014   7.416  1.3709  0.1252 -0.2584
  187SLPC   C3621591   0.717   2.850   7.535  0.5007 -0.3620  0.0366
  187SLPC   H6X21592   0.824   2.876   7.526  0.7227 -1.0806  0.5623
  187SLPC   H6Y21593   0.711   2.739   7.541  0.0886 -0.2224  2.5360
  187SLPC   C3721594   0.668   2.911   7.668 -0.2330  0.4597  0.2929
  187SLPC   H7X21595   0.705   3.016   7.670 -1.4793  0.8870  1.5495
  187SLPC   H7Y21596   0.558   2.906   7.658 -0.3695  0.4595  1.6605
  187SLPC   C3821597   0.718   2.822   7.781  0.2297 -0.0791  0.6969
  187SLPC   H8X21598   0.824   2.791   7.768  0.0800 -1.2124  2.0168
  187SLPC   H8Y21599   0.668   2.724   7.764 -1.0888  1.2212 -3.6091
  187SLPC   C3921600   0.702   2.874   7.922 -0.2394  0.1648  0.0134
  187SLPC   H9X21601   0.737   2.788   7.983 -0.1522 -0.1914 -0.5332
  187SLPC   H9Y21602   0.592   2.867   7.935 -0.2155  0.3943  0.3388
  187SLPC  C31021603   0.780   2.998   7.953 -0.4580 -0.4570 -0.5059
  187SLPC  H10X21604   0.724   3.078   7.899 -2.0532  0.3842  2.3117
  187SLPC  H10Y21605   0.882   2.996   7.910 -0.6532  2.5410 -1.2148
  187SLPC  C31121606   0.782   3.042   8.099 -0.2798  0.0160 -0.2638
  187SLPC  H11X21607   0.822   2.946   8.139  1.7775  0.2833 -1.5883
  187SLPC  H11Y21608   0.678   3.056   8.135 -1.0783 -2.1101 -1.6837
  187SLPC  C31221609   0.860   3.168   8.132  0.6901 -0.2424  0.0798
  187SLPC  H12X21610   0.837   3.235   8.047 -2.5502 -0.4038  0.7906
  187SLPC  H12Y21611   0.968   3.142   8.133  0.5561 -0.8108  0.1332
  187SLPC  C31321612   0.809   3.236   8.260 -0.5693  0.2482 -0.1398
  187SLPC  H13X21613   0.703   3.266   8.244 -0.1399  1.8879 -0.0444
  187SLPC  H13Y21614   0.868   3.330   8.263  0.6283 -0.4920 -0.3606
  187SLPC  C31421615   0.856   3.169   8.394  0.5330 -0.1839  0.0424
  187SLPC  H14X21616   0.955   3.121   8.382  0.5094  0.2751 -2.1952
  187SLPC  H14Y21617   0.779   3.091   8.414 -0.3504  0.6216 -0.1639
  187SLPC  C31521618   0.876   3.254   8.522 -0.0953  0.5196 -0.0665
  187SLPC  H15X21619   0.946   3.335   8.490  1.9764 -0.9741  0.5703
  187SLPC  H15Y21620   0.917   3.182   8.595 -1.3020 -1.8710 -1.7051
  187SLPC  C31621621   0.745   3.318   8.565 -0.5321 -0.3093 -0.2727
  187SLPC  H16X21622   0.658   3.249   8.560  0.0414 -1.0115 -0.7506
  187SLPC  H16Y21623   0.731   3.401   8.492  0.4392  1.2396  1.2709
  187SLPC  C31721624   0.746   3.389   8.699  0.2616  0.1616 -0.2667
  187SLPC  H17X21625   0.663   3.463   8.707 -1.9321 -2.4254  2.1104
  187SLPC  H17Y21626   0.839   3.449   8.700  1.2641 -1.3899 -0.1022
  187SLPC  C31821627   0.738   3.291   8.813 -1.1122 -0.3660 -0.4056
  187SLPC  H18X21628   0.636   3.267   8.850 -1.4742  0.1133 -1.0822
  187SLPC  H18Y21629   0.784   3.341   8.901 -0.0993 -1.4780 -0.2938
  187SLPC  H18Z21630   0.800   3.199   8.811 -1.5436 -0.8037  2.9276
  188SLPC     N21631   2.257   5.153   6.119  0.4125 -0.0094  0.0807
  188SLPC   C1321632   2.264   5.022   6.050  0.7927  0.4138 -0.8984
  188SLPC  H13A21633   2.226   4.940   6.109  0.6844 -1.1691 -3.1457
  188SLPC  H13B21634   2.221   5.012   5.952 -1.8337  0.9184  0.1690
  188SLPC  H13C21635   2.364   4.984   6.066  0.1413 -0.4590  1.2706
  188SLPC   C1421636   2.115   5.213   6.103 -0.7303 -0.1433  0.4991
  188SLPC  H14A21637   2.100   5.304   6.160 -0.7765  1.9970 -2.8375
  188SLPC  H14B21638   2.099   5.230   5.998 -0.3924  0.1976  0.5044
  188SLPC  H14C21639   2.039   5.140   6.131  0.1220 -0.1540  2.9239
  188SLPC   C1521640   2.364   5.241   6.070 -0.1498 -0.4137 -0.0204
  188SLPC  H15A21641   2.359   5.262   5.964 -3.1490  1.2892  0.4076
  188SLPC  H15B21642   2.363   5.340   6.114  2.6076 -1.2408  2.0118
  188SLPC  H15C21643   2.460   5.206   6.102 -0.6711 -0.0736  1.9890
  188SLPC   C1221644   2.262   5.127   6.268  0.1865  0.0786 -1.2303
  188SLPC  H12A21645   2.252   5.228   6.306 -1.6332  0.3783 -2.4053
  188SLPC  H12B21646   2.357   5.094   6.306 -1.4538  0.0702  3.1960
  188SLPC   C1121647   2.145   5.043   6.331 -0.1802 -0.5043  0.7253
  188SLPC  H11A21648   2.049   5.095   6.309  0.8648  0.5000 -1.6009
  188SLPC  H11B21649   2.170   5.040   6.440  2.2657 -1.0000  0.1737
  188SLPC     P21650   2.126   4.792   6.378 -0.1609 -0.0417 -0.3403
  188SLPC   O1321651   2.043   4.696   6.300  0.3520  0.3194 -0.1478
  188SLPC   O1421652   2.253   4.751   6.441 -0.0236 -0.1871 -0.7548
  188SLPC   O1221653   2.139   4.915   6.283  0.4769 -0.9208  0.1434
  188SLPC   O1121654   2.039   4.855   6.483  0.7451  0.7002 -0.4195
  188SLPC    C121655   1.899   4.870   6.465  0.3382 -0.1970  0.4566
  188SLPC    HA21656   1.879   4.946   6.387  1.4273  0.0067  0.3654
  188SLPC    HB21657   1.844   4.777   6.437 -0.5766  0.0332  1.4374
  188SLPC    C221658   1.839   4.918   6.601 -0.1455  0.0965  0.0840
  188SLPC    HS21659   1.915   4.985   6.647  0.2817 -2.6211  3.6018
  188SLPC   O2121660   1.817   4.802   6.682  0.0920  0.3918 -0.2610
  188SLPC   C2121661   1.829   4.831   6.811  0.2466 -0.4016 -0.5268
  188SLPC   O2221662   1.884   4.930   6.857 -0.1915 -0.0208  0.4924
  188SLPC   C2221663   1.754   4.733   6.899 -0.4958 -0.0440 -0.1524
  188SLPC   H2R21664   1.693   4.658   6.843 -0.0454  0.2413 -1.0263
  188SLPC   H2S21665   1.831   4.684   6.962 -0.1225 -0.0803 -0.6317
  188SLPC    C321666   1.711   5.008   6.581  0.3761 -0.1669 -0.0988
  188SLPC    HX21667   1.642   4.933   6.538 -0.7297 -0.6558  2.4937
  188SLPC    HY21668   1.725   5.090   6.507 -0.6611 -1.1892 -1.4519
  188SLPC   O3121669   1.659   5.051   6.704  0.3177  0.0715 -0.3771
  188SLPC   C3121670   1.694   5.177   6.744 -0.9423  0.1380  0.2257
  188SLPC   O3221671   1.780   5.247   6.685 -0.4206 -0.0831 -0.0226
  188SLPC   C3221672   1.604   5.227   6.859 -0.4497 -0.1315  0.6855
  188SLPC   H2X21673   1.568   5.135   6.909  3.3066 -1.6531  0.7645
  188SLPC   H2Y21674   1.514   5.280   6.821  0.1586 -0.3321 -1.0925
  188SLPC   C2321675   1.650   4.808   6.990  0.3689  0.5228 -0.5289
  188SLPC   H3R21676   1.592   4.726   7.039  0.5107  0.7081 -0.0483
  188SLPC   H3S21677   1.573   4.866   6.934 -2.7473 -0.4475  2.5637
  188SLPC   C2421678   1.707   4.908   7.092 -0.5836 -0.6258 -0.7222
  188SLPC   H4R21679   1.738   5.000   7.038 -1.0820 -0.2762 -0.4082
  188SLPC   H4S21680   1.802   4.863   7.129 -0.0062  0.3011 -1.0623
  188SLPC   C2521681   1.614   4.936   7.210 -0.8393  0.1823  0.1662
  188SLPC   H5R21682   1.585   4.839   7.255 -1.6006  0.8349  1.1093
  188SLPC   H5S21683   1.517   4.968   7.166 -0.2405  1.2852 -0.3710
  188SLPC   C2621684   1.660   5.031   7.316 -0.3881  0.6718 -0.5389
  188SLPC   H6R21685   1.658   5.133   7.274  0.8168  0.8541 -0.1604
  188SLPC   H6S21686   1.760   5.010   7.359 -0.2049 -3.2722 -2.6045
  188SLPC   C2721687   1.562   5.032   7.438  0.7913  0.3166 -0.2278
  188SLPC   H7R21688   1.580   4.945   7.504 -2.8872  1.1832  2.0421
  188SLPC   H7S21689   1.462   5.025   7.389  1.1064  2.1285 -1.1653
  188SLPC   C2821690   1.546   5.162   7.523 -0.0854 -0.0159  0.1323
  188SLPC   H8R21691   1.520   5.242   7.450  0.3921  1.9480  2.0487
  188SLPC   H8S21692   1.645   5.184   7.568  0.3721  0.7468 -1.1999
  188SLPC   C2921693   1.433   5.141   7.628 -0.4309  0.6530  0.5155
  188SLPC   H9R21694   1.332   5.127   7.588 -0.1544 -0.8052  0.3054
  188SLPC  C21021695   1.455   5.139   7.762 -0.5908  0.0134  0.1263
  188SLPC  H10R21696   1.380   5.109   7.836 -0.2942  2.2544  1.3830
  188SLPC  C21121697   1.590   5.165   7.823  0.5777 -0.4056  0.2069
  188SLPC  H11R21698   1.574   5.193   7.930  1.5972  0.5067  0.1344
  188SLPC  H11S21699   1.631   5.260   7.783  0.9244 -0.6411  0.0025
  188SLPC  C21221700   1.687   5.048   7.811  0.3821 -0.7687 -0.1743
  188SLPC  H12R21701   1.720   5.019   7.710 -0.1728  1.0318 -0.9031
  188SLPC  C21321702   1.732   4.969   7.912 -0.2330 -0.4360  0.0327
  188SLPC  H13R21703   1.802   4.893   7.876  0.5281  0.6986 -0.9325
  188SLPC  C21421704   1.692   4.972   8.057 -0.5446  0.4379  0.3944
  188SLPC  H14R21705   1.641   4.880   8.092  1.5109 -0.1358  1.9577
  188SLPC  H14S21706   1.625   5.057   8.083  0.7593  2.0078 -1.1659
  188SLPC  C21521707   1.824   4.985   8.135 -0.6935  0.0954 -0.4207
  188SLPC  H15R21708   1.878   5.076   8.102  1.3359 -1.2302 -0.8096
  188SLPC  H15S21709   1.886   4.893   8.133 -0.0280  0.5791 -2.4276
  188SLPC  C21621710   1.813   5.004   8.293  0.0785 -0.5588  0.7669
  188SLPC  H16R21711   1.732   5.076   8.317  1.0629 -0.1743  3.1435
  188SLPC  H16S21712   1.911   5.041   8.331  0.7078  0.3997 -1.7189
  188SLPC  C21721713   1.757   4.879   8.361  0.1858 -0.1540 -0.3961
  188SLPC  H17R21714   1.841   4.806   8.353 -1.1397 -1.7070 -0.2266
  188SLPC  H17S21715   1.681   4.822   8.304 -0.0383  0.1716 -0.4248
  188SLPC  C21821716   1.693   4.889   8.506 -0.5357  0.1875  0.0979
  188SLPC  H18R21717   1.592   4.934   8.498 -1.3684 -1.9983 -2.4723
  188SLPC  H18S21718   1.766   4.943   8.569 -0.1243  1.0774 -1.1283
  188SLPC  H18T21719   1.696   4.782   8.535  0.5976  0.0247 -0.5892
  188SLPC   C3321720   1.680   5.315   6.958 -0.1140 -0.1426 -0.0795
  188SLPC   H3X21721   1.705   5.416   6.918  0.3651 -0.9614 -1.9045
  188SLPC   H3Y21722   1.779   5.267   6.971 -1.0193 -2.0362  0.0621
  188SLPC   C3421723   1.616   5.336   7.092  0.7119  0.4183 -0.2095
  188SLPC   H4X21724   1.696   5.337   7.169 -1.2749  0.7125  1.9154
  188SLPC   H4Y21725   1.549   5.251   7.116  0.7713  0.0607 -1.2911
  188SLPC   C3521726   1.515   5.454   7.094 -0.1007  0.5197  0.8014
  188SLPC   H5X21727   1.445   5.449   7.008  2.4754 -0.5343 -1.3365
  188SLPC   H5Y21728   1.570   5.551   7.094  1.8491 -0.5610  0.6817
  188SLPC   C3621729   1.431   5.455   7.214  0.5117  0.2414  0.3708
  188SLPC   H6X21730   1.377   5.360   7.237 -2.4374  1.2760 -1.9303
  188SLPC   H6Y21731   1.347   5.524   7.192 -0.7693 -1.4282 -0.1576
  188SLPC   C3721732   1.507   5.503   7.342 -0.2150  0.3846  1.1120
  188SLPC   H7X21733   1.564   5.591   7.304 -0.0792  0.6989  2.0408
  188SLPC   H7Y21734   1.567   5.414   7.371 -1.0600 -1.4030 -2.3601
  188SLPC   C3821735   1.426   5.568   7.448  0.0912 -0.3674  0.1394
  188SLPC   H8X21736   1.365   5.503   7.514 -0.4735  0.1755  0.1591
  188SLPC   H8Y21737   1.364   5.646   7.399  2.4791  2.1212  0.9691
  188SLPC   C3921738   1.515   5.651   7.546 -0.3565  0.3478 -0.4451
  188SLPC   H9X21739   1.594   5.717   7.504  0.1072 -0.3138 -0.6196
  188SLPC   H9Y21740   1.562   5.574   7.611 -1.0901 -0.1714 -0.5240
  188SLPC  C31021741   1.423   5.753   7.627 -0.3545 -0.2540 -0.3379
  188SLPC  H10X21742   1.339   5.695   7.669  2.1553 -2.5800  1.6652
  188SLPC  H10Y21743   1.375   5.825   7.557 -1.0557 -0.8262 -0.4381
  188SLPC  C31121744   1.498   5.830   7.734  1.3080  0.6363  0.6954
  188SLPC  H11X21745   1.432   5.916   7.759  0.9816  0.7905 -0.6674
  188SLPC  H11Y21746   1.573   5.883   7.672  0.6710  1.1958  0.3898
  188SLPC  C31221747   1.529   5.766   7.867 -0.4367  0.1490 -0.4409
  188SLPC  H12X21748   1.576   5.838   7.938 -2.7676  0.2915  1.0415
  188SLPC  H12Y21749   1.600   5.681   7.859  1.5806  1.7051  0.4441
  188SLPC  C31321750   1.408   5.706   7.940  0.6119  0.3536  0.6218
  188SLPC  H13X21751   1.391   5.609   7.889  0.5691  0.0829  1.1484
  188SLPC  H13Y21752   1.317   5.765   7.917 -1.0909 -2.4735 -0.0779
  188SLPC  C31421753   1.411   5.677   8.096 -0.4289  0.2205  0.1581
  188SLPC  H14X21754   1.349   5.751   8.150 -0.7300  0.4671 -0.5140
  188SLPC  H14Y21755   1.517   5.694   8.125  0.2150 -0.1250 -1.9219
  188SLPC  C31521756   1.372   5.529   8.134  0.5708 -0.5678 -0.2630
  188SLPC  H15X21757   1.278   5.490   8.089  0.5713  0.2772 -1.0216
  188SLPC  H15Y21758   1.360   5.518   8.244 -0.8652  0.0859 -0.3398
  188SLPC  C31621759   1.490   5.432   8.096 -0.1218 -0.2006  0.4746
  188SLPC  H16X21760   1.517   5.431   7.988 -1.0830  0.3832  0.2181
  188SLPC  H16Y21761   1.455   5.328   8.114 -0.7596 -0.2153 -0.7941
  188SLPC  C31721762   1.617   5.451   8.182  0.1375 -0.3562  0.6833
  188SLPC  H17X21763   1.590   5.468   8.289  0.8681  2.1069  0.5161
  188SLPC  H17Y21764   1.656   5.551   8.151 -1.0624 -0.2937 -0.6943
  188SLPC  C31821765   1.731   5.349   8.155  0.9486  0.0963  0.8799
  188SLPC  H18X21766   1.815   5.369   8.225  1.7667 -2.6452  0.7550
  188SLPC  H18Y21767   1.776   5.373   8.056  1.9271 -0.4124  1.1961
  188SLPC  H18Z21768   1.691   5.246   8.166  0.0077  0.2911 -0.5915
  189SLPC     N21769   4.288   6.587   6.092 -0.2093 -0.5580 -0.2734
  189SLPC   C1321770   4.428   6.643   6.081 -0.0410  0.3046  0.1378
  189SLPC  H13A21771   4.496   6.578   6.135 -0.5170  0.3567  0.8141
  189SLPC  H13B21772   4.462   6.664   5.981 -0.5819 -1.1725 -0.3805
  189SLPC  H13C21773   4.438   6.730   6.145 -1.1947  1.8131 -1.6885
  189SLPC   C1421774   4.277   6.462   6.010 -0.3601 -0.0398 -0.4705
  189SLPC  H14A21775   4.323   6.376   6.057  0.6727  1.1936  0.8461
  189SLPC  H14B21776   4.178   6.421   5.998 -0.4312  0.0878 -0.3182
  189SLPC  H14C21777   4.324   6.464   5.913 -0.9694 -0.3540 -0.7706
  189SLPC   C1521778   4.193   6.692   6.031  0.3003  0.4410 -0.1381
  189SLPC  H15A21779   4.216   6.714   5.928 -1.6526  0.4492 -0.5891
  189SLPC  H15B21780   4.089   6.662   6.031 -0.1343  1.8510 -1.9011
  189SLPC  H15C21781   4.203   6.787   6.081 -0.2664 -0.5077  1.8261
  189SLPC   C1221782   4.250   6.561   6.242 -0.6206  0.2517  0.0037
  189SLPC  H12A21783   4.282   6.648   6.298  0.8026 -2.4118  3.4857
  189SLPC  H12B21784   4.319   6.485   6.274  0.0822  0.7162 -0.4021
  189SLPC   C1121785   4.106   6.522   6.285  0.1719  0.7065  0.4368
  189SLPC  H11A21786   4.101   6.525   6.396 -0.0399  2.0004  0.3970
  189SLPC  H11B21787   4.087   6.416   6.259  0.6889  0.1911  2.1183
  189SLPC     P21788   3.960   6.740   6.290 -0.1871  0.2032  0.5106
  189SLPC   O1321789   4.065   6.846   6.279 -0.3062 -0.3001  0.3986
  189SLPC   O1421790   3.835   6.772   6.218 -0.4607  0.0465  0.0820
  189SLPC   O1221791   4.014   6.612   6.224 -0.3419  0.6122 -0.6982
  189SLPC   O1121792   3.932   6.705   6.446 -0.3169 -0.6879  0.4070
  189SLPC    C121793   3.829   6.615   6.484  0.1035 -0.0281  0.7595
  189SLPC    HA21794   3.772   6.564   6.403 -0.2706  0.3341  0.7958
  189SLPC    HB21795   3.868   6.535   6.550 -0.8572 -0.7991  0.4179
  189SLPC    C221796   3.714   6.685   6.571 -0.1679  0.0391  0.6123
  189SLPC    HS21797   3.658   6.754   6.504  0.1810 -1.5260 -1.3586
  189SLPC   O2121798   3.774   6.755   6.687 -0.3841  0.1748  0.4408
  189SLPC   C2121799   3.716   6.862   6.729  0.1036  0.1707 -0.0067
  189SLPC   O2221800   3.612   6.908   6.680 -0.7897 -0.2827  0.2053
  189SLPC   C2221801   3.794   6.923   6.839 -0.2862 -0.2242  0.3241
  189SLPC   H2R21802   3.885   6.867   6.866  1.1636  1.8527 -0.1074
  189SLPC   H2S21803   3.830   7.022   6.802  2.5424  1.3836  6.6747
  189SLPC    C321804   3.612   6.577   6.618 -0.2465  0.8982  0.0876
  189SLPC    HX21805   3.671   6.522   6.694 -2.1468 -0.3477  0.7040
  189SLPC    HY21806   3.581   6.504   6.540  0.3103  0.6134  0.1300
  189SLPC   O3121807   3.501   6.641   6.688  0.6467  0.5303 -0.2994
  189SLPC   C3121808   3.398   6.667   6.618 -0.0043  0.2497 -0.1590
  189SLPC   O3221809   3.367   6.612   6.513  0.0892  0.3195  0.2329
  189SLPC   C3221810   3.309   6.775   6.687  0.1236 -0.3443  1.0292
  189SLPC   H2X21811   3.248   6.818   6.604 -0.5314 -1.6763  0.8150
  189SLPC   H2Y21812   3.378   6.853   6.726 -0.2718 -0.4191  1.8820
  189SLPC   C2321813   3.703   6.948   6.957 -0.3994 -0.1399 -0.0945
  189SLPC   H3R21814   3.626   7.022   6.930  0.6771  1.6183  1.4997
  189SLPC   H3S21815   3.766   6.988   7.039  0.6112  0.5908 -1.2061
  189SLPC   C2421816   3.633   6.820   7.014 -0.0994 -0.1000  0.3067
  189SLPC   H4R21817   3.711   6.746   7.039  1.2179  0.9375 -0.6396
  189SLPC   H4S21818   3.570   6.784   6.930 -0.7230  1.5668  0.0371
  189SLPC   C2521819   3.556   6.829   7.144 -0.0271 -0.0743  0.2279
  189SLPC   H5R21820   3.524   6.725   7.166 -0.6173 -0.3669 -1.8877
  189SLPC   H5S21821   3.454   6.874   7.133 -0.4083 -0.7383  1.0499
  189SLPC   C2621822   3.626   6.891   7.264  0.2652  0.8320  0.4975
  189SLPC   H6R21823   3.664   6.993   7.244  0.0746  0.5672 -1.2487
  189SLPC   H6S21824   3.711   6.824   7.291 -0.8378 -0.8284 -0.0367
  189SLPC   C2721825   3.522   6.898   7.379  0.1680 -0.2548  0.2890
  189SLPC   H7R21826   3.586   6.917   7.468 -0.2867  2.1809  0.1389
  189SLPC   H7S21827   3.466   6.804   7.397  0.3548 -1.0130 -2.8566
  189SLPC   C2821828   3.418   7.017   7.364 -0.3740 -0.2289  0.0808
  189SLPC   H8R21829   3.352   6.985   7.280 -1.6996  2.8209 -0.1241
  189SLPC   H8S21830   3.474   7.103   7.319 -1.4358  0.4808  0.0985
  189SLPC   C2921831   3.342   7.047   7.489 -0.1809  0.5582  0.0793
  189SLPC   H9R21832   3.273   6.967   7.520 -0.5104  0.3069 -1.2993
  189SLPC  C21021833   3.363   7.151   7.575 -0.2277 -0.1309 -0.1509
  189SLPC  H10R21834   3.309   7.146   7.670  0.0458  0.5574  0.0438
  189SLPC  C21121835   3.462   7.265   7.560  0.2921 -0.2053 -0.1593
  189SLPC  H11R21836   3.496   7.280   7.455 -1.2961  1.4798 -0.4707
  189SLPC  H11S21837   3.557   7.255   7.617  1.0410  1.4521 -1.0480
  189SLPC  C21221838   3.391   7.393   7.606 -0.3437  0.5183  0.3365
  189SLPC  H12R21839   3.341   7.451   7.526 -0.1228 -0.8112 -0.7829
  189SLPC  C21321840   3.387   7.439   7.728  0.3954 -0.2458  0.5706
  189SLPC  H13R21841   3.324   7.527   7.748  2.3648  0.9454  1.7894
  189SLPC  C21421842   3.455   7.374   7.844  0.0482  0.0348 -0.0487
  189SLPC  H14R21843   3.531   7.436   7.897  0.1294 -0.7556  0.7626
  189SLPC  H14S21844   3.507   7.278   7.823 -1.5609 -1.3261  2.0388
  189SLPC  C21521845   3.341   7.337   7.949 -0.1407  0.1957 -0.7735
  189SLPC  H15R21846   3.269   7.263   7.907  1.2757 -2.8194  1.9281
  189SLPC  H15S21847   3.275   7.419   7.987  0.6531  0.1714  0.6966
  189SLPC  C21621848   3.395   7.262   8.074  0.0069  0.2863 -1.1080
  189SLPC  H16R21849   3.478   7.327   8.108  0.6621 -1.2373  0.2850
  189SLPC  H16S21850   3.433   7.160   8.050  1.2659  0.9883 -2.1929
  189SLPC  C21721851   3.285   7.238   8.189  0.1368 -0.6979  0.0127
  189SLPC  H17R21852   3.233   7.335   8.208 -0.2993 -0.6469 -1.3641
  189SLPC  H17S21853   3.345   7.212   8.279  0.8623  1.4817  0.1985
  189SLPC  C21821854   3.195   7.118   8.143  0.1240 -0.4128  0.2398
  189SLPC  H18R21855   3.267   7.043   8.103 -1.9528 -0.9790 -2.6051
  189SLPC  H18S21856   3.137   7.168   8.063  0.4695 -0.9552 -0.3542
  189SLPC  H18T21857   3.132   7.068   8.219  0.3939 -1.2463 -0.0740
  189SLPC   C3321858   3.213   6.731   6.798  0.2004  0.2654 -0.4065
  189SLPC   H3X21859   3.153   6.641   6.773  0.5877  0.6648 -2.9686
  189SLPC   H3Y21860   3.143   6.817   6.810 -0.0450  0.1007 -0.6520
  189SLPC   C3421861   3.278   6.709   6.933  0.3468  0.2417 -1.0520
  189SLPC   H4X21862   3.343   6.797   6.950  0.2735  0.0108  0.5429
  189SLPC   H4Y21863   3.333   6.613   6.941 -0.6107 -0.1770  0.8539
  189SLPC   C3521864   3.166   6.687   7.041  0.4249 -0.3900  0.4349
  189SLPC   H5X21865   3.105   6.602   7.003 -0.1684 -1.1578  3.0134
  189SLPC   H5Y21866   3.099   6.775   7.033 -0.2557 -0.8273  1.3158
  189SLPC   C3621867   3.212   6.665   7.186 -0.0882 -0.0032  0.1616
  189SLPC   H6X21868   3.284   6.745   7.211 -0.5521  0.9202 -1.3762
  189SLPC   H6Y21869   3.264   6.566   7.189  0.8251  0.5405  3.5018
  189SLPC   C3721870   3.093   6.653   7.285  0.2652  0.2991  0.0621
  189SLPC   H7X21871   3.026   6.580   7.235  0.8326  0.4623 -0.9441
  189SLPC   H7Y21872   3.049   6.755   7.292  1.2160  0.7355 -0.3223
  189SLPC   C3821873   3.145   6.604   7.423  0.0484  0.4613 -0.0957
  189SLPC   H8X21874   3.185   6.692   7.477  0.6446  0.6923 -0.8953
  189SLPC   H8Y21875   3.237   6.542   7.411  0.5653  1.5240 -1.7957
  189SLPC   C3921876   3.036   6.540   7.509  0.2555  0.1501 -0.0202
  189SLPC   H9X21877   2.990   6.466   7.440 -1.1162  0.2350  0.7666
  189SLPC   H9Y21878   2.961   6.614   7.545 -1.9241 -1.4918 -1.0800
  189SLPC  C31021879   3.086   6.479   7.639 -0.3172 -0.3769 -0.7297
  189SLPC  H10X21880   2.997   6.444   7.696  0.9359 -0.9650  0.8929
  189SLPC  H10Y21881   3.137   6.557   7.700 -0.2034 -0.3263 -0.8870
  189SLPC  C31121882   3.186   6.363   7.619  0.1435  0.7639 -0.4082
  189SLPC  H11X21883   3.289   6.403   7.602  1.4309 -1.9138  0.7252
  189SLPC  H11Y21884   3.143   6.307   7.533 -1.2605  2.1710 -0.6354
  189SLPC  C31221885   3.174   6.254   7.736  0.7100 -0.3291 -1.1103
  189SLPC  H12X21886   3.149   6.316   7.825  1.4321 -1.3697 -0.1750
  189SLPC  H12Y21887   3.275   6.210   7.745  0.3723 -0.6848  1.3387
  189SLPC  C31321888   3.072   6.138   7.707 -0.5187  0.2963 -0.0378
  189SLPC  H13X21889   3.102   6.065   7.785  1.9179 -0.1254 -1.3337
  189SLPC  H13Y21890   3.100   6.095   7.608  1.4626 -1.6827  1.3523
  189SLPC  C31421891   2.925   6.179   7.717 -0.2901 -0.1168 -0.0222
  189SLPC  H14X21892   2.864   6.089   7.695  2.2821 -1.4733 -1.7731
  189SLPC  H14Y21893   2.911   6.263   7.645 -1.9425  0.7669  1.3005
  189SLPC  C31521894   2.879   6.224   7.857 -0.6315 -0.5260  0.2342
  189SLPC  H15X21895   2.769   6.224   7.839 -0.9135 -0.8551  1.8140
  189SLPC  H15Y21896   2.911   6.325   7.889  1.1097 -0.6934 -0.9174
  189SLPC  C31621897   2.905   6.130   7.975  0.1791 -0.1194  0.0054
  189SLPC  H16X21898   3.015   6.137   7.984 -0.0090  0.9966  1.6681
  189SLPC  H16Y21899   2.871   6.026   7.954 -0.8311  0.5257 -1.6857
  189SLPC  C31721900   2.843   6.176   8.108 -0.2152  0.1324  0.5701
  189SLPC  H17X21901   2.737   6.141   8.104  0.3040 -1.3603 -0.4025
  189SLPC  H17Y21902   2.840   6.287   8.104 -0.3824  0.1677  1.5428
  189SLPC  C31821903   2.909   6.139   8.242  0.6384  0.1957 -0.1785
  189SLPC  H18X21904   2.857   6.178   8.332 -0.0439 -0.5831 -0.2205
  189SLPC  H18Y21905   3.018   6.160   8.232  0.8033 -1.3721 -1.8902
  189SLPC  H18Z21906   2.903   6.029   8.260  2.6367  0.0049 -0.5412
  190SLPC     N21907   5.250   6.221   6.391 -0.1263 -0.2628 -0.7310
  190SLPC   C1321908   5.215   6.306   6.504 -0.0675 -0.0384 -0.6135
  190SLPC  H13A21909   5.293   6.379   6.523  0.9066 -1.7098  2.2112
  190SLPC  H13B21910   5.127   6.363   6.478 -0.2299  0.5422  1.1579
  190SLPC  H13C21911   5.199   6.256   6.598 -1.6365  0.2705 -0.7025
  190SLPC   C1421912   5.384   6.158   6.415 -0.6195  0.0216 -0.2509
  190SLPC  H14A21913   5.416   6.093   6.335 -0.8620 -0.9444  0.4197
  190SLPC  H14B21914   5.464   6.226   6.441  0.1660 -1.1165  0.3662
  190SLPC  H14C21915   5.375   6.084   6.493  0.9568 -1.5779 -1.5450
  190SLPC   C1521916   5.260   6.287   6.260  0.0063  0.2945 -0.1608
  190SLPC  H15A21917   5.165   6.324   6.223 -0.0451  0.2971 -0.0283
  190SLPC  H15B21918   5.328   6.371   6.271  1.2985 -0.5944 -1.2272
  190SLPC  H15C21919   5.289   6.212   6.188 -1.8002 -1.5322  0.9870
  190SLPC   C1221920   5.149   6.108   6.384  0.5417 -0.7214 -0.3010
  190SLPC  H12A21921   5.148   6.074   6.486  0.8527  0.1858  0.0104
  190SLPC  H12B21922   5.193   6.020   6.339  1.1973 -0.4505 -0.1863
  190SLPC   C1121923   4.997   6.133   6.354 -0.3675 -0.5326 -0.2269
  190SLPC  H11A21924   4.940   6.042   6.384  0.6513 -1.0995  0.0235
  190SLPC  H11B21925   4.996   6.137   6.243 -1.5427  0.0321 -0.2136
  190SLPC     P21926   4.882   6.365   6.319  0.3657  0.2649  0.1323
  190SLPC   O1321927   4.978   6.470   6.291  0.0964 -0.1769 -0.0379
  190SLPC   O1421928   4.819   6.300   6.202  0.4319 -0.3664  0.3460
  190SLPC   O1221929   4.944   6.256   6.412 -0.4801  0.5726  0.4221
  190SLPC   O1121930   4.758   6.427   6.406 -0.1872  0.7210 -0.1441
  190SLPC    C121931   4.803   6.492   6.535  0.3174 -0.1396 -0.3268
  190SLPC    HA21932   4.914   6.493   6.541  0.2279 -1.7246  2.2669
  190SLPC    HB21933   4.769   6.598   6.527 -0.2418 -0.4057 -1.6774
  190SLPC    C221934   4.745   6.435   6.671  0.1359 -0.2084 -0.0161
  190SLPC    HS21935   4.794   6.486   6.757 -1.4545  0.2958  0.5996
  190SLPC   O2121936   4.762   6.292   6.675 -0.2097 -0.0720 -0.2010
  190SLPC   C2121937   4.881   6.249   6.704  0.3429  0.1056  0.3466
  190SLPC   O2221938   4.980   6.315   6.726 -0.3092 -0.4560  0.1703
  190SLPC   C2221939   4.872   6.094   6.697 -0.2816  0.5029  0.5278
  190SLPC   H2R21940   4.795   6.058   6.625  0.0730  0.1256  0.3385
  190SLPC   H2S21941   4.967   6.058   6.653 -1.8834 -1.2913 -1.6201
  190SLPC    C321942   4.598   6.469   6.677  0.1491  0.7345  0.3146
  190SLPC    HX21943   4.553   6.421   6.587  0.7119  1.2802 -0.2548
  190SLPC    HY21944   4.578   6.578   6.675 -1.2666  0.4863 -0.1349
  190SLPC   O3121945   4.540   6.419   6.802 -0.9874 -0.3340  0.2656
  190SLPC   C3121946   4.452   6.320   6.782 -0.4538  0.3779  0.3672
  190SLPC   O3221947   4.446   6.249   6.687 -0.7598  0.1994 -0.6357
  190SLPC   C3221948   4.373   6.306   6.915 -0.1609  0.1947  0.3771
  190SLPC   H2X21949   4.334   6.409   6.931  1.9487  1.1951 -0.6866
  190SLPC   H2Y21950   4.434   6.287   7.006 -0.0297 -1.5775 -0.0715
  190SLPC   C2321951   4.858   6.030   6.835 -0.0492 -0.5825 -0.7987
  190SLPC   H3R21952   4.933   6.056   6.913 -0.2888 -1.5481 -0.2422
  190SLPC   H3S21953   4.877   5.922   6.820  2.1405 -0.2644 -0.5537
  190SLPC   C2421954   4.716   6.044   6.890 -0.5456  0.0769  0.5709
  190SLPC   H4R21955   4.647   5.998   6.816 -2.0492  3.3504 -0.1739
  190SLPC   H4S21956   4.683   6.150   6.882 -0.0917  0.4874  3.4674
  190SLPC   C2521957   4.692   5.977   7.028 -1.2238  0.3454  0.6634
  190SLPC   H5R21958   4.765   6.008   7.105 -0.1920  1.8542 -0.8964
  190SLPC   H5S21959   4.707   5.869   7.006  0.3954  0.9711 -1.4338
  190SLPC   C2621960   4.547   5.995   7.073  0.3402 -0.3011 -0.6036
  190SLPC   H6R21961   4.486   5.965   6.985 -1.1534 -0.0958  0.3290
  190SLPC   H6S21962   4.528   6.100   7.105  1.0470 -0.2355 -0.3951
  190SLPC   C2721963   4.516   5.899   7.184  0.1563  0.3917  0.7518
  190SLPC   H7R21964   4.565   5.800   7.168 -0.7903 -0.3650  2.3937
  190SLPC   H7S21965   4.408   5.871   7.184  0.3433 -0.3339  0.9410
  190SLPC   C2821966   4.571   5.950   7.318 -0.2819  0.4220  0.1599
  190SLPC   H8R21967   4.658   6.011   7.287  1.8685 -2.2696  0.6748
  190SLPC   H8S21968   4.612   5.865   7.378  0.1500  0.3507 -0.2311
  190SLPC   C2921969   4.489   6.043   7.399  0.3016  0.2089 -0.1679
  190SLPC   H9R21970   4.434   6.126   7.352  0.9607  0.4152 -0.5854
  190SLPC  C21021971   4.466   6.022   7.531 -0.1162 -0.1900  0.3482
  190SLPC  H10R21972   4.401   6.096   7.580  0.1763  0.3144 -0.0238
  190SLPC  C21121973   4.505   5.920   7.637  1.4866  0.0777  0.5464
  190SLPC  H11R21974   4.588   5.963   7.697  1.5344  1.9468 -0.8133
  190SLPC  H11S21975   4.548   5.828   7.593  0.8328 -0.3742  0.8475
  190SLPC  C21221976   4.391   5.876   7.724  0.2679  0.2632  0.8128
  190SLPC  H12R21977   4.340   5.783   7.694  0.0761  0.4276  0.6295
  190SLPC  C21321978   4.353   5.939   7.834 -0.1265  0.7467  0.0299
  190SLPC  H13R21979   4.268   5.898   7.891 -0.9036  0.5928 -1.2322
  190SLPC  C21421980   4.407   6.068   7.892  0.3678 -0.1747 -0.7522
  190SLPC  H14R21981   4.324   6.110   7.954  1.2922 -0.5463  0.7606
  190SLPC  H14S21982   4.438   6.134   7.808 -0.8959 -0.2753 -1.3062
  190SLPC  C21521983   4.511   6.071   8.005 -0.4801 -0.4232  0.1506
  190SLPC  H15R21984   4.529   6.165   8.061 -0.6431 -0.6324  0.5611
  190SLPC  H15S21985   4.606   6.061   7.948  0.2478  3.1604  0.6499
  190SLPC  C21621986   4.495   5.960   8.114  0.3247  0.4143  0.2800
  190SLPC  H16R21987   4.596   5.958   8.162  0.4792  2.0277  0.0432
  190SLPC  H16S21988   4.482   5.867   8.056  0.0831  0.8094 -0.3021
  190SLPC  C21721989   4.396   5.973   8.231  0.2159  0.1179 -0.8914
  190SLPC  H17R21990   4.394   5.882   8.295 -1.7309  0.9299  0.2185
  190SLPC  H17S21991   4.294   5.981   8.188  0.1844 -0.5928 -0.9600
  190SLPC  C21821992   4.423   6.092   8.322  0.4817  0.5490  0.5096
  190SLPC  H18R21993   4.417   6.190   8.271 -0.0695  0.3003  0.0965
  190SLPC  H18S21994   4.527   6.084   8.360  0.8319 -3.1758 -0.9983
  190SLPC  H18T21995   4.352   6.096   8.406  0.7872  1.2186  0.7384
  190SLPC   C3321996   4.257   6.204   6.909  0.3455 -0.2892 -0.2019
  190SLPC   H3X21997   4.302   6.102   6.901 -3.4647 -2.1109  0.3829
  190SLPC   H3Y21998   4.214   6.227   6.809 -0.5559 -0.3452  0.1661
  190SLPC   C3421999   4.162   6.215   7.026  0.1786 -0.2177  0.9261
  190SLPC   H4X22000   4.073   6.157   6.994  0.5286 -1.4562  2.1366
  190SLPC   H4Y22001   4.125   6.320   7.028  1.0494  0.1644 -1.2516
  190SLPC   C3522002   4.204   6.180   7.172  0.0399  0.7905  0.3086
  190SLPC   H5X22003   4.289   6.246   7.200  1.4323 -0.7292 -0.2328
  190SLPC   H5Y22004   4.243   6.077   7.184  0.8442  1.3101  2.4928
  190SLPC   C3622005   4.091   6.199   7.273 -0.0034 -0.1996 -0.2129
  190SLPC   H6X22006   4.002   6.146   7.233  0.0597  1.4318 -2.5704
  190SLPC   H6Y22007   4.055   6.304   7.269  3.1565  0.9107 -0.8708
  190SLPC   C3722008   4.115   6.162   7.417  0.1257  0.0805 -0.2694
  190SLPC   H7X22009   4.198   6.225   7.458  0.0991 -0.5011  0.7036
  190SLPC   H7Y22010   4.159   6.060   7.411 -2.4515 -1.1022  0.3120
  190SLPC   C3822011   3.995   6.158   7.517  0.7470  0.6438  0.8670
  190SLPC   H8X22012   3.920   6.091   7.471  1.1480  0.2271  0.8195
  190SLPC   H8Y22013   3.957   6.263   7.521  2.4255  1.2469  1.5464
  190SLPC   C3922014   4.040   6.113   7.650 -0.3801  0.3358 -0.0651
  190SLPC   H9X22015   4.044   6.199   7.721 -0.2123  0.4995 -0.2752
  190SLPC   H9Y22016   4.141   6.068   7.644 -0.7877 -0.7436  0.9660
  190SLPC  C31022017   3.934   6.014   7.710  0.0470 -0.3475  0.0307
  190SLPC  H10X22018   3.933   5.930   7.638  0.0678 -0.1038 -0.2534
  190SLPC  H10Y22019   3.832   6.059   7.708  0.3118  0.6691  4.5731
  190SLPC  C31122020   3.973   5.956   7.847  1.3022  0.2261  0.0671
  190SLPC  H11X22021   4.076   5.915   7.837  0.9002 -0.9979  0.8993
  190SLPC  H11Y22022   3.909   5.868   7.870  2.1143 -0.3612  0.1050
  190SLPC  C31222023   3.968   6.053   7.973  0.4252  0.2794 -0.0604
  190SLPC  H12X22024   3.861   6.080   7.977  0.0749 -1.3753  3.0833
  190SLPC  H12Y22025   4.029   6.145   7.956 -0.6951  0.7966 -1.3373
  190SLPC  C31322026   3.997   5.968   8.090 -0.5144  0.0962 -0.1837
  190SLPC  H13X22027   4.096   5.925   8.066  0.0751  2.1583 -1.5780
  190SLPC  H13Y22028   3.929   5.879   8.097  2.8554 -2.4903  1.0226
  190SLPC  C31422029   4.009   6.041   8.228 -0.0573 -0.5464 -0.4795
  190SLPC  H14X22030   4.104   6.099   8.219 -0.0599 -0.4485  0.0670
  190SLPC  H14Y22031   4.020   5.960   8.304  0.3265 -0.3522 -0.3226
  190SLPC  C31522032   3.893   6.134   8.255  0.2111 -0.6710 -0.3449
  190SLPC  H15X22033   3.891   6.211   8.175  2.0373  0.8743  1.0557
  190SLPC  H15Y22034   3.916   6.186   8.350  1.4791  0.1105 -1.0626
  190SLPC  C31622035   3.752   6.067   8.263 -0.2914  0.7335  0.8843
  190SLPC  H16X22036   3.729   6.034   8.159  0.3428  1.8253  0.3809
  190SLPC  H16Y22037   3.698   6.158   8.296  1.9575  1.8687  1.5457
  190SLPC  C31722038   3.748   5.962   8.375 -0.3181  0.3156  0.5281
  190SLPC  H17X22039   3.809   5.993   8.463 -0.7633  1.2584  0.5146
  190SLPC  H17Y22040   3.794   5.869   8.335 -3.2190 -1.1381  0.5001
  190SLPC  C31822041   3.614   5.922   8.416 -0.4556  0.1460  0.3245
  190SLPC  H18X22042   3.616   5.848   8.499  0.4954 -1.3167 -0.9667
  190SLPC  H18Y22043   3.559   5.889   8.326 -0.2048  0.3992  0.0763
  190SLPC  H18Z22044   3.562   6.007   8.463 -1.8411 -1.3275  1.5043
  191SLPC     N22045   3.939   1.788   5.978 -0.5230 -0.7647  0.3056
  191SLPC   C1322046   3.877   1.707   5.872 -0.2573 -0.1478  0.3248
  191SLPC  H13A22047   3.927   1.612   5.863  1.7336  1.0725 -2.0836
  191SLPC  H13B22048   3.773   1.690   5.899 -0.1582 -0.2176  0.6657
  191SLPC  H13C22049   3.875   1.755   5.776  0.8050 -1.3393 -0.3088
  191SLPC   C1422050   3.859   1.912   5.991 -0.4199 -0.3909 -0.1290
  191SLPC  H14A22051   3.898   1.983   6.062 -2.3369  0.2265  0.3417
  191SLPC  H14B22052   3.860   1.966   5.898  0.9360 -1.4352 -0.7488
  191SLPC  H14C22053   3.756   1.886   6.013 -0.4464  0.7530  1.2163
  191SLPC   C1522054   4.077   1.815   5.931 -0.0066 -0.2197  0.0378
  191SLPC  H15A22055   4.142   1.808   6.017 -0.1846  0.5170  0.2346
  191SLPC  H15B22056   4.111   1.747   5.854  0.9108  1.4697 -1.0933
  191SLPC  H15C22057   4.082   1.909   5.877  1.4280 -0.4785 -0.3030
  191SLPC   C1222058   3.940   1.713   6.113 -0.3889 -0.2029 -0.2992
  191SLPC  H12A22059   4.013   1.756   6.180 -0.0688 -3.4593  1.5343
  191SLPC  H12B22060   3.967   1.611   6.091  0.9256 -0.4983  2.5516
  191SLPC   C1122061   3.808   1.692   6.192 -0.5258  0.1977 -0.4439
  191SLPC  H11A22062   3.774   1.794   6.221 -1.4754 -0.3613  0.4328
  191SLPC  H11B22063   3.831   1.643   6.289 -1.6729  1.3765  0.4424
  191SLPC     P22064   3.711   1.467   6.099 -0.5208 -0.7350 -0.5730
  191SLPC   O1322065   3.579   1.422   6.057  0.4660  0.1834  0.6359
  191SLPC   O1422066   3.823   1.406   6.025  0.2151 -0.1774 -0.7952
  191SLPC   O1222067   3.717   1.623   6.117 -0.0443 -0.1591  0.3796
  191SLPC   O1122068   3.737   1.420   6.249  0.3684 -0.3748  0.0089
  191SLPC    C122069   3.655   1.458   6.360 -0.0331  0.4903  0.1059
  191SLPC    HA22070   3.693   1.416   6.455  1.5794  0.2929 -0.6171
  191SLPC    HB22071   3.654   1.567   6.384  3.0855  0.4428  0.6218
  191SLPC    C222072   3.514   1.387   6.357 -0.3163 -0.5054  0.4927
  191SLPC    HS22073   3.445   1.423   6.278 -1.0542 -1.9541  0.4603
  191SLPC   O2122074   3.453   1.400   6.485  0.4715  0.1848  0.5917
  191SLPC   C2122075   3.394   1.520   6.505 -0.6858  0.1228  0.3581
  191SLPC   O2222076   3.391   1.608   6.421  0.6268  0.2634 -0.0077
  191SLPC   C2222077   3.336   1.537   6.646  0.7630  0.2787 -0.6186
  191SLPC   H2R22078   3.266   1.451   6.650 -0.0789  0.8226 -2.8774
  191SLPC   H2S22079   3.421   1.530   6.718 -0.5243  1.6274  1.0575
  191SLPC    C322080   3.541   1.236   6.329 -0.4210 -0.2441 -0.6732
  191SLPC    HX22081   3.647   1.221   6.356 -1.0329 -0.2510  1.8254
  191SLPC    HY22082   3.531   1.221   6.219  3.3470  0.0788 -1.1082
  191SLPC   O3122083   3.448   1.152   6.404  0.3485 -0.2879  0.4416
  191SLPC   C3122084   3.329   1.142   6.348  0.5672  0.3736 -0.0257
  191SLPC   O3222085   3.294   1.199   6.246  0.4367 -0.2429 -0.4883
  191SLPC   C3222086   3.242   1.047   6.413 -0.4038 -0.3294  0.0199
  191SLPC   H2X22087   3.266   0.946   6.373 -1.7233 -0.8209  0.4484
  191SLPC   H2Y22088   3.140   1.060   6.372  0.8509  0.9129 -2.8145
  191SLPC   C2322089   3.279   1.677   6.669  0.2667 -0.8756 -0.8368
  191SLPC   H3R22090   3.176   1.687   6.629 -0.1228 -1.6698 -0.0601
  191SLPC   H3S22091   3.349   1.756   6.634  1.0755  0.2358  2.9995
  191SLPC   C2422092   3.271   1.702   6.823 -0.2112  0.0176  1.0124
  191SLPC   H4R22093   3.370   1.702   6.872  0.9709  1.9429 -1.2381
  191SLPC   H4S22094   3.223   1.616   6.873  0.0257 -0.2981  0.6923
  191SLPC   C2522095   3.200   1.839   6.855 -0.1237 -0.1143 -0.5959
  191SLPC   H5R22096   3.108   1.852   6.793  0.1345  0.3085 -0.8924
  191SLPC   H5S22097   3.274   1.914   6.821 -0.3304 -0.5228 -2.0049
  191SLPC   C2622098   3.150   1.862   6.997 -0.1501 -0.0909 -0.1968
  191SLPC   H6R22099   3.242   1.846   7.058 -0.2772  2.3766  0.7149
  191SLPC   H6S22100   3.074   1.785   7.021  0.1484 -0.5818 -0.8126
  191SLPC   C2722101   3.105   2.001   7.035 -0.4307  0.4571  0.2780
  191SLPC   H7R22102   3.023   2.017   6.962 -0.4795  0.5532  0.3537
  191SLPC   H7S22103   3.190   2.069   7.009 -0.5011  1.2915  2.1690
  191SLPC   C2822104   3.062   2.016   7.178 -0.0521 -0.0043 -0.4837
  191SLPC   H8R22105   3.035   2.122   7.199  0.0017  0.5106 -2.9571
  191SLPC   H8S22106   3.149   2.002   7.246 -0.4082 -2.6134 -0.5275
  191SLPC   C2922107   2.947   1.929   7.215 -0.3319  0.1315  0.2672
  191SLPC   H9R22108   2.864   1.912   7.145  1.4908 -0.2296 -1.8657
  191SLPC  C21022109   2.922   1.871   7.339 -0.4953 -0.4099  0.4481
  191SLPC  H10R22110   2.835   1.805   7.349  0.5021 -2.0335 -1.3616
  191SLPC  C21122111   3.007   1.865   7.464  0.0021  0.0639  0.4848
  191SLPC  H11R22112   3.113   1.897   7.452 -0.1083  0.3635  0.2990
  191SLPC  H11S22113   3.012   1.758   7.490  2.7458 -0.8810 -3.4918
  191SLPC  C21222114   2.959   1.964   7.575  0.0955 -0.3077 -0.2296
  191SLPC  H12R22115   2.990   2.068   7.561 -0.2043 -0.3157 -0.9536
  191SLPC  C21322116   2.889   1.945   7.687 -0.4092 -0.4966 -0.0653
  191SLPC  H13R22117   2.876   2.035   7.749 -0.2285 -0.0189 -0.7213
  191SLPC  C21422118   2.825   1.822   7.741  0.8052  0.0023 -0.0689
  191SLPC  H14R22119   2.853   1.739   7.672 -1.7789 -0.7277 -0.2939
  191SLPC  H14S22120   2.715   1.837   7.731  0.7793 -0.1412 -0.0022
  191SLPC  C21522121   2.861   1.789   7.887 -0.2827 -0.1359 -0.1816
  191SLPC  H15R22122   2.969   1.801   7.908 -0.6235 -0.6554  1.9889
  191SLPC  H15S22123   2.833   1.683   7.908 -0.5749  0.4718  2.6883
  191SLPC  C21622124   2.789   1.882   7.977  0.4320  0.9589 -0.2860
  191SLPC  H16R22125   2.687   1.912   7.946  0.0566  0.1935  0.1747
  191SLPC  H16S22126   2.840   1.981   7.977 -0.5378  1.4710  0.4439
  191SLPC  C21722127   2.785   1.846   8.124  0.5087 -0.0305  0.1745
  191SLPC  H17R22128   2.869   1.777   8.147  1.2674  1.8133  3.3541
  191SLPC  H17S22129   2.690   1.798   8.155  1.3551 -2.4502 -0.8569
  191SLPC  C21822130   2.822   1.969   8.216  0.3587  0.4062  0.3287
  191SLPC  H18R22131   2.734   2.036   8.209 -0.6392 -0.4694  3.5977
  191SLPC  H18S22132   2.910   2.027   8.182  0.3748 -0.0447 -0.4157
  191SLPC  H18T22133   2.823   1.941   8.323  0.4428 -1.7427 -0.2070
  191SLPC   C3322134   3.252   1.069   6.569  0.1507  0.0275 -0.1838
  191SLPC   H3X22135   3.244   1.178   6.588 -1.2874  0.2810 -2.0423
  191SLPC   H3Y22136   3.355   1.051   6.606  0.8351  0.6069 -1.7311
  191SLPC   C3422137   3.141   0.995   6.653  0.5611  1.0527  0.5975
  191SLPC   H4X22138   3.123   0.895   6.608 -2.9999  1.3083  1.3047
  191SLPC   H4Y22139   3.045   1.049   6.640  0.7181  1.2431  0.2410
  191SLPC   C3522140   3.170   0.981   6.806 -0.0558 -0.2414  0.5475
  191SLPC   H5X22141   3.212   1.078   6.839  1.9497 -0.2479 -1.8439
  191SLPC   H5Y22142   3.251   0.906   6.818 -1.6300 -2.2940 -1.1028
  191SLPC   C3622143   3.043   0.939   6.880  0.7543  0.4456  0.1046
  191SLPC   H6X22144   2.987   0.866   6.819  0.2298  0.0943  1.0034
  191SLPC   H6Y22145   2.984   1.032   6.894 -0.5687 -0.3758  0.0775
  191SLPC   C3722146   3.066   0.887   7.028  0.4534  0.1704 -0.3673
  191SLPC   H7X22147   3.131   0.797   7.032  0.8194  0.4094 -0.8883
  191SLPC   H7Y22148   2.974   0.863   7.085  1.3042 -0.5783  0.7204
  191SLPC   C3822149   3.127   0.986   7.116  0.7208  0.0357 -0.2059
  191SLPC   H8X22150   3.065   1.078   7.108  0.7594  0.0174 -0.7435
  191SLPC   H8Y22151   3.228   1.011   7.078  1.2764  0.1135  1.2804
  191SLPC   C3922152   3.145   0.940   7.264 -0.3527  0.3655 -0.2874
  191SLPC   H9X22153   3.209   0.849   7.267  0.4644  0.9860  1.8444
  191SLPC   H9Y22154   3.046   0.905   7.300 -0.6165 -0.2893 -1.6156
  191SLPC  C31022155   3.213   1.046   7.354 -0.0679 -0.1884 -0.1019
  191SLPC  H10X22156   3.161   1.143   7.339 -2.4576 -1.6552 -1.5598
  191SLPC  H10Y22157   3.317   1.062   7.317  0.1911  2.5777  1.6191
  191SLPC  C31122158   3.212   0.991   7.501 -0.4284 -0.2739 -0.2762
  191SLPC  H11X22159   3.260   0.891   7.509  1.2922  0.2171 -3.5655
  191SLPC  H11Y22160   3.107   0.996   7.536  0.2216 -0.6902  1.8119
  191SLPC  C31222161   3.295   1.075   7.592  0.5408  0.2480  0.3187
  191SLPC  H12X22162   3.250   1.176   7.599 -0.2174 -0.0931  0.4304
  191SLPC  H12Y22163   3.398   1.080   7.551  1.3311  1.6283  2.4326
  191SLPC  C31322164   3.297   1.029   7.735  0.5924 -0.0159 -0.1404
  191SLPC  H13X22165   3.326   0.924   7.757  0.9133  0.2173  0.5611
  191SLPC  H13Y22166   3.188   1.035   7.760  1.3063  2.1480  2.7654
  191SLPC  C31422167   3.368   1.125   7.835  0.1588  0.2201 -0.2149
  191SLPC  H14X22168   3.315   1.222   7.842  1.4884  0.8389  1.5418
  191SLPC  H14Y22169   3.473   1.131   7.799  0.2928 -0.8906 -0.0314
  191SLPC  C31522170   3.380   1.051   7.972 -0.5706 -0.1925 -0.8532
  191SLPC  H15X22171   3.459   1.107   8.027 -0.4191 -0.6386 -0.6081
  191SLPC  H15Y22172   3.414   0.945   7.967  0.5487  0.1300 -0.1461
  191SLPC  C31622173   3.241   1.055   8.035 -0.2192 -0.3265 -0.6179
  191SLPC  H16X22174   3.178   0.980   7.982  1.0533  0.2356 -2.9712
  191SLPC  H16Y22175   3.187   1.152   8.026  0.0423  0.0188  1.2096
  191SLPC  C31722176   3.244   1.000   8.178 -1.0197 -0.4939 -0.5782
  191SLPC  H17X22177   3.281   0.896   8.163 -2.0129 -1.0148  0.5374
  191SLPC  H17Y22178   3.145   1.002   8.228 -1.9887 -2.8393 -2.2898
  191SLPC  C31822179   3.340   1.078   8.270  0.1788  0.1638  0.6424
  191SLPC  H18X22180   3.355   1.021   8.364  1.3126 -1.1022 -0.2906
  191SLPC  H18Y22181   3.309   1.185   8.278 -1.7225 -0.2066 -1.1704
  191SLPC  H18Z22182   3.437   1.066   8.218 -0.4672 -0.1145 -0.5347
  192SLPC     N22183   4.006   1.131   6.273  0.1354  0.6578  0.0653
  192SLPC   C1322184   4.068   1.066   6.153  0.5759 -0.1526 -0.4000
  192SLPC  H13A22185   4.082   0.962   6.176 -0.1119  0.0130  0.8235
  192SLPC  H13B22186   4.000   1.058   6.070  1.0634 -0.6023 -0.7570
  192SLPC  H13C22187   4.161   1.113   6.127  0.3814  1.2079  1.2589
  192SLPC   C1422188   4.090   1.104   6.399  0.7443  0.7935 -0.0982
  192SLPC  H14A22189   4.097   1.000   6.424  0.3944  1.2054  1.7343
  192SLPC  H14B22190   4.191   1.138   6.383  1.8022 -2.2024 -0.1191
  192SLPC  H14C22191   4.048   1.164   6.479  0.5406  0.6665 -0.1092
  192SLPC   C1522192   3.875   1.067   6.297 -0.3447  0.0966 -0.7898
  192SLPC  H15A22193   3.801   1.087   6.221 -2.3674 -0.5962  0.9499
  192SLPC  H15B22194   3.891   0.962   6.316 -2.2233  0.0972  0.9056
  192SLPC  H15C22195   3.838   1.107   6.390  1.0088  1.3309 -0.7495
  192SLPC   C1222196   3.996   1.281   6.261 -0.6752 -0.5894  0.2097
  192SLPC  H12A22197   3.948   1.320   6.349 -0.3333 -2.5288  1.2730
  192SLPC  H12B22198   3.927   1.291   6.179  1.8511 -0.6384 -2.0057
  192SLPC   C1122199   4.119   1.362   6.239 -0.6599  0.1146 -0.7544
  192SLPC  H11A22200   4.079   1.462   6.213 -0.3919  0.7340  1.1800
  192SLPC  H11B22201   4.175   1.324   6.150  2.7111 -0.0454  1.3380
  192SLPC     P22202   4.188   1.459   6.477  0.2631 -0.3648  0.1101
  192SLPC   O1322203   4.261   1.395   6.591  0.5306 -0.3490  0.7596
  192SLPC   O1422204   4.222   1.593   6.447 -0.1975 -0.4648  0.1173
  192SLPC   O1222205   4.210   1.362   6.351  0.0459  0.1449 -0.3938
  192SLPC   O1122206   4.032   1.447   6.518 -0.1464  0.1704 -0.7071
  192SLPC    C122207   3.977   1.379   6.633 -0.2345  0.3880  0.1897
  192SLPC    HA22208   3.876   1.350   6.600 -0.2618  0.3469  0.3067
  192SLPC    HB22209   4.026   1.287   6.671  0.8196  1.9027  2.6323
  192SLPC    C222210   3.974   1.470   6.758 -0.4013 -0.4013 -0.1255
  192SLPC    HS22211   3.896   1.436   6.831  1.0025 -3.6807 -0.0654
  192SLPC   O2122212   3.955   1.606   6.720 -0.5146  0.4918  0.2514
  192SLPC   C2122213   3.823   1.634   6.694 -0.4322 -0.1583  0.0499
  192SLPC   O2222214   3.732   1.560   6.718 -0.1146 -0.0441 -0.3507
  192SLPC   C2222215   3.815   1.778   6.644  0.6432  0.5852 -0.4010
  192SLPC   H2R22216   3.881   1.839   6.710 -0.7674  1.0960  0.5482
  192SLPC   H2S22217   3.874   1.786   6.550 -2.4913 -0.4373 -2.5400
  192SLPC    C322218   4.109   1.457   6.843  0.6126  0.8050  0.2547
  192SLPC    HX22219   4.197   1.489   6.782  0.7809 -0.0297  0.0542
  192SLPC    HY22220   4.143   1.354   6.863 -2.8379 -0.8178 -1.7723
  192SLPC   O3122221   4.096   1.538   6.963  0.9936 -0.4799 -0.2449
  192SLPC   C3122222   4.139   1.663   6.952  0.1876 -0.4942  0.5191
  192SLPC   O3222223   4.171   1.718   6.849 -0.3829 -0.6109  0.4577
  192SLPC   C3222224   4.124   1.728   7.088  0.0690  0.1704 -0.4141
  192SLPC   H2X22225   4.212   1.794   7.101  2.2010 -1.9256 -3.4435
  192SLPC   H2Y22226   4.118   1.654   7.171  1.1899  1.4491  0.8259
  192SLPC   C2322227   3.683   1.854   6.619 -0.1074 -0.2768 -0.0701
  192SLPC   H3R22228   3.630   1.815   6.529  0.6888  1.5471 -1.3740
  192SLPC   H3S22229   3.694   1.964   6.608 -1.2884 -0.1325  0.1548
  192SLPC   C2422230   3.591   1.863   6.743 -0.2740 -0.1767 -0.6319
  192SLPC   H4R22231   3.561   1.756   6.744  0.6995 -0.5169 -3.2988
  192SLPC   H4S22232   3.501   1.926   6.726 -0.1710  0.2897  0.4759
  192SLPC   C2522233   3.652   1.901   6.875 -0.0108  0.4108 -0.3416
  192SLPC   H5R22234   3.713   1.994   6.867  1.1714 -0.3368 -0.1945
  192SLPC   H5S22235   3.726   1.823   6.902 -0.1377 -0.2017 -1.7070
  192SLPC   C2622236   3.546   1.915   6.983  0.0148  0.0876  0.1364
  192SLPC   H6R22237   3.504   1.817   7.013 -1.3934  0.5694 -0.1890
  192SLPC   H6S22238   3.452   1.966   6.951  1.8620  2.5742 -1.5564
  192SLPC   C2722239   3.600   1.986   7.108  0.0813 -0.2824  0.2874
  192SLPC   H7R22240   3.627   2.091   7.081 -0.8310 -0.0150  0.4094
  192SLPC   H7S22241   3.691   1.926   7.130  0.0810  0.2964  1.8918
  192SLPC   C2822242   3.499   1.981   7.233 -0.9262 -0.0381  0.3692
  192SLPC   H8R22243   3.472   1.876   7.260  0.8284 -0.2403  1.4048
  192SLPC   H8S22244   3.408   2.042   7.212  0.3992  1.4329 -1.1979
  192SLPC   C2922245   3.564   2.034   7.354  0.0386  0.6743 -0.0546
  192SLPC   H9R22246   3.667   2.073   7.341  0.9345 -1.6358 -0.1098
  192SLPC  C21022247   3.518   2.046   7.483 -0.9197  0.2565  0.0990
  192SLPC  H10R22248   3.594   2.066   7.560 -0.8079  1.0952 -0.2261
  192SLPC  C21122249   3.386   1.999   7.544 -0.4453 -0.6593  0.5026
  192SLPC  H11R22250   3.415   1.946   7.637  1.7398  0.1668  0.3194
  192SLPC  H11S22251   3.340   1.920   7.481  1.3736 -0.8417 -0.6474
  192SLPC  C21222252   3.291   2.115   7.548  0.3093  0.3565 -0.1574
  192SLPC  H12R22253   3.247   2.160   7.458 -0.2765  0.7648  0.3249
  192SLPC  C21322254   3.260   2.182   7.658  0.1966 -0.7531  0.0040
  192SLPC  H13R22255   3.180   2.258   7.658  0.6217 -0.3061  1.6513
  192SLPC  C21422256   3.314   2.149   7.800 -0.0764  0.2151  0.0853
  192SLPC  H14R22257   3.390   2.224   7.828  0.8398 -0.6521 -0.0710
  192SLPC  H14S22258   3.370   2.053   7.796 -0.9235 -0.3184  0.6846
  192SLPC  C21522259   3.216   2.140   7.918 -0.1639  0.2930 -0.4221
  192SLPC  H15R22260   3.128   2.073   7.910 -1.1813  1.4983  0.3859
  192SLPC  H15S22261   3.160   2.234   7.937  0.2331  0.3456  0.5764
  192SLPC  C21622262   3.295   2.116   8.048 -0.6418  0.5525 -1.0195
  192SLPC  H16R22263   3.350   2.206   8.082  0.7672  0.0491 -1.9011
  192SLPC  H16S22264   3.371   2.034   8.046 -2.6155 -1.3535 -0.2510
  192SLPC  C21722265   3.216   2.089   8.179 -0.5896  0.4493  0.3309
  192SLPC  H17R22266   3.160   1.994   8.164  0.3677 -0.1650  0.5971
  192SLPC  H17S22267   3.294   2.079   8.257  1.1721  0.1378 -1.4341
  192SLPC  C21822268   3.119   2.204   8.223  1.2985 -0.0891  0.2280
  192SLPC  H18R22269   3.058   2.176   8.312 -0.8852  0.9592 -0.9015
  192SLPC  H18S22270   3.055   2.213   8.133 -0.5877 -1.7493  1.3547
  192SLPC  H18T22271   3.171   2.302   8.233  0.6228  0.2794  0.1480
  192SLPC   C3322272   3.996   1.823   7.087  0.1602 -0.1463  0.0941
  192SLPC   H3X22273   3.902   1.768   7.065 -0.2265  0.5786 -0.0918
  192SLPC   H3Y22274   4.009   1.901   7.008  0.0859 -1.3043 -1.0743
  192SLPC   C3422275   3.967   1.893   7.215 -0.1569 -0.0870 -0.1191
  192SLPC   H4X22276   3.873   1.947   7.195  0.0363  0.3409  0.1138
  192SLPC   H4Y22277   4.054   1.957   7.242  0.5454 -1.8263  1.9762
  192SLPC   C3522278   3.954   1.797   7.326 -0.5206 -0.4514  0.4360
  192SLPC   H5X22279   4.052   1.766   7.366 -0.3918 -0.2605  0.2680
  192SLPC   H5Y22280   3.893   1.714   7.285 -1.8906  1.2586 -1.0774
  192SLPC   C3622281   3.881   1.859   7.442  0.4559  0.5809  0.4339
  192SLPC   H6X22282   3.789   1.901   7.396  0.6007 -0.4617 -0.8275
  192SLPC   H6Y22283   3.946   1.938   7.485  0.1398  2.2004 -1.9761
  192SLPC   C3722284   3.851   1.753   7.554  1.0649  0.0207 -0.1109
  192SLPC   H7X22285   3.791   1.801   7.634  4.1662  1.9000  1.2261
  192SLPC   H7Y22286   3.951   1.724   7.593  0.5886 -1.5541 -0.0595
  192SLPC   C3822287   3.758   1.643   7.509  0.5775  0.3248  0.3460
  192SLPC   H8X22288   3.788   1.592   7.415  0.8032 -1.9535  1.6165
  192SLPC   H8Y22289   3.662   1.695   7.490  0.3840 -0.8680 -2.1899
  192SLPC   C3922290   3.726   1.536   7.614  0.9695  0.3717  0.1342
  192SLPC   H9X22291   3.829   1.496   7.625  0.5845 -0.4774  0.7266
  192SLPC   H9Y22292   3.661   1.456   7.571  0.6063  0.1406  1.0806
  192SLPC  C31022293   3.679   1.588   7.750 -0.0962  0.4747  1.0966
  192SLPC  H10X22294   3.579   1.629   7.723  1.4324  3.1359 -0.8513
  192SLPC  H10Y22295   3.738   1.673   7.793 -0.5250  1.7521 -0.7648
  192SLPC  C31122296   3.667   1.475   7.855  0.4989 -0.3724 -0.2617
  192SLPC  H11X22297   3.769   1.431   7.854 -0.1605 -1.9876  0.6384
  192SLPC  H11Y22298   3.604   1.389   7.822  0.4954 -0.9516  1.2472
  192SLPC  C31222299   3.619   1.527   7.992  0.3177  0.3290 -0.1236
  192SLPC  H12X22300   3.533   1.597   7.979 -1.0364 -1.6186 -2.0653
  192SLPC  H12Y22301   3.701   1.575   8.050  0.8618  1.4085 -1.7390
  192SLPC  C31322302   3.565   1.412   8.082  0.2258  0.3103  0.2928
  192SLPC  H13X22303   3.648   1.339   8.096  1.5046  1.5412 -0.8001
  192SLPC  H13Y22304   3.490   1.365   8.014 -0.4169  0.0741  1.1529
  192SLPC  C31422305   3.502   1.451   8.219 -0.0001 -0.1079 -0.0722
  192SLPC  H14X22306   3.563   1.528   8.270  0.1148 -1.7354  2.3579
  192SLPC  H14Y22307   3.501   1.362   8.287  0.1323 -1.1262 -1.3942
  192SLPC  C31522308   3.355   1.493   8.209 -0.3624 -0.4702 -0.0615
  192SLPC  H15X22309   3.297   1.423   8.145 -2.0029  1.2608 -0.5323
  192SLPC  H15Y22310   3.359   1.585   8.147  0.8809  0.4706  1.3922
  192SLPC  C31622311   3.284   1.537   8.334 -0.6106  0.1778 -0.7955
  192SLPC  H16X22312   3.178   1.564   8.313  0.0299  2.3008 -1.4127
  192SLPC  H16Y22313   3.325   1.628   8.382 -0.9142 -1.0400  1.8593
  192SLPC  C31722314   3.300   1.437   8.450  0.6214  0.0368  0.0927
  192SLPC  H17X22315   3.409   1.421   8.466  0.2443 -2.1110  0.6003
  192SLPC  H17Y22316   3.257   1.338   8.424 -1.4121  1.3436 -1.7321
  192SLPC  C31822317   3.231   1.484   8.577  0.1819  0.2586  0.0573
  192SLPC  H18X22318   3.122   1.498   8.562 -0.0273 -0.9538  0.4029
  192SLPC  H18Y22319   3.279   1.575   8.620 -0.2275 -0.1393  1.3615
  192SLPC  H18Z22320   3.243   1.409   8.657 -0.8968  0.4731  0.4215
  193SOD    SOD22321   0.762   5.267  13.436 -0.4199 -0.1003  0.2668
  194SOD    SOD22322   4.343   6.100   6.540 -0.4039  0.2220  0.2951
  195SOD    SOD22323   1.446   6.479  10.510  0.2032 -0.0552  0.0462
  196SOD    SOD22324   2.863   1.146   2.510  0.1343  0.1632  0.2626
  197SOD    SOD22325   3.062   3.155  15.569 -0.0421 -0.3481  0.1119
  198SOD    SOD22326   4.704   4.167  10.879 -0.3014  0.2051  0.3601
  199SOD    SOD22327   3.312   5.333   3.293 -0.1417 -0.3481 -0.0734
  200SOD    SOD22328   1.716   2.420  15.209  0.6541  0.1379  0.1635
  201SOD    SOD22329   5.949   4.433  13.114  0.1612 -0.1427 -0.0830
  202SOD    SOD22330   0.243   0.833  12.257 -0.3774 -0.0995 -0.0073
  203SOD    SOD22331   1.714   1.502   4.665  0.2762  0.3445  0.0315
  204SOD    SOD22332   4.673   5.625  14.215  0.3979 -0.2590  0.2568
  205SOD    SOD22333   5.391   2.771   5.603 -0.2142 -0.0273  0.2745
  206SOD    SOD22334   2.197   0.336  12.868 -0.2816 -0.1656 -0.2099
  207SOD    SOD22335   3.094   2.655   1.933 -0.1200  0.0446 -0.2322
  208SOD    SOD22336   2.399   1.016  10.505  0.2990  0.0269  0.4562
  209SOD    SOD22337   6.398   5.718   1.358  0.2295 -0.1542 -0.3368
  210SOD    SOD22338   3.886   2.918   1.999 -0.6368 -0.4571 -0.1262
  211SOD    SOD22339   4.064   1.098  13.163 -0.3984 -0.0704  0.0934
  212SOD    SOD22340   0.327   6.780  11.719  0.4811  0.1349 -0.3241
  213SOD    SOD22341   1.816   4.765  12.342 -0.1118  0.0006  0.0569
  214SOD    SOD22342   5.172   1.773   2.333  0.1302  0.1772  0.4432
  215SOD    SOD22343   2.863   4.965  12.694  0.0502 -0.1523  0.0007
  216SOD    SOD22344   1.259   1.444  14.146  0.5198 -0.3243  0.1089
  217SOD    SOD22345   3.877   0.367   1.615  0.3897  0.2029  0.5439
  218SOD    SOD22346   5.020   3.947   1.807  0.1751 -0.1477 -0.4877
  219SOD    SOD22347   6.015   0.523   0.498 -0.1666 -0.8344 -0.1516
  220SOD    SOD22348   5.040   6.557  10.798  0.3448 -0.2211  0.1976
  221SOD    SOD22349   6.188   0.542   1.284  0.5885 -0.0024 -0.1392
  222SOD    SOD22350   3.750   6.448  12.204  0.4016 -0.6761  0.7306
  223SOD    SOD22351   2.175   1.056   5.787  0.2094 -0.1332 -0.1137
  224SOD    SOD22352   5.940   3.930   0.896  0.3622  0.1025  0.3102
  225SOD    SOD22353   4.919   4.975   5.947 -0.8096 -0.4047 -0.0475
  226SOD    SOD22354   3.558   0.293  16.402  0.1056 -0.3590  0.3476
  227SOD    SOD22355   3.941   2.852   5.058  0.2482 -0.5467  0.4035
  228SOD    SOD22356   4.881   0.059  12.910 -0.3736 -0.0978  0.1229
  229SOD    SOD22357   3.582   4.555  15.907  0.1737  0.2629  0.0552
  230SOD    SOD22358   3.454   2.183  15.504 -0.4127  0.1921  0.2922
  231SOD    SOD22359   3.579   4.108   3.714  0.1500 -0.3478 -0.3009
  232SOD    SOD22360   1.753   3.222   5.706 -0.6986 -0.4016 -0.0658
  233SOD    SOD22361   4.612   5.517   3.087  0.8788 -0.0118  0.2134
  234SOD    SOD22362   1.162   0.680  10.892 -0.0955  0.0697 -0.3012
  235SOD    SOD22363   1.903   0.358  14.050 -0.3117  0.2330 -0.0192
  236SOD    SOD22364   1.715   0.280  14.970  0.1728 -0.1782  0.0259
  237SOD    SOD22365   4.498   5.658  10.568  0.2697  0.0877  0.1563
  238SOD    SOD22366   0.573   2.765  10.851 -0.0108  0.4596  0.2916
  239SOD    SOD22367   5.058   6.151   2.256  0.0117  0.0386  0.4002
  240SOD    SOD22368   0.113   5.041  14.664  0.2988  0.1231  0.6199
  241SOD    SOD22369   2.221   5.294  15.974 -0.0253  0.3593 -0.0773
  242SOD    SOD22370   6.301   1.391   2.674 -0.2507  0.3526  0.2386
  243SOD    SOD22371   3.964   5.220   5.811  0.3510  0.3118 -0.1309
  244SOD    SOD22372   5.467   1.846  11.451 -0.4538  0.2397 -1.0051
  245SOD    SOD22373   6.763   5.414  15.944  0.3476 -0.1832 -0.3023
  246SOD    SOD22374   1.532   3.675  12.728  0.0709  0.2625  0.4026
  247SOD    SOD22375   6.619   4.344   4.448  0.0905 -0.3875 -0.2797
  248SOD    SOD22376   2.770   5.992   2.296  0.5069 -0.1621 -0.0932
  249SOD    SOD22377   3.813   0.046   5.476 -0.1244 -0.0566  0.4684
  250SOD    SOD22378   1.925   1.778   5.571 -0.5424  0.3722 -0.1644
  251SOD    SOD22379   0.654   5.204   6.199 -0.1333  0.2307 -0.2481
  252SOD    SOD22380   0.510   1.502   2.220  0.2814 -0.4720  0.8391
  253SOD    SOD22381   6.427   5.746  12.008 -0.5241  0.0022 -0.1219
  254SOD    SOD22382   2.701   4.204  16.265 -0.0502  0.1302 -0.4372
  255SOD    SOD22383   4.937   0.108  13.541 -0.4017  0.1035  0.0243
  256SOD    SOD22384   1.012   2.351   4.126 -0.3207 -0.4512  0.0900
  257SOD    SOD22385   2.511   0.903   5.241 -0.2488 -0.1835 -0.0679
  258SOD    SOD22386   1.594   5.584  10.689  0.2676  0.2649  0.3166
  259SOD    SOD22387   1.670   1.357   0.226  0.2170  0.2392 -0.4324
  260SOD    SOD22388   4.702   3.549   2.795  0.2313  0.0722  0.3856
  261SOD    SOD22389   0.108   3.148   5.846 -0.1125 -0.3595 -0.3848
  262SOD    SOD22390   0.777   2.691   6.174 -0.1210  0.5268 -0.3147
  263SOD    SOD22391   0.064   6.622   5.185  0.1798 -0.0309  0.0564
  264SOD    SOD22392   6.748   3.820  16.661  0.8602 -0.1550  0.0231
  265SOD    SOD22393   5.299   5.429  11.192  0.0573  0.0495 -0.2639
  266CLA    CLA22394   3.291   0.320  12.650 -0.1022 -0.1933 -0.2656
  267CLA    CLA22395   1.900   5.847  13.243 -0.2248 -0.1594  0.5499
  268CLA    CLA22396   2.346   6.286  14.643 -0.1716 -0.0168  0.2092
  269CLA    CLA22397   0.744   5.514  12.265 -0.5131 -0.0407  0.1445
  270CLA    CLA22398   1.561   0.624   4.430 -0.4209 -0.5138  0.2916
  271CLA    CLA22399   4.405   3.300   4.356 -0.1325  0.1011  0.1385
  272CLA    CLA22400   1.299   2.648  11.953 -0.0952  0.1763  0.2498
  273CLA    CLA22401   2.278   0.063  13.988 -0.0626 -0.3933  0.4010
  274CLA    CLA22402   2.702   2.718   0.742  0.0519 -0.2217  0.4149
  275CLA    CLA22403   0.054   6.380   0.459  0.3589  0.2016  0.0731
  276CLA    CLA22404   5.481   0.036   5.361  0.4149  0.2323 -0.1360
  277CLA    CLA22405   0.698   1.585   5.329  0.0315 -0.1512  0.4262
  278CLA    CLA22406   1.532   6.739  16.357 -0.0757 -0.4358  0.0544
  279CLA    CLA22407   5.846   3.384  17.014  0.1920 -0.1172  0.4073
  280CLA    CLA22408   3.981   2.525  12.670  0.4114 -0.0027 -0.4172
  281CLA    CLA22409   3.675   6.102   2.409  0.0438 -0.4254 -0.3922
  282CLA    CLA22410   3.884   3.568  15.827 -0.0468  0.0001 -0.3283
  283CLA    CLA22411   2.941   4.517   2.396 -0.1168 -0.3232  0.0601
  284CLA    CLA22412   1.763   2.281   2.050  0.1500  0.0909 -0.1936
  285CLA    CLA22413   1.502   3.674   0.016  0.0210 -0.3740  0.3835
  286CLA    CLA22414   6.774   5.792   1.075 -0.0599 -0.0350  0.0081
  287CLA    CLA22415   4.732   2.521  11.394 -0.0120 -0.1678 -0.2152
  288CLA    CLA22416   2.250   3.630  12.427  0.3727 -0.2469  0.3638
  289CLA    CLA22417   0.984   1.791  16.123  0.0967  0.0048  0.5177
  290CLA    CLA22418   6.076   0.696   2.888  0.1889 -0.1332  0.0893
  291CLA    CLA22419   5.205   2.215  16.147 -0.1781 -0.1891  0.0766
  292CLA    CLA22420   0.378   0.478   0.803 -0.0241 -0.3846 -0.0348
  293CLA    CLA22421   4.589   2.696   5.938  0.1609 -0.0034  0.1348
  294CLA    CLA22422   2.867   4.919  14.021 -0.1629  0.1441 -0.2969
  295CLA    CLA22423   4.948   0.015   4.079  0.2195  0.1273  0.1253
  296CLA    CLA22424   3.004   4.306  13.270  0.1284  0.0352  0.2923
  297CLA    CLA22425   4.122   4.621   3.020  0.0078 -0.3145  0.5198
  298CLA    CLA22426   5.489   5.137  13.828 -0.4618  0.1570 -0.2396
  299CLA    CLA22427   6.639   5.284  12.276  0.3330  0.4138  0.2808
  300CLA    CLA22428   4.646   1.214  17.143 -0.3493 -0.0819  0.0779
  301CLA    CLA22429   2.422   6.600  11.047  0.2694  0.0461 -0.1927
  302CLA    CLA22430   6.213   2.630   3.390 -0.1483  0.0472  0.1227
  303CLA    CLA22431   1.717   4.540  15.216  0.0971 -0.0750  0.0219
  304CLA    CLA22432   0.588   6.000  13.418  0.0295  0.4563  0.1529
  305CLA    CLA22433   3.571   2.532   3.325  0.3024 -0.0807  0.1046
  306CLA    CLA22434   4.789   0.521   3.150  0.1398  0.2152  0.1783
  307CLA    CLA22435   0.797   0.369   2.560 -0.1340  0.1437  0.2372
  308CLA    CLA22436   4.085   6.812  15.169 -0.3377  0.4111  0.1913
  309CLA    CLA22437   3.477   3.266   2.026  0.1279  0.0315  0.0496
  310CLA    CLA22438   6.453   3.047  14.976 -0.2542  0.2490  0.0943
  311CLA    CLA22439   1.032   6.015  16.187 -0.1478  0.3170  0.5637
  312CLA    CLA22440   3.954   0.070  12.273  0.3105 -0.1937  0.0476
  313CLA    CLA22441   2.345   4.440  16.776  0.3279 -0.0898  0.1145
  314CLA    CLA22442   4.743   4.272   2.084  0.1163 -0.2312 -0.1612
  315CLA    CLA22443   5.579   5.296   1.875 -0.1913 -0.1755 -0.3025
  316CLA    CLA22444   3.019   5.488   3.596  0.2733 -0.1035 -0.0528
  317CLA    CLA22445   2.944   4.435   2.912  0.1604  0.3419  0.4056
  318CLA    CLA22446   6.113   2.392   1.790 -0.1693  0.0464 -0.1049
  319TIP3   OH222447   4.043   6.748   4.677  0.3743  0.2731 -0.1825
  319TIP3    H122448   4.099   6.773   4.603  0.6031 -1.1375 -0.5130
  319TIP3    H222449   3.957   6.734   4.638  0.9651 -2.5583 -0.6077
  320TIP3   OH222450   2.967   4.297  15.105 -0.0490 -0.2077  0.5386
  320TIP3    H122451   3.031   4.278  15.174 -0.0248  0.8893  0.8195
  320TIP3    H222452   3.020   4.303  15.025  0.5344  2.9320  1.1032
  321TIP3   OH222453   3.386   1.587   5.975 -0.1417 -0.1473  0.2632
  321TIP3    H122454   3.314   1.559   6.031  0.2405 -3.4661 -0.8239
  321TIP3    H222455   3.465   1.560   6.022  0.2776 -0.1235 -0.4178
  322TIP3   OH222456   3.676   5.129   4.051  0.0750  0.5017 -0.2324
  322TIP3    H122457   3.742   5.149   4.117  0.5412  0.1005 -0.5764
  322TIP3    H222458   3.724   5.123   3.969 -0.2729 -0.5330 -0.3720
  323TIP3   OH222459   3.230   4.259  14.311  0.2433  0.2400 -0.0773
  323TIP3    H122460   3.168   4.287  14.378 -1.3640 -1.1324 -0.9781
  323TIP3    H222461   3.243   4.165  14.328  0.7645  0.1520 -0.9540
  324TIP3   OH222462   3.798   3.042  15.765 -0.6469 -0.5135  0.3564
  324TIP3    H122463   3.860   2.973  15.740  0.6234  1.0301 -0.9127
  324TIP3    H222464   3.854   3.117  15.785 -2.0268  0.2885  1.2231
  325TIP3   OH222465   3.255   4.504  15.316 -0.4953  0.2098  0.5177
  325TIP3    H122466   3.334   4.451  15.329 -0.8832 -0.7125 -0.7612
  325TIP3    H222467   3.286   4.583  15.270 -0.1960  0.2432  0.7753
  326TIP3   OH222468   6.268   4.998   2.571 -0.3516 -0.7538  0.3732
  326TIP3    H122469   6.349   4.992   2.622 -0.8473  1.6324  1.5318
  326TIP3    H222470   6.276   4.931   2.504  2.1640 -1.1917  1.0774
  327TIP3   OH222471   2.904   5.523  12.350  0.3611 -0.1075 -0.3922
  327TIP3    H122472   2.810   5.522  12.332  0.1747  1.1787  0.4081
  327TIP3    H222473   2.912   5.569  12.433  1.7854  0.8334 -1.0191
  328TIP3   OH222474   3.748   4.747  15.529  0.1360  0.5005 -0.1686
  328TIP3    H122475   3.799   4.683  15.480 -1.2772  1.9319 -3.7061
  328TIP3    H222476   3.812   4.810  15.562  1.4814 -2.4047  2.9771
  329TIP3   OH222477   6.283   6.460   1.808 -0.3769 -0.2264 -0.5198
  329TIP3    H122478   6.317   6.513   1.736 -0.5592  0.1150 -0.3561
  329TIP3    H222479   6.245   6.384   1.766  0.5864 -0.6112 -0.7070
  330TIP3   OH222480   0.612   1.831   3.069  0.3053 -0.2246 -0.3588
  330TIP3    H122481   0.666   1.831   3.148  1.0930 -0.6790 -0.8885
  330TIP3    H222482   0.570   1.917   3.068  0.5246 -0.1060  0.3933
  331TIP3   OH222483   1.152   6.541   3.099 -0.3942 -0.7751 -0.4579
  331TIP3    H122484   1.060   6.556   3.077 -0.3079 -1.1322 -1.0863
  331TIP3    H222485   1.162   6.576   3.187 -0.7032  0.9105 -1.0763
  332TIP3   OH222486   6.653   2.186   1.253 -0.0037  0.7559  0.2374
  332TIP3    H122487   6.579   2.134   1.220 -0.5297  1.5614  0.1376
  332TIP3    H222488   6.651   2.171   1.348  0.1250  0.2361  0.1605
  333TIP3   OH222489   0.701   6.099  12.038 -0.0064 -0.1705 -0.3531
  333TIP3    H122490   0.696   6.046  11.959  2.6109  0.1257 -0.7687
  333TIP3    H222491   0.727   6.038  12.107  1.9374  0.3031 -0.6170
  334TIP3   OH222492   4.789   6.655  11.286 -0.5170 -0.8170 -0.2937
  334TIP3    H122493   4.714   6.702  11.251 -1.5467 -2.1252  0.1200
  334TIP3    H222494   4.865   6.709  11.263 -1.3849 -0.4779 -2.4491
  335TIP3   OH222495   2.147   0.820   5.369  0.4574  0.0981  0.0323
  335TIP3    H122496   2.226   0.799   5.320  0.2264 -1.2946  0.2554
  335TIP3    H222497   2.112   0.898   5.326 -0.0169 -1.4017 -2.3307
  336TIP3   OH222498   0.452   4.263  16.814 -0.0258 -0.0512  0.0951
  336TIP3    H122499   0.546   4.275  16.820  0.2199 -1.5153 -0.5410
  336TIP3    H222500   0.422   4.337  16.762  1.1188 -0.8020 -1.7164
  337TIP3   OH222501   4.539   3.931  10.564 -0.5180 -0.1655  0.7869
  337TIP3    H122502   4.527   3.855  10.507  0.1872 -0.6625  1.2856
  337TIP3    H222503   4.456   3.939  10.611 -1.3124  0.6053 -0.7243
  338TIP3   OH222504   1.788   5.106   5.601 -0.0182 -0.1110  0.3113
  338TIP3    H122505   1.819   5.134   5.515 -1.2905 -0.4839 -0.2773
  338TIP3    H222506   1.827   5.019   5.614 -0.3385 -0.3257 -0.1657
  339TIP3   OH222507   5.804   4.067  15.564  0.2924  0.1855 -0.5826
  339TIP3    H122508   5.838   4.001  15.625 -0.2711 -1.5524 -2.1145
  339TIP3    H222509   5.709   4.054  15.565  0.2678  0.2402 -1.7284
  340TIP3   OH222510   3.624   0.681  16.395  0.1604 -0.4499  0.4199
  340TIP3    H122511   3.582   0.662  16.479 -0.1568 -1.3869  0.0551
  340TIP3    H222512   3.569   0.747  16.355  0.5266  0.2848  1.1189
  341TIP3   OH222513   5.056   3.929   5.433  0.0562 -0.4071 -0.1670
  341TIP3    H122514   5.059   3.993   5.362 -1.1352  1.5477  1.4953
  341TIP3    H222515   4.977   3.950   5.482  0.4661 -2.1746  1.3237
  342TIP3   OH222516   0.046   2.699  11.524 -0.6297 -0.3077 -0.0493
  342TIP3    H122517   0.106   2.630  11.552 -0.2674  0.2690  0.6001
  342TIP3    H222518  -0.004   2.659  11.453 -1.0456 -1.5287  0.9165
  343TIP3   OH222519   6.401   1.226  17.292  0.2936 -0.2868  0.4925
  343TIP3    H122520   6.474   1.286  17.305  0.6072 -0.3902 -0.7117
  343TIP3    H222521   6.442   1.141  17.280  0.0210 -0.2500 -0.7836
  344TIP3   OH222522   2.980   3.748   4.025  0.5082 -0.5232  0.4508
  344TIP3    H122523   2.891   3.783   4.035  0.7403  0.5958 -1.2413
  344TIP3    H222524   3.001   3.711   4.111 -0.2828  2.2169  1.8823
  345TIP3   OH222525   2.686   3.697  11.641  0.3017 -0.3777  0.3999
  345TIP3    H122526   2.592   3.712  11.652  0.3314 -0.3989  0.7058
  345TIP3    H222527   2.726   3.778  11.674  0.3398  0.1904 -1.0342
  346TIP3   OH222528   3.315   1.921   4.826 -0.0100 -0.0480  0.3487
  346TIP3    H122529   3.290   1.863   4.754  0.0782  0.2117  0.1056
  346TIP3    H222530   3.243   1.915   4.888 -0.7042  0.7203 -0.3626
  347TIP3   OH222531   0.734   0.308  16.904 -0.3763 -0.2438  0.0239
  347TIP3    H122532   0.817   0.313  16.952  0.4281  0.5808 -1.4130
  347TIP3    H222533   0.731   0.219  16.869 -0.0787 -0.2587  0.0411
  348TIP3   OH222534   5.527   6.031  16.715 -0.6417 -0.0765 -0.0884
  348TIP3    H122535   5.482   6.061  16.794 -1.1633 -1.2688  0.0748
  348TIP3    H222536   5.486   5.947  16.694  0.2195 -0.2726 -1.0265
  349TIP3   OH222537   3.275   0.855  14.441 -0.4105  0.3972  0.0922
  349TIP3    H122538   3.320   0.929  14.482 -0.7627  0.1747  0.8963
  349TIP3    H222539   3.344   0.790  14.427 -0.3403  0.3605  0.6035
  350TIP3   OH222540   3.401   2.345  14.124 -0.5823 -0.2317  0.3763
  350TIP3    H122541   3.461   2.411  14.089 -2.4212  1.2118 -0.1286
  350TIP3    H222542   3.435   2.262  14.089  2.7398  0.1891  2.4039
  351TIP3   OH222543   4.667   6.380  14.906  0.5656  0.1534  0.2880
  351TIP3    H122544   4.592   6.439  14.897 -0.0885 -0.7697 -0.3304
  351TIP3    H222545   4.629   6.292  14.903  1.3532 -0.3018  2.8382
  352TIP3   OH222546   4.002   2.538   5.374  0.1619  0.1038  0.3904
  352TIP3    H122547   3.949   2.553   5.452  0.3918 -0.8451  0.7344
  352TIP3    H222548   4.054   2.460   5.394 -0.3226 -0.5932 -0.9799
  353TIP3   OH222549   3.783   2.522   4.926  0.5901  0.3253 -0.0347
  353TIP3    H122550   3.693   2.513   4.892  0.6499  1.0478 -0.4161
  353TIP3    H222551   3.835   2.542   4.848  1.3020 -1.4125 -0.0020
  354TIP3   OH222552   5.086   5.085   5.835  0.3317  0.1781  0.4803
  354TIP3    H122553   5.041   5.047   5.760 -1.0273 -0.9993  1.8395
  354TIP3    H222554   5.168   5.119   5.800 -0.9092  0.9206 -1.7689
  355TIP3   OH222555   0.269   1.428  13.086 -0.5753 -0.4643  0.2977
  355TIP3    H122556   0.299   1.516  13.066 -0.4589 -0.6405 -0.3220
  355TIP3    H222557   0.174   1.431  13.073 -0.5668 -0.4350  0.2409
  356TIP3   OH222558   6.198   4.202  12.721  0.3446 -0.1939 -0.5426
  356TIP3    H122559   6.257   4.134  12.689 -0.6368 -0.7227 -1.2167
  356TIP3    H222560   6.228   4.282  12.677  1.4012 -0.1976  0.1405
  357TIP3   OH222561   0.147   4.429  11.744 -0.8026  0.0121  0.7786
  357TIP3    H122562   0.203   4.354  11.725 -1.1374  0.3118 -1.5237
  357TIP3    H222563   0.204   4.505  11.736 -1.5972  0.3510 -2.0062
  358TIP3   OH222564   5.775   2.119   2.141 -0.1990 -0.7354  0.0086
  358TIP3    H122565   5.724   2.084   2.068 -0.8004 -2.9918  1.4494
  358TIP3    H222566   5.842   2.052   2.157  0.1932 -0.0660  1.2218
  359TIP3   OH222567   0.012   4.980  15.538 -1.3073 -0.3858 -0.4384
  359TIP3    H122568  -0.028   4.983  15.452 -0.1852 -2.6276 -1.0942
  359TIP3    H222569  -0.026   4.903  15.580  0.3086 -1.0334 -0.0923
  360TIP3   OH222570   3.705   0.475  15.970  0.1721 -0.0208  0.2515
  360TIP3    H122571   3.792   0.504  15.942  0.3168  1.5948  2.2437
  360TIP3    H222572   3.669   0.431  15.893  1.6660  1.7162 -1.5091
  361TIP3   OH222573   4.518   2.677  10.913 -0.2515  0.1218  0.1646
  361TIP3    H122574   4.528   2.596  10.963 -0.1658 -0.8301 -1.3731
  361TIP3    H222575   4.517   2.746  10.979 -0.1469 -1.1198  1.4771
  362TIP3   OH222576   4.900   4.370   1.486 -0.2496  0.2017 -0.4596
  362TIP3    H122577   4.840   4.434   1.448  0.7128  1.5672  0.2646
  362TIP3    H222578   4.885   4.376   1.580 -0.7927 -1.3039 -0.4418
  363TIP3   OH222579   5.527   4.805  11.348  0.1160 -0.6189 -0.3923
  363TIP3    H122580   5.574   4.845  11.275 -1.2675  1.2446 -0.3229
  363TIP3    H222581   5.595   4.773  11.406  1.2670 -0.0722 -1.4090
  364TIP3   OH222582   5.349   3.949  13.321  0.0648 -0.4498 -0.0237
  364TIP3    H122583   5.418   3.965  13.385  2.1596 -0.2199 -2.2496
  364TIP3    H222584   5.352   4.025  13.263 -1.7623 -0.6627 -0.4165
  365TIP3   OH222585   4.219   0.764   3.382 -0.1870  0.1576  0.3863
  365TIP3    H122586   4.281   0.761   3.455 -0.7289 -1.3550  0.7957
  365TIP3    H222587   4.215   0.674   3.349 -3.2770 -0.1010  1.3043
  366TIP3   OH222588   4.771   6.291   0.523  0.0481  0.3881  0.3306
  366TIP3    H122589   4.787   6.333   0.438 -1.2461  0.2089 -0.0109
  366TIP3    H222590   4.698   6.340   0.561 -0.0482 -0.1779  0.8881
  367TIP3   OH222591   4.567   1.734   3.049 -0.1433  0.2381 -0.8244
  367TIP3    H122592   4.571   1.819   3.005 -2.1431  0.2715 -0.9743
  367TIP3    H222593   4.501   1.685   3.000 -0.7702 -0.5259  0.7584
  368TIP3   OH222594   6.815   3.655  15.950  0.0184 -0.1995  0.0912
  368TIP3    H122595   6.848   3.740  15.979 -0.7728  0.6628 -1.5166
  368TIP3    H222596   6.844   3.647  15.859 -1.2671 -0.9417 -0.2596
  369TIP3   OH222597   4.975   5.811  10.732  0.6769 -0.4837  0.5072
  369TIP3    H122598   5.045   5.832  10.671  1.1174 -0.8999  0.8620
  369TIP3    H222599   4.987   5.718  10.751 -0.2057 -0.6473  0.2778
  370TIP3   OH222600   6.502   1.998   4.682  0.1826 -0.1384  0.0910
  370TIP3    H122601   6.531   1.992   4.773 -0.2532 -0.3832  0.2140
  370TIP3    H222602   6.467   2.086   4.674  0.4335 -0.0368  0.0952
  371TIP3   OH222603   2.580   1.092   3.309  0.0809 -0.3068  0.3185
  371TIP3    H122604   2.596   1.078   3.216  1.2587 -0.6926  0.5663
  371TIP3    H222605   2.667   1.086   3.349 -0.4678 -0.5466  1.4911
  372TIP3   OH222606   2.439   2.170  11.339  0.1024  0.4937  0.0855
  372TIP3    H122607   2.493   2.115  11.282  0.4711  0.1750  0.7479
  372TIP3    H222608   2.466   2.259  11.317  0.6835  0.3498  0.1994
  373TIP3   OH222609   3.386   0.165   4.131 -0.0029  0.2195  0.3049
  373TIP3    H122610   3.321   0.103   4.098 -0.5635  1.0410 -0.1486
  373TIP3    H222611   3.413   0.216   4.054  1.0732 -0.0219  0.5148
  374TIP3   OH222612   2.114   6.648   6.397  0.1050 -0.6903 -0.0432
  374TIP3    H122613   2.019   6.642   6.392 -0.0755  0.4418  1.7914
  374TIP3    H222614   2.137   6.719   6.337 -0.0409 -2.0127 -1.7069
  375TIP3   OH222615   1.353   2.872   4.926 -0.2470  0.6038 -0.1309
  375TIP3    H122616   1.440   2.886   4.962  0.5271  0.2007 -1.8043
  375TIP3    H222617   1.368   2.855   4.833 -2.0258 -0.4440 -0.2514
  376TIP3   OH222618   2.840   5.000  14.654 -0.2040  0.2619 -0.3291
  376TIP3    H122619   2.878   5.044  14.729  0.2737 -2.2825  0.9797
  376TIP3    H222620   2.915   4.965  14.606 -0.6148  0.1190 -0.8785
  377TIP3   OH222621   3.076   6.523   3.108  0.0832  0.0682  0.7715
  377TIP3    H122622   3.099   6.569   3.189 -1.8655 -0.0534  1.4151
  377TIP3    H222623   3.051   6.435   3.137  2.4822 -1.0250 -0.3179
  378TIP3   OH222624   3.226   6.702   1.783  0.2655 -0.0203 -0.0266
  378TIP3    H122625   3.321   6.712   1.782  0.0713  1.9622 -1.7571
  378TIP3    H222626   3.210   6.631   1.845  2.7483  0.8462  1.6665
  379TIP3   OH222627   0.007   1.460  16.177  0.0415 -0.5131  0.0001
  379TIP3    H122628  -0.004   1.504  16.261 -2.1564  0.5150 -0.7740
  379TIP3    H222629   0.077   1.396  16.191  4.7542  4.4359  0.7082
  380TIP3   OH222630   3.622   2.331   0.234 -0.8091 -0.2375 -0.3267
  380TIP3    H122631   3.534   2.327   0.270 -0.1281 -0.8437  1.3138
  380TIP3    H222632   3.624   2.264   0.166 -1.8432  0.3455 -0.9523
  381TIP3   OH222633   0.275   1.897   2.438 -0.3135 -0.2406  0.0551
  381TIP3    H122634   0.252   1.824   2.380  0.8064  0.0635 -0.7778
  381TIP3    H222635   0.203   1.960   2.427  0.1531  0.0542 -1.4117
  382TIP3   OH222636   6.583   1.973  14.259 -0.2317  0.7489  0.3730
  382TIP3    H122637   6.666   2.005  14.224  0.5750  0.4033  1.9292
  382TIP3    H222638   6.537   2.052  14.286  0.2270  0.8382  0.8946
  383TIP3   OH222639   6.605   1.003  16.572  0.1261  1.1213 -0.1686
  383TIP3    H122640   6.604   1.064  16.647  0.0063 -0.1808  0.9055
  383TIP3    H222641   6.686   0.954  16.582 -0.5094  0.0645 -0.1793
  384TIP3   OH222642   0.901   6.029   1.058 -0.0776  0.2488 -0.2353
  384TIP3    H122643   0.944   5.960   1.007 -0.5742 -0.7408  0.6547
  384TIP3    H222644   0.972   6.086   1.088  0.4459 -0.4507 -0.1360
  385TIP3   OH222645   0.553   3.021  16.192  0.7485 -0.3425  0.5433
  385TIP3    H122646   0.580   3.039  16.282  0.0609 -1.8514  1.0673
  385TIP3    H222647   0.621   2.965  16.157  1.6804  1.2863 -0.3199
  386TIP3   OH222648   6.515   2.472   1.777  0.0301 -0.3296 -0.4558
  386TIP3    H122649   6.469   2.555   1.769  0.8532  0.1773  0.0964
  386TIP3    H222650   6.592   2.482   1.721  1.2066  0.0363  1.1918
  387TIP3   OH222651   6.209   2.060  11.837 -0.1548  0.2951  0.4076
  387TIP3    H122652   6.140   2.119  11.868 -2.1274 -2.1665  0.8582
  387TIP3    H222653   6.173   2.021  11.758  0.9917 -0.5445  0.2864
  388TIP3   OH222654   3.880   4.476   1.684  0.3344 -0.1200  0.0727
  388TIP3    H122655   3.820   4.474   1.609 -0.2500  3.5796  0.3361
  388TIP3    H222656   3.827   4.446   1.758 -0.3559  0.3261 -0.2354
  389TIP3   OH222657   0.316   6.258   3.089 -0.1824  0.0419  0.0089
  389TIP3    H122658   0.391   6.313   3.066  0.9605 -1.5902 -0.2294
  389TIP3    H222659   0.290   6.217   3.007 -0.3818 -0.5726  0.3762
  390TIP3   OH222660   3.260   0.431  14.308 -0.3290  0.0692  0.4978
  390TIP3    H122661   3.219   0.465  14.229  0.4095  3.4542  1.5063
  390TIP3    H222662   3.278   0.339  14.288 -1.5401  0.4697 -2.6858
  391TIP3   OH222663   2.302   1.893  12.776  0.2215  0.0165 -0.1576
  391TIP3    H122664   2.268   1.887  12.865  3.0346 -0.1817  0.9787
  391TIP3    H222665   2.267   1.975  12.742 -0.1954  0.5250  1.4441
  392TIP3   OH222666   4.021   4.859  14.159  0.1977 -0.2144 -0.2074
  392TIP3    H122667   4.034   4.941  14.111  0.6356  0.7091  1.4251
  392TIP3    H222668   4.103   4.811  14.147  0.7517  0.5201  0.5321
  393TIP3   OH222669   6.449   2.846  11.152 -0.0185  0.4202  0.3521
  393TIP3    H122670   6.450   2.880  11.063 -1.8443 -1.3223 -0.3765
  393TIP3    H222671   6.475   2.920  11.206  2.1928  1.2043 -1.7018
  394TIP3   OH222672   5.335   5.929   5.524  0.0380 -0.5435 -0.0482
  394TIP3    H122673   5.260   5.971   5.567  0.7646 -0.4467  1.1631
  394TIP3    H222674   5.364   5.863   5.587  0.9887 -0.5391 -0.4818
  395TIP3   OH222675   5.086   5.985  15.939 -0.2674 -0.4577  0.0490
  395TIP3    H122676   5.161   5.926  15.949 -0.2597 -0.4824 -0.1477
  395TIP3    H222677   5.010   5.926  15.939 -0.1871 -0.5680 -1.2398
  396TIP3   OH222678   1.405   4.346  17.016  0.1184 -0.0454  0.4901
  396TIP3    H122679   1.382   4.428  16.972 -1.1931 -0.2144  0.8346
  396TIP3    H222680   1.334   4.286  16.994  1.6941 -1.4919 -0.7915
  397TIP3   OH222681   6.760   0.172   3.652  0.3026  0.8955 -0.4104
  397TIP3    H122682   6.831   0.176   3.588  0.3946  0.0390 -0.3725
  397TIP3    H222683   6.797   0.213   3.731  0.6523  0.7357 -0.4902
  398TIP3   OH222684   1.612   2.761   1.547 -1.0616 -0.0095  0.1086
  398TIP3    H122685   1.628   2.778   1.640  1.5259 -0.3828 -0.2094
  398TIP3    H222686   1.674   2.818   1.502 -3.0984  1.0131 -1.4493
  399TIP3   OH222687   6.351   5.332   5.274  0.1038  0.2083  0.5257
  399TIP3    H122688   6.270   5.320   5.225  1.5050 -0.8168 -1.6056
  399TIP3    H222689   6.350   5.264   5.340 -1.1028  0.6547  0.9716
  400TIP3   OH222690   4.882   4.305  12.037  0.4831  0.4662 -0.4838
  400TIP3    H122691   4.833   4.360  12.098 -0.6276  0.7125 -1.5764
  400TIP3    H222692   4.869   4.216  12.069 -0.9528  0.4992 -0.9246
  401TIP3   OH222693   2.643   3.856  14.299  0.5201  0.2068  0.1678
  401TIP3    H122694   2.671   3.869  14.209 -0.6666 -0.2085 -0.2708
  401TIP3    H222695   2.724   3.862  14.351  0.8838  2.8454 -0.6380
  402TIP3   OH222696   2.460   4.334   0.895 -0.8717 -0.0640  0.0580
  402TIP3    H122697   2.542   4.298   0.929 -0.6815  0.5746  0.2681
  402TIP3    H222698   2.462   4.314   0.801 -1.8805 -2.7802  0.5509
  403TIP3   OH222699   1.200   0.707   0.062  0.0601 -0.3618  0.4306
  403TIP3    H122700   1.196   0.793   0.021 -0.5890 -0.6945 -0.2186
  403TIP3    H222701   1.231   0.648  -0.007 -2.6514 -1.2173 -0.1078
  404TIP3   OH222702   0.837   0.144   0.452  0.2531  0.0598 -0.3699
  404TIP3    H122703   0.753   0.127   0.408 -0.0850  1.6795 -0.3823
  404TIP3    H222704   0.867   0.226   0.414  1.7015 -0.3434 -0.1189
  405TIP3   OH222705   5.260   1.740  12.315  0.3930 -0.0071  0.9159
  405TIP3    H122706   5.231   1.717  12.226 -0.0259 -0.1660  1.0898
  405TIP3    H222707   5.182   1.726  12.369  0.6033  0.2441  1.2840
  406TIP3   OH222708   0.900   1.261  17.243  0.4407  0.3527  0.1712
  406TIP3    H122709   0.924   1.285  17.332 -1.7928  1.8240  0.4049
  406TIP3    H222710   0.812   1.224  17.250  0.3416  0.2554 -1.3764
  407TIP3   OH222711   5.591   5.467   4.624 -0.2816 -0.6816 -0.3083
  407TIP3    H122712   5.500   5.481   4.601  0.2566  0.8230 -1.5665
  407TIP3    H222713   5.589   5.397   4.691 -2.3320 -0.5355 -0.2134
  408TIP3   OH222714   6.316   1.469   1.426  0.7674  0.2314  0.0791
  408TIP3    H122715   6.255   1.503   1.362  1.7134 -1.0294 -1.5297
  408TIP3    H222716   6.300   1.375   1.427  2.7185 -0.1294 -0.4249
  409TIP3   OH222717   2.497   3.458  15.620  0.0361 -0.1228 -0.3122
  409TIP3    H122718   2.562   3.389  15.636  0.2023  0.1291  0.0850
  409TIP3    H222719   2.455   3.431  15.538  0.4058 -0.4655 -0.3948
  410TIP3   OH222720   4.850   2.344  16.253 -0.8208  0.4721 -0.0711
  410TIP3    H122721   4.876   2.418  16.198 -0.7006  0.2581 -0.3018
  410TIP3    H222722   4.755   2.340  16.245 -0.6783 -0.5482 -1.5360
  411TIP3   OH222723   2.884   4.741   6.019  0.0882  0.4296 -0.5862
  411TIP3    H122724   2.817   4.691   6.065  1.4225 -0.7957  0.0639
  411TIP3    H222725   2.951   4.757   6.085  3.1942 -3.4403 -2.6327
  412TIP3   OH222726   0.928   5.931   3.520  0.2103  0.1898  0.4564
  412TIP3    H122727   0.958   5.865   3.583  0.4806 -0.1269 -0.0046
  412TIP3    H222728   0.893   5.881   3.447 -0.1043  0.5602  0.3496
  413TIP3   OH222729   2.329   5.671  17.205 -0.2093  0.0228 -0.3520
  413TIP3    H122730   2.293   5.587  17.233 -1.4282  0.8252  0.6140
  413TIP3    H222731   2.372   5.706  17.283  1.9201 -0.5280 -1.2700
  414TIP3   OH222732   4.647   0.571   0.897  0.4010  1.2014 -0.3702
  414TIP3    H122733   4.647   0.520   0.978  0.5729 -0.2390 -1.2638
  414TIP3    H222734   4.569   0.626   0.904 -1.6827 -1.5612 -0.8205
  415TIP3   OH222735   0.271   6.424   2.601  0.5413  0.3254 -0.4522
  415TIP3    H122736   0.270   6.512   2.640  0.5535  0.2152 -0.2022
  415TIP3    H222737   0.235   6.437   2.513 -0.5344  0.3992 -0.0200
  416TIP3   OH222738   2.667   4.814  13.131  0.0165  0.3757  0.5027
  416TIP3    H122739   2.577   4.792  13.157  0.2781  0.6017  1.6639
  416TIP3    H222740   2.722   4.758  13.187  0.5947 -0.3631 -0.7782
  417TIP3   OH222741   0.804   4.678  14.003 -0.2676  0.6049 -0.0953
  417TIP3    H122742   0.737   4.615  13.977  0.4450 -0.2110  0.0257
  417TIP3    H222743   0.886   4.642  13.969 -0.0527  2.2334 -1.3513
  418TIP3   OH222744   6.192   5.601  15.857  0.3672 -0.1644  0.8192
  418TIP3    H122745   6.243   5.656  15.799  0.6962 -0.9183  0.3870
  418TIP3    H222746   6.195   5.514  15.818  1.7646 -0.9941  2.6890
  419TIP3   OH222747   3.401   3.361   0.570 -0.3374 -0.0398 -0.9211
  419TIP3    H122748   3.387   3.411   0.650 -2.2319  0.4652 -1.5320
  419TIP3    H222749   3.491   3.329   0.577  0.0087  1.2048  0.7254
  420TIP3   OH222750   3.336   4.250  13.234 -0.3781  0.5206 -0.1722
  420TIP3    H122751   3.254   4.291  13.205  0.7682  0.7452 -3.2528
  420TIP3    H222752   3.310   4.164  13.265 -1.9495  1.0854  0.1481
  421TIP3   OH222753   0.704   5.830   4.659 -0.2913 -0.1294 -0.6977
  421TIP3    H122754   0.641   5.762   4.636 -0.6262 -0.2110  0.4407
  421TIP3    H222755   0.732   5.808   4.748  1.5299 -0.2281 -1.2711
  422TIP3   OH222756   2.604   6.135  10.054  0.1048  0.1315 -0.1398
  422TIP3    H122757   2.680   6.184  10.023  0.9287 -0.4502  0.9363
  422TIP3    H222758   2.540   6.202  10.077  0.6379  0.6556 -0.1683
  423TIP3   OH222759   1.219   3.647   4.704 -0.3086  0.7175  0.1656
  423TIP3    H122760   1.141   3.593   4.718 -0.5725  0.9324 -0.4696
  423TIP3    H222761   1.200   3.729   4.749  0.0249  0.3539  0.9916
  424TIP3   OH222762   6.003   0.836  16.545 -0.2085  0.1647  0.0091
  424TIP3    H122763   6.065   0.768  16.571 -0.9980 -0.8072 -0.5941
  424TIP3    H222764   5.937   0.789  16.493 -1.6741  1.0890  1.0055
  425TIP3   OH222765   5.891   6.633   1.797 -1.0316 -0.4817 -0.0428
  425TIP3    H122766   5.979   6.658   1.825 -1.2430  0.4253 -0.1592
  425TIP3    H222767   5.883   6.672   1.710 -1.3699 -0.9765 -0.2308
  426TIP3   OH222768   2.957   1.330  11.769 -0.5444 -0.0288 -0.8304
  426TIP3    H122769   2.950   1.236  11.752  1.6649 -0.2474 -0.6024
  426TIP3    H222770   3.015   1.337  11.844  1.0183  1.6113 -2.1473
  427TIP3   OH222771   4.104   4.852   2.530 -0.1990  0.5939  0.2509
  427TIP3    H122772   4.171   4.914   2.504 -0.0705  0.5232  0.4156
  427TIP3    H222773   4.117   4.839   2.624  2.0144 -2.3162 -0.3708
  428TIP3   OH222774   1.058   1.292   1.203  0.3329 -0.5698  0.1681
  428TIP3    H122775   1.079   1.304   1.295  2.1514 -2.3903  0.0412
  428TIP3    H222776   0.963   1.303   1.197  0.4580  1.6637  1.8728
  429TIP3   OH222777   6.215   0.721   1.121 -0.5784 -0.3180  0.3039
  429TIP3    H122778   6.201   0.800   1.172 -0.3856  0.3177 -0.6260
  429TIP3    H222779   6.300   0.733   1.079 -0.1445 -1.4015  0.8556
  430TIP3   OH222780   6.225   2.040  11.533  0.4209  0.0326  0.7487
  430TIP3    H122781   6.166   2.098  11.583  0.8073 -1.1744  2.6345
  430TIP3    H222782   6.178   2.025  11.451 -0.6060  1.3782  1.0541
  431TIP3   OH222783   2.447   6.064   4.431 -0.0358  0.3765  0.3496
  431TIP3    H122784   2.537   6.064   4.398 -0.2855 -0.5152 -0.3738
  431TIP3    H222785   2.447   5.999   4.501 -0.1318  0.2976  0.2771
  432TIP3   OH222786   3.395   5.671   5.742  0.3533  0.6643  0.1204
  432TIP3    H122787   3.346   5.753   5.740 -0.5550  0.1281 -0.0412
  432TIP3    H222788   3.406   5.652   5.835 -0.0067  0.6390  0.1585
  433TIP3   OH222789   4.737   3.750  13.497  0.1938  0.8043 -0.0789
  433TIP3    H122790   4.769   3.734  13.408 -1.3917  2.3880 -0.9780
  433TIP3    H222791   4.775   3.680  13.549  0.9403 -0.3113 -2.0608
  434TIP3   OH222792   1.961   2.375  15.902 -0.0459  0.3082  0.0395
  434TIP3    H122793   1.897   2.427  15.950  0.1830  0.4476  0.1944
  434TIP3    H222794   1.938   2.284  15.921 -0.7757  0.3425 -0.6693
  435TIP3   OH222795   4.411   5.555   0.056  0.0734 -0.3222  0.2793
  435TIP3    H122796   4.405   5.522  -0.033 -0.4329  0.0932  0.1561
  435TIP3    H222797   4.323   5.588   0.076 -0.3991 -2.3320  1.6812
  436TIP3   OH222798   1.168   6.417  16.939 -0.3512  0.1241 -0.7387
  436TIP3    H122799   1.124   6.377  16.864 -2.0853  0.4377  0.0706
  436TIP3    H222800   1.142   6.363  17.014  1.0424  0.0484 -0.2905
  437TIP3   OH222801   3.305   2.106  15.934  0.3245 -0.1722  1.3179
  437TIP3    H122802   3.282   2.193  15.968  0.5532  0.0487  0.9092
  437TIP3    H222803   3.221   2.061  15.927  0.0822  0.3702  0.5674
  438TIP3   OH222804   6.725   0.693  12.855 -0.4221 -0.0595 -0.3989
  438TIP3    H122805   6.689   0.711  12.768 -0.3746  0.5628 -0.2899
  438TIP3    H222806   6.663   0.733  12.916  1.3702  2.5973 -0.2707
  439TIP3   OH222807   4.787   0.891   2.286  0.2565 -0.6725 -0.1179
  439TIP3    H122808   4.770   0.798   2.268  0.6350 -0.4978 -1.4159
  439TIP3    H222809   4.882   0.895   2.299  0.3991 -0.2942 -1.1944
  440TIP3   OH222810   5.378   5.024  16.543  0.0869  0.4686  0.0390
  440TIP3    H122811   5.323   4.979  16.607  0.7129  2.9339  2.3544
  440TIP3    H222812   5.316   5.072  16.488 -0.3147  0.1544  0.2161
  441TIP3   OH222813   2.058   4.792   2.847  0.2049  0.3021 -0.0202
  441TIP3    H122814   2.139   4.835   2.819  0.1661  0.8032  0.6091
  441TIP3    H222815   2.005   4.784   2.768  0.9715 -0.2433 -0.4760
  442TIP3   OH222816   3.974   3.477  12.128  0.1176  0.1257 -0.0228
  442TIP3    H122817   3.939   3.561  12.157  1.2275  0.3376  0.7289
  442TIP3    H222818   3.896   3.423  12.112 -0.5949  0.1245  3.0436
  443TIP3   OH222819   6.539   1.340   2.145  0.1505 -0.3037 -0.2101
  443TIP3    H122820   6.453   1.316   2.112  0.1105 -0.4460  0.0014
  443TIP3    H222821   6.556   1.279   2.216  0.3743 -0.1984 -0.1715
  444TIP3   OH222822   0.818   1.984  14.939  0.1830  0.1666 -0.1875
  444TIP3    H122823   0.908   2.004  14.910  0.0311  2.7846  0.9992
  444TIP3    H222824   0.767   1.980  14.858  0.5773  3.0813 -0.6363
  445TIP3   OH222825   5.791   0.075   0.730  0.3785  0.0121  0.0795
  445TIP3    H122826   5.884   0.094   0.729  1.0110 -2.8721  1.2959
  445TIP3    H222827   5.774   0.034   0.645  0.9830 -2.7525  1.2481
  446TIP3   OH222828   3.743   0.098  16.538  0.4190 -0.5536  0.4348
  446TIP3    H122829   3.798   0.051  16.600  0.8352 -0.7915 -0.1166
  446TIP3    H222830   3.653   0.075  16.563  0.5228  0.5361  1.8971
  447TIP3   OH222831   0.320   4.453   3.346 -0.1295  0.0924 -0.3971
  447TIP3    H122832   0.406   4.410   3.347 -0.1699  0.0384  1.3728
  447TIP3    H222833   0.317   4.503   3.427 -2.4163 -1.1963  0.3593
  448TIP3   OH222834   2.470   1.842  15.649 -0.5318  0.2125  0.0220
  448TIP3    H122835   2.382   1.878  15.641 -0.7892 -0.2464  0.7635
  448TIP3    H222836   2.499   1.870  15.736 -0.6899 -1.2750  0.5541
  449TIP3   OH222837   5.310   0.656  13.856  0.9226 -0.1875  0.5962
  449TIP3    H122838   5.259   0.659  13.937  0.1327  2.6481  0.0516
  449TIP3    H222839   5.245   0.639  13.788  0.7124  2.8295 -0.0292
  450TIP3   OH222840   1.977   3.434  14.639  0.1179 -0.0728  0.3068
  450TIP3    H122841   1.961   3.480  14.557 -1.2860  0.6585  0.9786
  450TIP3    H222842   1.928   3.352  14.631  0.2772 -0.1652  0.2738
  451TIP3   OH222843   4.583   2.315  15.679 -0.1919 -0.8053 -0.3207
  451TIP3    H122844   4.672   2.289  15.656  0.1421  0.1793 -0.1880
  451TIP3    H222845   4.579   2.304  15.774 -0.2518 -0.9722 -0.3420
  452TIP3   OH222846   2.841   0.987  13.061 -0.0663  0.0085 -0.9758
  452TIP3    H122847   2.909   0.930  13.098  1.0857  2.4664  0.7650
  452TIP3    H222848   2.810   0.938  12.984  1.4533 -2.5944 -0.0276
  453TIP3   OH222849   6.066   2.223  16.198  1.1154 -0.3322  0.6019
  453TIP3    H122850   6.144   2.211  16.252  0.7890 -1.8027  0.7625
  453TIP3    H222851   6.079   2.164  16.124  1.0537  0.8724 -0.3936
  454TIP3   OH222852   3.716   1.539   4.226 -0.1990 -0.4144  0.7227
  454TIP3    H122853   3.717   1.608   4.292 -0.7852  0.3436 -0.0517
  454TIP3    H222854   3.704   1.458   4.277  1.4967 -0.0639  1.7045
  455TIP3   OH222855   6.481   3.777   3.670 -0.2040 -0.4144  0.3238
  455TIP3    H122856   6.391   3.745   3.669 -0.4283  0.0796  2.5581
  455TIP3    H222857   6.473   3.870   3.690  0.6998  0.0911 -1.5827
  456TIP3   OH222858   2.546   5.587  16.616 -0.0363 -0.6269  0.0835
  456TIP3    H122859   2.509   5.517  16.563 -1.7320  0.6596 -0.4937
  456TIP3    H222860   2.606   5.633  16.556 -2.7566  1.4832 -1.1285
  457TIP3   OH222861   1.856   5.218  12.095 -0.1584  0.1166  0.2998
  457TIP3    H122862   1.860   5.307  12.130 -1.0907 -0.0917  0.9495
  457TIP3    H222863   1.939   5.207  12.048  0.1575  1.1632  0.5952
  458TIP3   OH222864   1.882   0.482   4.932 -0.5471 -0.3259  0.2647
  458TIP3    H122865   1.914   0.511   5.018 -0.0337 -0.7066  0.2046
  458TIP3    H222866   1.815   0.546   4.909  0.8719  1.0726 -0.0680
  459TIP3   OH222867   5.500   3.062   4.610  0.0197  0.2411 -0.3323
  459TIP3    H122868   5.473   3.014   4.689 -0.5524  0.7267 -0.2285
  459TIP3    H222869   5.561   3.128   4.642  0.9570 -0.5302 -0.5004
  460TIP3   OH222870   5.264   5.911   6.633 -0.3573 -0.4328 -0.0069
  460TIP3    H122871   5.190   5.860   6.601 -0.4806  0.7494 -1.6516
  460TIP3    H222872   5.338   5.884   6.578 -0.2324  0.5221 -0.3199
  461TIP3   OH222873   1.167   0.070  16.732  0.5810 -0.0159 -0.4037
  461TIP3    H122874   1.235   0.006  16.710  1.2930  0.4850  0.2640
  461TIP3    H222875   1.108   0.023  16.790  0.7246 -0.2684 -0.4588
  462TIP3   OH222876   2.825   4.286  16.656  0.0602 -0.3945  0.1712
  462TIP3    H122877   2.894   4.344  16.688 -0.1725 -0.2059  0.3354
  462TIP3    H222878   2.867   4.201  16.648  0.4181 -0.1938 -0.1162
  463TIP3   OH222879   0.503   3.613  11.784  0.4542  0.5688 -0.6490
  463TIP3    H122880   0.445   3.540  11.760 -0.1030  0.7800  0.0282
  463TIP3    H222881   0.528   3.652  11.701  1.6521 -1.0733 -1.0928
  464TIP3   OH222882   5.623   0.607   2.224 -0.2984 -0.3226  0.5463
  464TIP3    H122883   5.714   0.618   2.250  0.2801 -3.6297  0.1685
  464TIP3    H222884   5.621   0.637   2.133  0.3145  0.0860  0.6612
  465TIP3   OH222885   4.164   5.718   0.116  0.4235  0.6764  0.1132
  465TIP3    H122886   4.109   5.641   0.123 -1.4551  1.8793 -1.0091
  465TIP3    H222887   4.148   5.767   0.196  1.3742  0.0704  0.6809
  466TIP3   OH222888   0.843   0.649   4.394 -0.0022 -0.1657 -0.5553
  466TIP3    H122889   0.924   0.604   4.418 -0.1953 -0.3662 -0.2855
  466TIP3    H222890   0.779   0.578   4.381 -0.6148  0.0917  1.0030
  467TIP3   OH222891   1.437   4.866  16.956  0.0571 -0.5345 -0.2343
  467TIP3    H122892   1.451   4.943  16.901 -2.8378 -0.9048 -1.5700
  467TIP3    H222893   1.452   4.897  17.046 -0.1997  1.3459 -0.8252
  468TIP3   OH222894   2.551   0.102   2.934  0.5282 -0.4698 -0.1930
  468TIP3    H122895   2.531   0.012   2.912  1.2416 -0.4270 -1.0548
  468TIP3    H222896   2.468   0.140   2.961  0.2758 -1.4482  0.4053
  469TIP3   OH222897   5.745   2.833  17.127 -0.0603  0.2360  0.3685
  469TIP3    H122898   5.679   2.895  17.159 -0.7299 -1.0383  1.5085
  469TIP3    H222899   5.828   2.868  17.159 -0.4031  0.6970  0.7705
  470TIP3   OH222900   2.557   5.516   0.217  0.0803  0.0581  0.0608
  470TIP3    H122901   2.539   5.518   0.311 -1.9898  0.0528 -0.2950
  470TIP3    H222902   2.535   5.427   0.190  2.4065 -0.4747 -0.1319
  471TIP3   OH222903   6.705   3.795  13.633  0.4661  0.4176  0.4974
  471TIP3    H122904   6.790   3.831  13.607  0.3092  0.3417 -0.1208
  471TIP3    H222905   6.644   3.827  13.567  0.4937 -1.7700 -0.6260
  472TIP3   OH222906   1.071   2.872  12.513  0.1622  0.5122 -0.1793
  472TIP3    H122907   1.095   2.787  12.550 -0.5851 -0.0340 -0.9398
  472TIP3    H222908   1.122   2.935  12.563  1.5854 -0.4758 -0.3643
  473TIP3   OH222909   5.177   4.777  16.441  0.1344 -0.6397 -0.0452
  473TIP3    H122910   5.241   4.707  16.449 -0.0849 -0.6491  1.8364
  473TIP3    H222911   5.167   4.811  16.530 -2.1900 -0.3984 -0.3693
  474TIP3   OH222912   3.709   6.670   0.882  0.5065  0.2651 -0.1494
  474TIP3    H122913   3.617   6.645   0.870  0.3958  0.4234  0.3579
  474TIP3    H222914   3.757   6.587   0.880  0.2055  0.0564  0.9461
  475TIP3   OH222915   3.166   4.746  12.580 -0.2146  0.3150  0.1787
  475TIP3    H122916   3.163   4.840  12.595 -0.1259  0.0446  1.9871
  475TIP3    H222917   3.202   4.710  12.660  0.3827 -1.2119 -0.7559
  476TIP3   OH222918   4.054   2.850   4.863 -0.3101 -0.6533 -0.0282
  476TIP3    H122919   4.114   2.886   4.798 -0.6538 -0.2251 -0.1097
  476TIP3    H222920   3.975   2.830   4.814 -0.4646 -0.6046  0.2035
  477TIP3   OH222921   6.549   3.497   3.264 -0.6372  0.7653  0.5515
  477TIP3    H122922   6.518   3.517   3.175  0.1250  1.4693  0.4405
  477TIP3    H222923   6.494   3.423   3.292 -0.3260 -0.0211 -0.8231
  478TIP3   OH222924   0.503   2.213   5.928  0.4704 -0.3527  0.6718
  478TIP3    H122925   0.476   2.253   5.845 -1.1084  1.7444  2.1507
  478TIP3    H222926   0.550   2.134   5.902 -1.5732 -0.7039 -2.1646
  479TIP3   OH222927   1.112   5.707  15.053 -0.0416  0.3096  0.6960
  479TIP3    H122928   1.176   5.665  15.111 -0.8199 -1.1866  0.4852
  479TIP3    H222929   1.027   5.680  15.088 -0.5471  1.3464  0.2735
  480TIP3   OH222930   0.002   2.661   2.837 -0.3297 -0.1419  0.1925
  480TIP3    H122931   0.089   2.692   2.810 -0.8383  1.3983  0.2585
  480TIP3    H222932  -0.033   2.618   2.759 -0.0173  0.3916 -0.2534
  481TIP3   OH222933   3.593   0.185   2.991 -0.0454  0.4322 -0.3747
  481TIP3    H122934   3.534   0.260   2.981 -1.2884 -0.4822  0.0037
  481TIP3    H222935   3.546   0.112   2.951  0.9739 -0.2434 -0.3495
  482TIP3   OH222936   1.622   5.948   5.315 -0.0202 -0.6760 -0.2083
  482TIP3    H122937   1.568   5.921   5.389 -0.3397  2.0548  0.6151
  482TIP3    H222938   1.562   5.993   5.256  1.2387  2.2470  0.6360
  483TIP3   OH222939   2.463   4.477  15.540 -0.5902  0.6236 -0.1096
  483TIP3    H122940   2.460   4.527  15.621 -1.2299 -0.9807  0.8776
  483TIP3    H222941   2.505   4.395  15.563 -1.6221 -0.2267 -1.1832
  484TIP3   OH222942   3.304   0.591  17.262 -0.3242  0.1447 -0.2020
  484TIP3    H122943   3.282   0.550  17.346 -2.7322 -0.6325 -1.1732
  484TIP3    H222944   3.269   0.680  17.269 -0.3042  0.1593 -0.2860
  485TIP3   OH222945   6.421   5.833   1.954 -0.3131 -0.0065  0.1543
  485TIP3    H122946   6.492   5.818   1.892  0.4178  0.1718  0.9382
  485TIP3    H222947   6.412   5.750   2.001 -1.5166 -0.4612 -0.8239
  486TIP3   OH222948   3.610   2.321   3.890  0.4765  0.3206 -0.5351
  486TIP3    H122949   3.584   2.413   3.881 -0.4153 -0.0023 -1.2939
  486TIP3    H222950   3.617   2.289   3.801  0.1144 -0.5381 -0.2656
  487TIP3   OH222951   3.000   4.111   3.958 -0.3745 -0.0961 -0.0553
  487TIP3    H122952   3.004   4.207   3.957 -1.7096 -0.0398 -1.2249
  487TIP3    H222953   3.032   4.087   4.045  2.5274  1.2773 -0.6560
  488TIP3   OH222954   4.267   4.422  11.778 -0.0435 -0.3420 -0.0462
  488TIP3    H122955   4.227   4.493  11.729  0.0764  0.4109  0.9490
  488TIP3    H222956   4.203   4.351  11.774 -0.8490  0.3678  0.3329
  489TIP3   OH222957   1.951   3.015  16.261 -0.3893 -0.2270 -0.9538
  489TIP3    H122958   1.872   3.042  16.309  0.6173  2.5800 -0.7591
  489TIP3    H222959   1.917   2.965  16.187 -2.3291  0.3408 -0.4966
  490TIP3   OH222960   1.121   4.935  14.025 -0.5812  0.3825 -0.0560
  490TIP3    H122961   1.197   4.975  13.983 -0.0226 -2.0617 -1.4441
  490TIP3    H222962   1.157   4.882  14.095 -0.9984 -0.6312 -0.5942
  491TIP3   OH222963   2.977   0.008   3.883 -0.5571 -0.2512 -0.0896
  491TIP3    H122964   3.020   0.035   3.802 -0.0160 -0.0888  0.2445
  491TIP3    H222965   2.895   0.056   3.884 -0.2332  0.3147 -0.1891
  492TIP3   OH222966   5.237   2.320  15.148  0.1319 -0.2330  0.0957
  492TIP3    H122967   5.224   2.372  15.227  0.5268  0.1516 -0.0841
  492TIP3    H222968   5.150   2.310  15.110  0.2066  1.3858 -0.5367
  493TIP3   OH222969   0.229   3.517   3.216 -0.6176 -0.4540  0.2195
  493TIP3    H122970   0.271   3.517   3.130  0.1553 -0.5305  0.5873
  493TIP3    H222971   0.150   3.464   3.204  0.4622 -2.0567  0.0050
  494TIP3   OH222972   3.999   5.699   1.097  0.1405 -0.2437  0.1280
  494TIP3    H122973   4.089   5.680   1.124  0.4314 -0.4432 -0.9412
  494TIP3    H222974   3.996   5.795   1.090  0.6316 -0.2963 -0.9946
  495TIP3   OH222975   5.462   5.508   0.565 -0.0113  0.0009  0.2473
  495TIP3    H122976   5.431   5.550   0.484  0.1418  0.3805  0.3862
  495TIP3    H222977   5.534   5.452   0.536 -1.3358 -1.5100 -0.2057
  496TIP3   OH222978   1.282   0.942  16.813 -0.3670  0.1475 -0.0804
  496TIP3    H122979   1.328   0.914  16.892 -0.6178  0.4719  0.1823
  496TIP3    H222980   1.232   1.019  16.841 -1.7513 -0.7042 -0.1381
  497TIP3   OH222981   1.376   6.481  16.761  0.2336 -0.6057 -0.5720
  497TIP3    H122982   1.318   6.437  16.823 -0.9733  0.4452 -0.9185
  497TIP3    H222983   1.384   6.420  16.688  0.1920 -1.0821 -0.1793
  498TIP3   OH222984   4.959   0.892  12.109 -0.8399 -0.0049 -0.2897
  498TIP3    H122985   4.939   0.801  12.089  0.8747 -0.5127  0.2508
  498TIP3    H222986   4.906   0.913  12.186  1.0148 -1.4806  1.4385
  499TIP3   OH222987   3.000   5.848   3.455 -0.1057 -0.3092  0.0338
  499TIP3    H122988   3.094   5.843   3.469 -0.2834 -0.2429  1.2832
  499TIP3    H222989   2.989   5.912   3.385  0.7814 -0.4581 -0.2485
  500TIP3   OH222990   5.360   3.581   4.109 -0.6388 -0.1318 -0.4915
  500TIP3    H122991   5.440   3.538   4.138 -0.9723 -1.9671 -2.1757
  500TIP3    H222992   5.304   3.510   4.076 -2.7454  1.1710  0.1234
  501TIP3   OH222993   6.109   4.658   2.661 -0.1108 -0.1496 -0.1299
  501TIP3    H122994   6.205   4.650   2.665 -0.0791  0.8789  1.5883
  501TIP3    H222995   6.092   4.748   2.686 -1.4758  0.0653 -1.7614
  502TIP3   OH222996   0.216   4.846   3.969  0.0947 -0.1342 -0.6016
  502TIP3    H122997   0.141   4.813   4.020  0.0847  0.8920  0.0683
  502TIP3    H222998   0.225   4.938   3.996  0.0292  0.4686 -2.5421
  503TIP3   OH222999   5.133   6.227   5.962  0.3626 -0.1540  0.1050
  503TIP3    H123000   5.163   6.149   6.008  0.5202  0.0363  0.3262
  503TIP3    H223001   5.038   6.218   5.957  0.3779 -0.3410  0.1607
  504TIP3   OH223002   1.570   3.020   3.441  0.1019 -0.3050  0.5849
  504TIP3    H123003   1.579   3.087   3.509  0.4341 -0.5340  0.7650
  504TIP3    H223004   1.638   2.956   3.461  0.8676  0.1351 -0.5534
  505TIP3   OH223005   5.679   3.322   5.881  0.3352  0.4750  0.0440
  505TIP3    H123006   5.652   3.232   5.860 -0.7584  0.6961  0.4574
  505TIP3    H223007   5.650   3.374   5.806 -0.7525  0.7709  0.6512
  506TIP3   OH223008   3.010   3.209   1.485  0.0105 -0.0544 -0.2218
  506TIP3    H123009   2.950   3.236   1.555  0.2283  1.0109 -0.4501
  506TIP3    H223010   3.097   3.225   1.521  0.2040 -2.3031  0.4014
  507TIP3   OH223011   2.116   2.837  12.952 -0.7569  0.1892  0.1590
  507TIP3    H123012   2.109   2.865  12.860 -0.5650 -1.8113 -0.4953
  507TIP3    H223013   2.027   2.843  12.986 -1.0028  0.0304 -0.4466
  508TIP3   OH223014   6.135   0.557  13.217  0.0321  0.2887 -0.2128
  508TIP3    H123015   6.198   0.585  13.151  0.7819  1.2258  0.8906
  508TIP3    H223016   6.096   0.638  13.250 -1.8091 -0.2883 -0.9339
  509TIP3   OH223017   1.490   3.165   1.828 -0.0639 -0.2082 -0.3038
  509TIP3    H123018   1.504   3.138   1.919 -0.4554 -0.8138 -0.4272
  509TIP3    H223019   1.557   3.117   1.779 -0.3973 -0.5274 -0.4467
  510TIP3   OH223020   6.000   5.196   0.429  0.4293  0.2733  0.3042
  510TIP3    H123021   5.932   5.135   0.399 -0.1660  1.5003 -0.8935
  510TIP3    H223022   5.982   5.208   0.522  0.2659 -0.9944  0.4555
  511TIP3   OH223023   2.471   2.079  15.449 -0.4531  0.5245 -0.2848
  511TIP3    H123024   2.500   1.990  15.467 -0.2888  0.9561  1.6835
  511TIP3    H223025   2.377   2.078  15.468 -0.4664  0.7528 -0.3382
  512TIP3   OH223026   1.920   6.389   3.016  0.5215 -0.2011 -0.3430
  512TIP3    H123027   1.990   6.380   3.081 -0.8624 -0.8967  1.0743
  512TIP3    H223028   1.868   6.463   3.046  0.2834 -0.0741 -1.0542
  513TIP3   OH223029   2.570   4.199  14.308 -0.5963 -0.7155 -1.0518
  513TIP3    H123030   2.649   4.154  14.277 -0.4707 -0.1596 -1.5497
  513TIP3    H223031   2.533   4.140  14.374  0.6990 -0.6042 -0.1920
  514TIP3   OH223032   1.318   2.426  14.986  0.1992  0.0201  0.1884
  514TIP3    H123033   1.349   2.500  14.933  0.5004  0.0555  0.4082
  514TIP3    H223034   1.242   2.460  15.032 -1.2944 -0.6053 -1.7408
  515TIP3   OH223035   0.885   5.456  13.482 -0.1508  0.4093  0.1801
  515TIP3    H123036   0.972   5.461  13.521  1.0760  0.7837 -2.4909
  515TIP3    H223037   0.849   5.544  13.492 -1.0094 -0.1929  2.9033
  516TIP3   OH223038   1.655   1.875  15.368  0.0999  0.4265  0.2644
  516TIP3    H123039   1.662   1.795  15.420 -2.1880  0.8268  1.2275
  516TIP3    H223040   1.738   1.880  15.320  0.7052 -1.9288  1.0271
  517TIP3   OH223041   3.274   4.689  17.179 -0.1083 -0.2862  0.3069
  517TIP3    H123042   3.313   4.773  17.153 -1.2136 -0.1996 -1.1476
  517TIP3    H223043   3.243   4.704  17.269 -1.3452  1.2707 -0.3371
  518TIP3   OH223044   4.836   4.539  14.979 -0.0238 -0.2091 -0.1901
  518TIP3    H123045   4.919   4.524  14.933  0.0514  0.4448 -0.2726
  518TIP3    H223046   4.771   4.490  14.929  0.3445 -0.9197  0.0090
  519TIP3   OH223047   1.227   5.196   0.816  0.0997  0.2750 -0.5233
  519TIP3    H123048   1.219   5.208   0.911  0.5289 -1.6167 -0.2262
  519TIP3    H223049   1.167   5.259   0.778  0.6282  1.7136  0.9846
  520TIP3   OH223050   2.933   2.765  16.147 -0.2349 -0.5756  0.0508
  520TIP3    H123051   2.998   2.784  16.080 -1.9536 -0.4171 -1.6046
  520TIP3    H223052   2.912   2.850  16.185 -1.4402 -0.2520 -1.2884
  521TIP3   OH223053   4.439   5.989  14.531  0.3599  0.7007 -0.3926
  521TIP3    H123054   4.403   5.985  14.442  1.6787 -0.7138 -0.8797
  521TIP3    H223055   4.482   5.904  14.543  0.0841  0.8333  1.6517
  522TIP3   OH223056   2.006   2.781   5.186  0.0948 -0.8303 -0.4363
  522TIP3    H123057   1.914   2.801   5.166  0.0082 -1.3116 -0.5146
  522TIP3    H223058   2.012   2.686   5.181  0.4645 -0.8403  0.1592
  523TIP3   OH223059   3.236   1.307  17.115 -0.1512  0.3212 -0.3487
  523TIP3    H123060   3.252   1.276  17.204  0.5705 -1.3711 -1.0382
  523TIP3    H223061   3.221   1.401  17.125  1.0664  0.3628  1.4281
  524TIP3   OH223062   0.387   0.132   1.773 -1.0981 -0.2718 -0.3518
  524TIP3    H123063   0.389   0.208   1.831 -0.8558 -0.2448 -0.3924
  524TIP3    H223064   0.466   0.083   1.795 -2.0682 -1.3628  0.7983
  525TIP3   OH223065   2.535   4.249   5.567 -0.1741  0.0688 -0.2988
  525TIP3    H123066   2.477   4.239   5.642  0.1934 -0.3174 -0.0643
  525TIP3    H223067   2.496   4.321   5.516 -0.0570  0.7743  0.5961
  526TIP3   OH223068   5.001   3.946  12.302 -0.2625  0.0521  0.0742
  526TIP3    H123069   5.040   3.964  12.216 -0.0791 -0.0013  0.1450
  526TIP3    H223070   4.917   3.905  12.282 -0.2510  0.1025 -0.0812
  527TIP3   OH223071   2.420   1.611   5.733  0.1025  0.4045 -0.3748
  527TIP3    H123072   2.500   1.574   5.771  0.0499  0.4889 -0.1816
  527TIP3    H223073   2.443   1.702   5.715  0.2671  0.2492 -0.9536
  528TIP3   OH223074   1.915   6.496   4.055  0.2090 -0.4309  0.6171
  528TIP3    H123075   1.823   6.491   4.027  0.7334 -0.1016 -1.2899
  528TIP3    H223076   1.937   6.589   4.047  0.7418 -0.5263  0.9647
  529TIP3   OH223077   6.235   5.585   5.232  0.0798 -0.3934  0.1557
  529TIP3    H123078   6.238   5.499   5.273 -1.2942 -0.9633 -0.9242
  529TIP3    H223079   6.247   5.568   5.138  0.7792  0.6780  0.0422
  530TIP3   OH223080   3.445   5.465  12.391 -0.7452  0.4287 -0.0723
  530TIP3    H123081   3.418   5.504  12.474 -0.0011 -1.1464  0.9167
  530TIP3    H223082   3.400   5.518  12.325 -0.3822  2.4768  1.2604
  531TIP3   OH223083   6.527   5.365  16.737  0.2057 -0.2300  0.1370
  531TIP3    H123084   6.549   5.276  16.764 -0.0268  0.3229  2.2643
  531TIP3    H223085   6.453   5.388  16.793 -0.1052  1.0978 -0.8090
  532TIP3   OH223086   4.338   5.021   6.455  0.1474  0.0871  0.3193
  532TIP3    H123087   4.372   5.026   6.365  1.7436  1.3166  0.9563
  532TIP3    H223088   4.363   5.105   6.494  1.3066 -1.2482  2.5421
  533TIP3   OH223089   1.635   6.785  13.953 -0.1727 -0.0715 -0.2670
  533TIP3    H123090   1.622   6.746  14.039  0.5849  2.6598  1.1572
  533TIP3    H223091   1.626   6.712  13.892 -0.5322 -2.1074  2.1204
  534TIP3   OH223092   5.804   1.460  14.140 -0.3450  0.1568 -0.0228
  534TIP3    H123093   5.858   1.386  14.110 -0.8353 -1.2897  2.5577
  534TIP3    H223094   5.847   1.537  14.103  2.3102 -1.1343  0.2438
  535TIP3   OH223095   0.668   5.286  13.665  0.9378 -0.0654  0.1798
  535TIP3    H123096   0.721   5.294  13.744  0.4136 -0.5724  0.5914
  535TIP3    H223097   0.580   5.264  13.698  0.6096  0.2021 -0.5152
  536TIP3   OH223098   0.921   4.725   4.116  0.1623  0.8392  0.3358
  536TIP3    H123099   0.847   4.783   4.098 -1.2175  0.0056  3.1103
  536TIP3    H223100   0.901   4.645   4.067 -0.9019  0.5363  1.2477
  537TIP3   OH223101   0.053   2.877  11.759  0.0016  0.0732 -0.8762
  537TIP3    H123102   0.083   2.828  11.682 -0.4840 -1.0937 -0.3478
  537TIP3    H223103   0.109   2.847  11.830 -1.6827 -1.3660 -0.0971
  538TIP3   OH223104   1.948   3.338  12.470  0.5265  0.2268 -0.2005
  538TIP3    H123105   1.982   3.307  12.554  1.1897  0.7589 -0.2690
  538TIP3    H223106   1.895   3.415  12.492  0.3675  0.1250 -0.2270
  539TIP3   OH223107   4.947   3.660  15.110 -0.1844  0.2323  0.3612
  539TIP3    H123108   4.860   3.698  15.099 -0.5514 -0.3788  1.0975
  539TIP3    H223109   4.994   3.722  15.167  0.2750  1.1780 -1.0174
  540TIP3   OH223110   3.937   5.658  14.300  0.4077 -0.1002 -0.3131
  540TIP3    H123111   3.886   5.719  14.248  0.6108  0.2442 -0.1094
  540TIP3    H223112   3.878   5.631  14.370 -0.3290 -1.6138 -1.4867
  541TIP3   OH223113   4.656   3.608  13.046 -0.3918  0.3073  0.4104
  541TIP3    H123114   4.587   3.633  13.107 -0.1949  0.1015  0.7240
  541TIP3    H223115   4.658   3.677  12.980  0.6802  1.5227  1.6988
  542TIP3   OH223116   2.898   1.037   2.310  0.2016 -0.5591  0.1297
  542TIP3    H123117   2.890   1.122   2.267 -1.5663 -1.3762 -1.2510
  542TIP3    H223118   2.869   0.974   2.243  2.6430 -2.3637  0.7034
  543TIP3   OH223119   1.577   2.012   6.361  0.1616 -0.2964  0.3485
  543TIP3    H123120   1.654   2.068   6.365  0.7966 -1.2854  2.7349
  543TIP3    H223121   1.609   1.925   6.382 -1.0011 -1.4043 -2.2872
  544TIP3   OH223122   2.538   3.479   2.651  0.0535 -0.5275 -0.5136
  544TIP3    H123123   2.472   3.527   2.700 -0.7132 -0.1979 -1.8339
  544TIP3    H223124   2.496   3.461   2.566  1.0896 -1.6797 -0.7970
  545TIP3   OH223125   3.751   4.223   0.135  0.4613  0.0987  0.0312
  545TIP3    H123126   3.668   4.178   0.151  0.3862 -0.5604 -2.1081
  545TIP3    H223127   3.727   4.315   0.122  0.0799 -0.0676 -0.4414
  546TIP3   OH223128   3.489   2.585   3.968 -0.2835 -0.5619 -0.2895
  546TIP3    H123129   3.578   2.574   4.003 -0.8806 -2.6942  0.6531
  546TIP3    H223130   3.500   2.640   3.891  1.5075  1.5525  1.4041
  547TIP3   OH223131   4.700   4.530   2.473 -0.1578  0.4279 -0.4593
  547TIP3    H123132   4.741   4.600   2.423  2.1916 -0.4958  0.0898
  547TIP3    H223133   4.606   4.542   2.459  0.1999  3.5035 -0.6021
  548TIP3   OH223134   5.248   5.823  13.905  0.0263  0.4051  0.7184
  548TIP3    H123135   5.207   5.762  13.966 -0.7253  0.3799  0.1968
  548TIP3    H223136   5.260   5.773  13.825  1.2960  0.3519  0.9367
  549TIP3   OH223137   4.703   3.771  15.089 -0.7117  0.5453  0.1985
  549TIP3    H123138   4.608   3.777  15.081 -0.5476  2.9553 -0.2136
  549TIP3    H223139   4.730   3.855  15.126  1.5505  1.2396 -2.8089
  550TIP3   OH223140   0.222   0.749  12.466  0.0608  0.2808 -0.9218
  550TIP3    H123141   0.271   0.715  12.542  1.6062  3.0072 -0.6311
  550TIP3    H223142   0.130   0.742  12.492  0.3996 -2.2373 -0.2965
  551TIP3   OH223143   3.473   0.948   4.102  0.0237  0.3071  0.1239
  551TIP3    H123144   3.454   1.010   4.032 -0.7408  0.2492  0.2675
  551TIP3    H223145   3.393   0.947   4.155  0.9859  1.1347  1.5983
  552TIP3   OH223146   4.521   5.914   6.563 -0.4726 -0.0098 -0.2944
  552TIP3    H123147   4.494   5.842   6.507  0.7356 -0.6733 -0.0351
  552TIP3    H223148   4.606   5.940   6.529 -0.4850  0.6840  0.1937
  553TIP3   OH223149   0.217   5.483  17.122 -0.3590 -0.1095  0.2616
  553TIP3    H123150   0.240   5.391  17.133 -0.0550  0.0578  1.0658
  553TIP3    H223151   0.295   5.523  17.082 -0.2735 -0.0816  0.4567
  554TIP3   OH223152   4.596   0.753   3.105 -0.2924  0.3755  0.6410
  554TIP3    H123153   4.647   0.832   3.088  1.4344 -0.8494  0.0350
  554TIP3    H223154   4.661   0.685   3.122 -1.5714 -1.7841 -2.5836
  555TIP3   OH223155   3.714   5.272  13.699  0.4202  0.4588  0.0216
  555TIP3    H123156   3.790   5.251  13.644  0.8604 -0.4053  0.9534
  555TIP3    H223157   3.695   5.191  13.746  0.3172  1.3075  1.4728
  556TIP3   OH223158   3.982   1.938  15.565  0.6871  0.0942 -0.5454
  556TIP3    H123159   4.023   2.009  15.613 -0.5070  0.9831 -0.8057
  556TIP3    H223160   4.000   1.957  15.473  1.8565 -0.8956 -0.5330
  557TIP3   OH223161   6.686   2.439   3.494 -0.3462  0.1543 -0.6325
  557TIP3    H123162   6.652   2.516   3.450  0.3942 -0.3036 -2.0579
  557TIP3    H223163   6.618   2.413   3.556 -0.8077  1.6352 -0.5112
  558TIP3   OH223164   6.235   5.433  12.870  0.2384 -0.6471  0.3146
  558TIP3    H123165   6.158   5.488  12.856 -0.5596 -1.8071  0.0287
  558TIP3    H223166   6.268   5.459  12.956  1.2511  1.8922 -0.7917
  559TIP3   OH223167   6.204   3.022  11.006 -0.4996 -0.7760 -0.0465
  559TIP3    H123168   6.128   2.982  10.963 -0.3249 -1.5498  0.3511
  559TIP3    H223169   6.279   2.976  10.968 -0.3480 -1.5101  1.1284
  560TIP3   OH223170   4.991   1.765   4.695 -0.4890  0.7763  0.1849
  560TIP3    H123171   5.039   1.746   4.615 -1.0437  0.8495 -0.1666
  560TIP3    H223172   5.053   1.814   4.750  0.4235 -0.6565  0.4571
  561TIP3   OH223173   3.824   6.659   2.524 -0.1367  0.8874  0.3563
  561TIP3    H123174   3.864   6.736   2.482  0.3649 -0.8566 -2.5052
  561TIP3    H223175   3.785   6.694   2.604 -0.4347  4.2293 -1.1354
  562TIP3   OH223176   4.638   1.094  14.912 -0.1357  0.2768  0.5478
  562TIP3    H123177   4.731   1.112  14.901  0.2544 -1.8083  0.2470
  562TIP3    H223178   4.602   1.096  14.824  0.0596 -1.0728  0.4215
  563TIP3   OH223179   1.347   2.136   1.600  0.2127  0.4790  0.4278
  563TIP3    H123180   1.393   2.081   1.664 -1.2360 -0.6648  0.4962
  563TIP3    H223181   1.311   2.075   1.536  0.6420  1.5304 -0.8550
  564TIP3   OH223182   0.295   6.798   5.390 -0.3351 -0.1766  0.3149
  564TIP3    H123183   0.224   6.842   5.437 -1.3428 -0.9560 -0.4431
  564TIP3    H223184   0.301   6.712   5.432 -0.3968 -0.4142 -0.1602
  565TIP3   OH223185   0.383   1.609   4.848  0.6603  0.1797  0.2812
  565TIP3    H123186   0.299   1.645   4.820  0.4226 -1.0228 -0.5844
  565TIP3    H223187   0.408   1.549   4.778  3.4797  2.4085 -0.7299
  566TIP3   OH223188   1.015   4.196  16.334 -0.0671 -0.3398 -0.1679
  566TIP3    H123189   0.986   4.124  16.278  0.3935 -0.0575 -0.7802
  566TIP3    H223190   1.110   4.200  16.321  0.1491 -0.7898  1.2496
  567TIP3   OH223191   0.650   1.368  11.023  0.1903 -0.3472 -0.1794
  567TIP3    H123192   0.623   1.289  10.976 -0.7264  0.3669 -0.8877
  567TIP3    H223193   0.678   1.337  11.109  0.1109 -1.4727 -0.5480
  568TIP3   OH223194   3.580   4.508  13.052 -0.4595  0.4432  0.1329
  568TIP3    H123195   3.513   4.570  13.023 -0.8933 -0.4772 -0.8814
  568TIP3    H223196   3.580   4.440  12.985  0.4454 -0.3345  0.9075
  569TIP3   OH223197   1.649   0.260   0.275 -0.1870  0.5948 -0.7556
  569TIP3    H123198   1.562   0.296   0.259  0.0382  1.7543  0.5645
  569TIP3    H223199   1.633   0.171   0.305 -1.0403  1.4770  1.4866
  570TIP3   OH223200   5.767   4.171  16.318  1.1788  0.0390 -1.2262
  570TIP3    H123201   5.697   4.170  16.253  1.2207  2.2369 -1.3394
  570TIP3    H223202   5.744   4.100  16.378 -0.3038 -0.2853 -2.1309
  571TIP3   OH223203   2.861   0.749  15.796 -0.1612  0.1711 -0.2618
  571TIP3    H123204   2.766   0.761  15.796 -0.1118  0.6011 -0.7649
  571TIP3    H223205   2.896   0.837  15.811  0.2072  0.6244 -3.4139
  572TIP3   OH223206   0.198   5.285   0.640  0.2576 -0.8345 -0.5433
  572TIP3    H123207   0.245   5.305   0.721  0.2674  0.2232 -0.8058
  572TIP3    H223208   0.106   5.300   0.661  0.3881  0.9153 -1.1494
  573TIP3   OH223209   5.729   3.113  16.920  0.5146  0.4947  0.3745
  573TIP3    H123210   5.776   3.181  16.969  0.8437 -0.0117  0.7623
  573TIP3    H223211   5.739   3.034  16.973 -3.2828  0.9914  1.9447
  574TIP3   OH223212   5.559   4.965   3.970 -0.2806  0.4907  0.0173
  574TIP3    H123213   5.607   4.905   3.913 -0.1111  0.5915  0.0537
  574TIP3    H223214   5.499   4.908   4.019  0.6161  0.2078  0.8115
  575TIP3   OH223215   3.618   2.510  16.283  0.2455  0.1738 -0.1042
  575TIP3    H123216   3.643   2.576  16.348 -0.3435  0.4113 -0.1102
  575TIP3    H223217   3.569   2.445  16.334  0.8279 -0.2561 -0.1012
  576TIP3   OH223218   1.340   1.005   2.630  0.8143 -0.3258 -0.1783
  576TIP3    H123219   1.354   0.919   2.670  1.9807 -0.4056 -0.7463
  576TIP3    H223220   1.400   1.063   2.676 -0.1992  0.2548  0.4170
  577TIP3   OH223221   6.795   3.000   1.142 -0.3894  0.4164 -0.2040
  577TIP3    H123222   6.827   2.950   1.067 -2.2222 -1.9704  0.5368
  577TIP3    H223223   6.873   3.020   1.193  0.8496  1.9486 -2.6543
  578TIP3   OH223224   5.280   0.341  11.198 -0.2581 -0.1370 -0.2178
  578TIP3    H123225   5.210   0.343  11.263  0.2034 -0.6593  0.2947
  578TIP3    H223226   5.262   0.262  11.147 -0.9872  0.6065 -1.1463
  579TIP3   OH223227   3.750   3.255  14.253  0.4599  0.0574 -0.0370
  579TIP3    H123228   3.748   3.348  14.276 -1.7618 -0.7618  3.4805
  579TIP3    H223229   3.704   3.251  14.169 -0.3754  2.0434  0.2852
  580TIP3   OH223230   1.987   1.422  12.195 -1.0280 -0.5240 -0.1732
  580TIP3    H123231   2.039   1.350  12.160 -0.8253  1.1695 -3.5635
  580TIP3    H223232   1.897   1.402  12.168 -1.1120  0.0058 -0.2946
  581TIP3   OH223233   5.424   6.755  16.125 -0.1960 -0.3090  0.1686
  581TIP3    H123234   5.503   6.800  16.154 -2.1678  2.5210  1.4104
  581TIP3    H223235   5.436   6.743  16.031  1.1605  1.2474  0.1184
  582TIP3   OH223236   5.509   6.533  13.699 -0.1412  0.8189  0.1534
  582TIP3    H123237   5.585   6.508  13.646  0.9900  0.5183  1.8710
  582TIP3    H223238   5.531   6.619  13.734  0.5856 -0.3496  2.7277
  583TIP3   OH223239   3.533   4.313  16.676 -0.2911  0.5180  0.2789
  583TIP3    H123240   3.531   4.267  16.592 -0.2846  0.7194  0.1660
  583TIP3    H223241   3.617   4.289  16.714  0.0585  1.0476 -0.1337
  584TIP3   OH223242   0.691   2.775  15.993  0.3541  0.1446  0.1275
  584TIP3    H123243   0.635   2.839  15.951  2.8893  0.4294 -2.9663
  584TIP3    H223244   0.657   2.690  15.963 -0.5828  0.1598  1.1097
  585TIP3   OH223245   6.665   3.187  14.772 -0.0023 -0.6243 -0.0990
  585TIP3    H123246   6.629   3.175  14.859  0.7074  0.1544  0.3113
  585TIP3    H223247   6.702   3.102  14.749  0.8244 -0.5296  0.8352
  586TIP3   OH223248   2.026   4.549  15.298  0.3385  0.2865 -0.0376
  586TIP3    H123249   1.939   4.556  15.260 -0.9537 -1.8424  2.3709
  586TIP3    H223250   2.040   4.632  15.344 -0.8309  0.2373  0.4018
  587TIP3   OH223251   6.324   1.224  13.566  0.2148  0.2098 -0.3060
  587TIP3    H123252   6.411   1.241  13.532  0.8281 -0.1334  1.0652
  587TIP3    H223253   6.277   1.183  13.493  1.4703 -0.4272 -0.7724
  588TIP3   OH223254   1.050   0.494   0.798 -0.0353  0.0392  0.4521
  588TIP3    H123255   1.012   0.511   0.711  1.7033  0.1553 -0.3024
  588TIP3    H223256   1.032   0.402   0.814  1.0295 -0.3957 -0.7568
  589TIP3   OH223257   5.971   2.040  12.690 -0.3952  0.0142 -0.0435
  589TIP3    H123258   5.913   2.091  12.633 -0.5151  0.0548  0.1169
  589TIP3    H223259   6.046   2.097  12.705 -0.1133 -0.2023 -0.6041
  590TIP3   OH223260   5.494   0.556   4.875  0.4188  0.3024  0.0567
  590TIP3    H123261   5.536   0.585   4.956  2.8908 -1.7406 -0.4575
  590TIP3    H223262   5.415   0.510   4.904 -1.0011  3.2364  1.0721
  591TIP3   OH223263   1.049   3.761   3.381 -0.1773  0.4705  0.2232
  591TIP3    H123264   1.006   3.721   3.456 -1.4277  0.7055 -0.3608
  591TIP3    H223265   0.979   3.775   3.317  0.9572 -0.1758 -1.1844
  592TIP3   OH223266   4.006   1.852   0.702 -0.1482  0.4953 -1.1933
  592TIP3    H123267   4.071   1.813   0.644  0.9355  0.2777  0.1280
  592TIP3    H223268   4.020   1.947   0.694  1.8404  0.4234  0.6833
  593TIP3   OH223269   3.634   2.821  12.995 -0.0989 -0.3030  0.3821
  593TIP3    H123270   3.700   2.844  13.060  0.9430 -1.6600 -0.1660
  593TIP3    H223271   3.671   2.850  12.911 -0.7408  0.0353  0.2128
  594TIP3   OH223272   5.990   2.954  17.224  0.3371 -0.0809 -0.1732
  594TIP3    H123273   6.070   2.909  17.200  0.7318 -0.1140  1.1358
  594TIP3    H223274   6.018   3.044  17.242 -0.1658  0.2750 -1.1660
  595TIP3   OH223275   1.181   0.933  14.431 -0.6687  0.5684  0.0525
  595TIP3    H123276   1.120   0.993  14.473  0.9025  1.2584  1.4435
  595TIP3    H223277   1.258   0.986  14.413 -1.6081  0.5432 -4.6858
  596TIP3   OH223278   2.036   1.503   3.499  0.0230 -0.1920  0.0868
  596TIP3    H123279   2.098   1.432   3.482 -0.2189 -0.3959  0.0648
  596TIP3    H223280   1.966   1.489   3.436 -0.6730 -0.7065  0.9731
  597TIP3   OH223281   4.156   1.397   2.133  0.4166 -0.5308  1.1298
  597TIP3    H123282   4.077   1.446   2.158  0.2876  0.4161 -1.0170
  597TIP3    H223283   4.141   1.309   2.167 -1.3867 -0.2555  1.1148
  598TIP3   OH223284   3.468   3.533   0.327 -0.0331 -0.3416  0.0614
  598TIP3    H123285   3.521   3.559   0.402  0.7236 -0.8123 -0.3067
  598TIP3    H223286   3.436   3.445   0.349 -1.4167  0.3044  0.6809
  599TIP3   OH223287   1.811   4.512   6.086 -0.0641  0.2804  0.1069
  599TIP3    H123288   1.752   4.550   6.151 -1.4988 -1.2823 -0.2148
  599TIP3    H223289   1.859   4.445   6.133  1.1109  1.2148  0.2490
  600TIP3   OH223290   4.609   5.545  13.128  0.0954 -0.3462  0.7144
  600TIP3    H123291   4.671   5.481  13.096  0.0358  0.2722 -0.6854
  600TIP3    H223292   4.556   5.567  13.051 -0.2629  0.9227  1.3129
  601TIP3   OH223293   6.221   1.860   6.637 -0.4689 -0.1558  0.1493
  601TIP3    H123294   6.249   1.812   6.560 -0.9801  0.0340 -0.1552
  601TIP3    H223295   6.126   1.861   6.632 -0.5164 -0.3402  0.9027
  602TIP3   OH223296   6.466   2.815  12.189 -0.5888 -0.1392 -0.1539
  602TIP3    H123297   6.507   2.818  12.102 -0.3435  2.4012 -0.0008
  602TIP3    H223298   6.398   2.882  12.185 -1.2216 -0.6876  1.2997
  603TIP3   OH223299   0.902   4.900  11.370  0.4024 -0.2589  0.1634
  603TIP3    H123300   0.976   4.960  11.384  0.2895  0.2877 -1.4648
  603TIP3    H223301   0.828   4.959  11.354  0.1108 -0.8373 -0.5894
  604TIP3   OH223302   5.258   5.543   1.031 -0.5192  0.5128 -0.2342
  604TIP3    H123303   5.219   5.549   1.118 -1.5006 -2.8536 -0.3587
  604TIP3    H223304   5.190   5.575   0.972 -1.1906 -0.5016 -0.0226
  605TIP3   OH223305   5.748   1.378   2.533 -0.0973 -0.2199  0.2096
  605TIP3    H123306   5.721   1.311   2.469 -1.2602 -0.2745  0.7440
  605TIP3    H223307   5.826   1.417   2.495  0.1870 -1.4087 -0.4557
  606TIP3   OH223308   5.822   2.275   1.099 -0.6928  0.3177  0.0662
  606TIP3    H123309   5.797   2.250   1.188  2.8138 -2.0398  0.4782
  606TIP3    H223310   5.805   2.198   1.046  3.7434 -0.8271  0.0680
  607TIP3   OH223311   1.768   5.370  14.602 -0.2795  0.2535  0.4614
  607TIP3    H123312   1.862   5.387  14.603 -0.4856  1.4263  0.6878
  607TIP3    H223313   1.757   5.294  14.659  0.7861 -1.3668 -1.4381
  608TIP3   OH223314   2.693   0.389  17.143 -0.5010 -0.0418  0.1983
  608TIP3    H123315   2.669   0.330  17.072 -2.0800  0.0529  0.6242
  608TIP3    H223316   2.775   0.429  17.115  0.5560 -2.3803 -0.1164
  609TIP3   OH223317   4.648   5.351   3.250  0.2372 -0.3675 -0.0143
  609TIP3    H123318   4.712   5.313   3.310  1.3530 -0.3351 -1.1608
  609TIP3    H223319   4.595   5.276   3.222  1.8020 -0.9452 -1.4980
  610TIP3   OH223320   3.939   1.024  14.054 -0.2051 -0.3833  0.2260
  610TIP3    H123321   3.889   0.944  14.040 -0.7675 -0.0295  0.1884
  610TIP3    H223322   3.873   1.094  14.051  0.1829  0.0158  0.9208
  611TIP3   OH223323   5.475   0.879   5.530 -0.2973 -0.0841 -0.2997
  611TIP3    H123324   5.546   0.924   5.577 -0.7804 -1.6686  2.0460
  611TIP3    H223325   5.503   0.787   5.527 -0.9740 -0.2552 -1.8301
  612TIP3   OH223326   0.292   6.049  15.233  0.1748 -0.4794 -0.0266
  612TIP3    H123327   0.240   6.000  15.169  1.1043 -0.9588 -0.4261
  612TIP3    H223328   0.329   6.122  15.183 -0.4174  0.0818  0.3441
  613TIP3   OH223329   6.736   3.171   5.977 -0.3084  0.4010  0.3894
  613TIP3    H123330   6.658   3.200   5.930 -0.6214  0.9132  1.2136
  613TIP3    H223331   6.707   3.160   6.067  0.9047  1.9538  0.9877
  614TIP3   OH223332   1.457   0.521   2.845  0.6833  0.7548 -0.6362
  614TIP3    H123333   1.551   0.528   2.829  0.9672 -0.0108  0.6351
  614TIP3    H223334   1.426   0.453   2.785  1.3324 -0.5180  0.4532
  615TIP3   OH223335   4.838   3.271   4.549  0.0103  0.1576  0.1433
  615TIP3    H123336   4.825   3.319   4.467 -1.3999  0.9937  0.8368
  615TIP3    H223337   4.864   3.338   4.612  0.1769 -0.3338  0.6040
  616TIP3   OH223338   0.583   2.225  16.518  0.2163  0.0468  0.2308
  616TIP3    H123339   0.545   2.139  16.501  1.2046 -0.4350  0.4105
  616TIP3    H223340   0.581   2.269  16.432  1.2539 -0.7912 -0.2335
  617TIP3   OH223341   1.607   3.099   2.075 -0.3641 -0.2778 -0.8650
  617TIP3    H123342   1.564   3.169   2.125  0.6331  1.2417 -2.1081
  617TIP3    H223343   1.552   3.022   2.091 -0.5409  0.3431  1.9100
  618TIP3   OH223344   6.018   4.361  16.213 -0.3661 -0.4575  0.3647
  618TIP3    H123345   6.111   4.340  16.217 -0.3469 -0.2473  1.1901
  618TIP3    H223346   6.004   4.420  16.287 -1.1006 -0.2806  0.0827
  619TIP3   OH223347   4.325   6.629   4.975  0.2350 -0.1275 -0.2532
  619TIP3    H123348   4.346   6.572   5.048  1.9390  0.4098 -0.3002
  619TIP3    H223349   4.229   6.626   4.969 -0.0491  0.8109  2.7993
  620TIP3   OH223350   0.506   1.282  14.274 -0.5221 -0.5561  0.3818
  620TIP3    H123351   0.447   1.305  14.203 -0.1078 -1.2185 -0.1854
  620TIP3    H223352   0.486   1.191  14.294 -0.8288 -0.2892  1.3067
  621TIP3   OH223353   1.359   0.259  14.247  0.6397  0.0340 -0.0930
  621TIP3    H123354   1.359   0.167  14.273 -0.3092 -0.3947 -1.5395
  621TIP3    H223355   1.406   0.261  14.164 -1.0739  0.5297 -1.0851
  622TIP3   OH223356   4.831   2.485   6.052  0.4457 -0.3882  0.1131
  622TIP3    H123357   4.787   2.544   5.991  0.2339  0.1887  0.8109
  622TIP3    H223358   4.776   2.487   6.131  0.2710 -1.7485  0.0469
  623TIP3   OH223359   2.850   4.652   0.214 -0.4253  1.0815  0.6107
  623TIP3    H123360   2.937   4.626   0.244 -0.8700 -1.8147 -0.4192
  623TIP3    H223361   2.801   4.673   0.294  0.0614 -1.0958  1.4950
  624TIP3   OH223362   0.460   0.339  14.373  0.0755  0.0879 -0.0371
  624TIP3    H123363   0.451   0.251  14.410 -1.1882  0.0187 -0.4617
  624TIP3    H223364   0.518   0.327  14.297  0.4469 -0.2541  0.2983
  625TIP3   OH223365   3.041   3.169   6.518  0.0744 -0.3240 -0.2030
  625TIP3    H123366   3.136   3.184   6.525  0.2657 -1.6005  0.1712
  625TIP3    H223367   3.034   3.085   6.474 -0.9187  0.2956 -1.2262
  626TIP3   OH223368   4.437   0.300   3.523  0.4120 -0.4095  0.0490
  626TIP3    H123369   4.486   0.377   3.551 -1.6110  2.0300 -2.7400
  626TIP3    H223370   4.360   0.299   3.578  0.7956 -0.8662  0.5769
  627TIP3   OH223371   0.108   5.050  12.687  0.3278  0.3907  0.0286
  627TIP3    H123372   0.048   4.980  12.663 -1.9173  2.1337  0.3647
  627TIP3    H223373   0.094   5.118  12.621 -0.6678  2.2423  2.0629
  628TIP3   OH223374   3.690   4.041  13.797 -0.2540  0.2926  0.4397
  628TIP3    H123375   3.778   4.048  13.833 -0.6802  2.6385  1.1260
  628TIP3    H223376   3.700   3.991  13.717  1.8231  1.1802  0.1299
  629TIP3   OH223377   5.312   2.409  12.649  0.2846 -0.3104 -0.0640
  629TIP3    H123378   5.391   2.378  12.605 -0.3320 -0.7178 -0.9222
  629TIP3    H223379   5.261   2.450  12.579 -0.7430 -1.0274  0.2536
  630TIP3   OH223380   2.964   4.637  12.044  0.0191 -0.0040  0.8108
  630TIP3    H123381   2.877   4.598  12.048  0.3387 -0.7525  0.5152
  630TIP3    H223382   2.977   4.660  11.952  0.0654  0.2554  0.8829
  631TIP3   OH223383   6.330   3.992  12.600 -0.6758 -0.5294 -0.2907
  631TIP3    H123384   6.294   3.906  12.580  0.6971 -0.7525 -1.8994
  631TIP3    H223385   6.380   4.016  12.522  0.3036  1.0125  0.7823
  632TIP3   OH223386   3.844   1.159  15.806 -0.4037 -0.6698  0.4507
  632TIP3    H123387   3.887   1.162  15.892 -1.0322  1.9273  0.7297
  632TIP3    H223388   3.894   1.095  15.756  3.0785  1.3568  1.1700
  633TIP3   OH223389   2.960   3.639  10.676  0.2288 -0.5907 -0.3911
  633TIP3    H123390   3.039   3.680  10.640  0.6175  0.4134  1.4985
  633TIP3    H223391   2.958   3.552  10.637  0.8505  0.2774 -2.4462
  634TIP3   OH223392   6.795   3.348  16.459  0.1971 -0.9035  0.0519
  634TIP3    H123393   6.723   3.309  16.409  0.2835 -0.4311 -0.4451
  634TIP3    H223394   6.833   3.274  16.507 -0.5932 -1.1659  0.2891
  635TIP3   OH223395   0.720   1.363  11.529  0.4412 -0.0845 -0.3735
  635TIP3    H123396   0.659   1.394  11.462  1.3207 -1.4977 -1.8693
  635TIP3    H223397   0.703   1.418  11.605 -1.0008  1.1478 -1.5706
  636TIP3   OH223398   1.327   1.917  11.744  0.2351 -0.2135  0.3654
  636TIP3    H123399   1.264   1.847  11.725  1.6476 -1.2421 -0.7413
  636TIP3    H223400   1.399   1.872  11.788  0.6403  0.7728  0.7254
  637TIP3   OH223401   2.818   1.885   3.150 -0.0490 -0.2310 -0.0244
  637TIP3    H123402   2.772   1.878   3.066 -0.7368  1.0910  0.2385
  637TIP3    H223403   2.872   1.964   3.141  2.1431 -1.7065 -0.2991
  638TIP3   OH223404   0.742   5.515   2.320  0.1920 -0.3377 -0.4613
  638TIP3    H123405   0.658   5.561   2.323  1.1046  1.3358 -0.0335
  638TIP3    H223406   0.739   5.456   2.395  1.1866  3.0079  2.3892
  639TIP3   OH223407   3.328   1.110  15.344  0.3124  0.6177  0.2254
  639TIP3    H123408   3.264   1.179  15.325  0.8897  1.0244 -0.2523
  639TIP3    H223409   3.398   1.154  15.392 -0.1595  0.0015  1.5287
  640TIP3   OH223410   5.128   6.679   3.372 -0.3562 -0.0005 -0.3346
  640TIP3    H123411   5.103   6.748   3.311  3.3817  0.9129 -0.9426
  640TIP3    H223412   5.140   6.723   3.455  1.1469 -0.0627 -0.5148
  641TIP3   OH223413   0.748   1.891  16.709 -0.3190  0.2001  0.3950
  641TIP3    H123414   0.691   1.816  16.723  0.5638 -0.4657  0.4082
  641TIP3    H223415   0.811   1.862  16.642  1.3719  0.1948  1.9627
  642TIP3   OH223416   5.166   0.455   4.900  0.2915 -0.6829 -0.0877
  642TIP3    H123417   5.151   0.449   4.995  0.1002 -0.9322 -0.1330
  642TIP3    H223418   5.092   0.409   4.862 -0.6689  1.1446 -0.4249
  643TIP3   OH223419   4.758   0.540  16.295 -0.4755 -0.2578  0.5415
  643TIP3    H123420   4.749   0.461  16.348  2.1034 -1.1991 -0.3566
  643TIP3    H223421   4.767   0.610  16.359  1.9330 -1.3028  1.3940
  644TIP3   OH223422   0.256   0.725  13.349 -0.0190 -0.1541 -0.1242
  644TIP3    H123423   0.349   0.705  13.343 -0.0959 -0.9833  1.2496
  644TIP3    H223424   0.251   0.797  13.411 -0.2342  0.4275 -0.8071
  645TIP3   OH223425   4.180   2.250   1.705  0.4937  0.4558 -0.1372
  645TIP3    H123426   4.265   2.217   1.676  0.8376  1.1761  0.0521
  645TIP3    H223427   4.180   2.234   1.800 -0.7808 -2.2458 -0.5414
  646TIP3   OH223428   4.322   0.429   6.083 -0.2724  0.3957 -0.2759
  646TIP3    H123429   4.260   0.499   6.060  1.1077  1.0209 -2.2418
  646TIP3    H223430   4.361   0.404   6.000 -1.4357 -3.4436  0.2511
  647TIP3   OH223431   5.462   3.387   4.477 -0.1336 -0.1731 -0.2130
  647TIP3    H123432   5.455   3.350   4.565  0.8089 -0.8911 -0.4298
  647TIP3    H223433   5.417   3.324   4.421 -0.1991 -0.0249 -0.3269
  648TIP3   OH223434   3.046   2.343   0.363 -0.1744  0.1466 -0.7890
  648TIP3    H123435   2.959   2.310   0.384 -1.0170  1.9999 -1.2440
  648TIP3    H223436   3.032   2.405   0.291  1.5621  0.2470 -1.0751
  649TIP3   OH223437   3.454   3.534  11.351 -0.7322  0.2091 -1.0025
  649TIP3    H123438   3.472   3.440  11.346  2.0000  0.5603  1.1938
  649TIP3    H223439   3.412   3.546  11.437 -0.3054  1.0947 -0.9097
  650TIP3   OH223440   1.979   2.379  10.612 -0.7114  0.3867  0.4637
  650TIP3    H123441   2.041   2.449  10.632 -0.6185  0.3085  0.4497
  650TIP3    H223442   1.984   2.369  10.517  2.2343 -2.3591  0.8124
  651TIP3   OH223443   2.628   0.307  11.491  0.0867 -0.2100  0.6568
  651TIP3    H123444   2.716   0.288  11.461  0.8995  1.5154  1.8739
  651TIP3    H223445   2.613   0.248  11.565  0.6562  0.2609  1.1531
  652TIP3   OH223446   3.126   0.002   2.073  0.5144 -0.2844  0.5252
  652TIP3    H123447   3.145   0.090   2.042  0.3603 -1.1762 -2.1857
  652TIP3    H223448   3.211  -0.042   2.079  0.2237 -1.3947 -2.7160
  653TIP3   OH223449   3.079   6.806  12.583  0.8822 -0.3808  1.0519
  653TIP3    H123450   3.081   6.866  12.509  2.1799 -0.3387  1.1250
  653TIP3    H223451   2.991   6.768  12.580  0.5958  0.3441  0.0748
  654TIP3   OH223452   4.070   2.249   1.126 -0.6143 -0.2473  0.0001
  654TIP3    H123453   4.031   2.209   1.204 -2.4970 -0.9568 -1.2509
  654TIP3    H223454   4.004   2.312   1.097  2.5968  4.4310  2.3330
  655TIP3   OH223455   1.946   1.275  13.462 -0.4040 -0.3127  0.2363
  655TIP3    H123456   2.027   1.278  13.411 -0.8334  0.2387 -0.4170
  655TIP3    H223457   1.914   1.185  13.450 -0.4601 -0.2137 -0.4064
  656TIP3   OH223458   6.018   1.836  15.443 -0.1340 -0.0871  0.1390
  656TIP3    H123459   5.932   1.805  15.469 -0.4554  0.1647 -0.6111
  656TIP3    H223460   6.054   1.765  15.389 -0.2875  0.2272 -0.3846
  657TIP3   OH223461   3.478   5.798   4.443  0.4254 -0.1630  0.4643
  657TIP3    H123462   3.409   5.732   4.435  0.3505 -0.0410  0.0891
  657TIP3    H223463   3.542   5.775   4.377 -0.0906  0.7247 -0.3607
  658TIP3   OH223464   0.786   0.988  13.447  0.1954 -0.0108  0.1242
  658TIP3    H123465   0.788   1.080  13.420 -1.1075 -0.6328 -2.2366
  658TIP3    H223466   0.827   0.941  13.374 -1.3856 -1.5344  0.1918
  659TIP3   OH223467   3.953   1.503   5.026  0.5092 -0.5287  0.0993
  659TIP3    H123468   4.039   1.499   5.070 -0.1925 -0.6709  1.5091
  659TIP3    H223469   3.933   1.596   5.021  0.8184 -0.4876 -0.3732
  660TIP3   OH223470   4.385   0.640   0.918 -0.3583  1.1426  0.1652
  660TIP3    H123471   4.344   0.723   0.891 -0.4304  0.4729 -1.8751
  660TIP3    H223472   4.376   0.584   0.841 -0.2465 -0.7425  1.5150
  661TIP3   OH223473   5.489   4.002  14.751 -0.1975 -0.0700  0.0417
  661TIP3    H123474   5.570   3.965  14.787  0.4821  2.3368  1.1576
  661TIP3    H223475   5.517   4.086  14.714 -2.4366  1.5600  1.9190
  662TIP3   OH223476   1.155   1.743   3.418  0.0954  0.0985  0.6279
  662TIP3    H123477   1.226   1.716   3.476 -0.6489  0.4142  1.6933
  662TIP3    H223478   1.160   1.838   3.416  1.1166  0.0416 -1.1125
  663TIP3   OH223479   2.944   0.072   3.041 -0.3867 -0.1085 -0.3761
  663TIP3    H123480   2.865   0.025   3.068 -0.7389  0.0297 -1.1627
  663TIP3    H223481   2.950   0.144   3.103 -0.5827 -0.4251  0.0177
  664TIP3   OH223482   1.645   2.818  15.337  0.0819 -0.1369 -0.2476
  664TIP3    H123483   1.553   2.794  15.353  0.2240 -1.0108 -0.7203
  664TIP3    H223484   1.696   2.748  15.377  0.4974 -0.8271 -1.9710
  665TIP3   OH223485   5.018   5.894   0.569 -0.2473  0.8794  0.0987
  665TIP3    H123486   5.028   5.977   0.615  0.0081  1.2772 -0.6609
  665TIP3    H223487   4.976   5.836   0.632  0.8578  1.1665  1.1177
  666TIP3   OH223488   3.059   6.510  12.778 -0.0916 -0.9602  0.1498
  666TIP3    H123489   3.107   6.546  12.851 -0.9216 -0.8422  0.6462
  666TIP3    H223490   3.077   6.569  12.705 -0.3844 -0.2832  0.6174
  667TIP3   OH223491   2.055   5.295  10.734 -0.4224  0.3140  0.3755
  667TIP3    H123492   1.968   5.279  10.770  0.2390 -0.4734  1.6556
  667TIP3    H223493   2.040   5.348  10.656 -2.0183  0.4548  0.7794
  668TIP3   OH223494   4.660   5.558  14.806  0.6994 -0.5552 -0.0720
  668TIP3    H123495   4.717   5.558  14.729  1.0846 -1.5681  0.2058
  668TIP3    H223496   4.690   5.484  14.858  0.5658  0.2494  1.1542
  669TIP3   OH223497   0.892   3.795  12.361  0.8050  0.2760  0.8551
  669TIP3    H123498   0.816   3.825  12.312  1.0934 -1.6158 -0.8252
  669TIP3    H223499   0.869   3.706  12.389  2.3753 -0.3000  0.3619
  670TIP3   OH223500   4.578   2.066   4.415  0.0897 -0.3492 -0.0138
  670TIP3    H123501   4.641   2.005   4.454  1.8737  1.4534 -0.0105
  670TIP3    H223502   4.610   2.080   4.326 -0.8630 -0.1621 -0.3354
  671TIP3   OH223503   4.500   2.844   6.492 -0.3025 -0.0242 -0.0104
  671TIP3    H123504   4.408   2.835   6.513 -0.4578 -0.8273 -1.0242
  671TIP3    H223505   4.506   2.929   6.447 -0.6545 -0.2590 -0.5088
  672TIP3   OH223506   0.645   1.621   2.603  0.8871  0.7739 -0.3827
  672TIP3    H123507   0.683   1.653   2.685  0.1878 -0.7295  0.5407
  672TIP3    H223508   0.719   1.580   2.557  1.0831  0.7684 -0.0613
  673TIP3   OH223509   4.416   4.083   5.592 -0.0511  0.0142  0.4145
  673TIP3    H123510   4.414   4.160   5.649 -0.3443 -0.0125  0.4400
  673TIP3    H223511   4.325   4.052   5.591 -0.0916  0.1433 -0.2371
  674TIP3   OH223512   4.415   0.150  11.002 -0.3074  0.0195  0.4669
  674TIP3    H123513   4.356   0.095  10.950  0.3279  0.4500 -0.7212
  674TIP3    H223514   4.503   0.121  10.978  0.0044  0.6697  0.8057
  675TIP3   OH223515   2.696   2.972   1.565 -0.1181  0.7656 -0.4947
  675TIP3    H123516   2.695   2.898   1.626  1.5551  1.0500 -0.0994
  675TIP3    H223517   2.620   2.957   1.508  0.6877 -1.7410 -0.9678
  676TIP3   OH223518   1.847   0.740  12.097  0.2843 -0.2482  0.5577
  676TIP3    H123519   1.799   0.819  12.123 -2.4681 -2.0656  1.2679
  676TIP3    H223520   1.827   0.729  12.004  1.4103  0.3835  0.2385
  677TIP3   OH223521   0.163   0.139  13.347  0.1432 -0.1027 -0.0164
  677TIP3    H123522   0.155   0.173  13.259  3.3101  1.5644  0.2547
  677TIP3    H223523   0.229   0.069  13.340 -1.4176 -1.6824  0.6111
  678TIP3   OH223524   5.941   3.929   3.960  0.3272 -0.0039  0.1779
  678TIP3    H123525   6.001   3.952   3.889  0.8430 -0.1315  0.5745
  678TIP3    H223526   5.935   3.834   3.957 -2.6516  0.1742 -2.1577
  679TIP3   OH223527   4.344   3.536  15.398  0.2350  0.2537  0.2096
  679TIP3    H123528   4.405   3.596  15.355  0.2484  0.8753  1.0955
  679TIP3    H223529   4.268   3.590  15.421 -0.0863 -0.2356  0.3164
  680TIP3   OH223530   0.923   5.463  10.594 -0.1642 -0.1007 -0.0280
  680TIP3    H123531   1.007   5.509  10.589  0.0406 -0.3859  0.6970
  680TIP3    H223532   0.900   5.445  10.502 -0.9049  2.6055 -0.4249
  681TIP3   OH223533   1.397   0.269   1.653 -0.8463 -0.0465 -0.3145
  681TIP3    H123534   1.443   0.282   1.570  2.4084  0.6742  1.5028
  681TIP3    H223535   1.374   0.176   1.653 -2.1197  0.2356 -2.6016
  682TIP3   OH223536   4.327   1.148   6.637 -0.1086 -0.0782 -0.8496
  682TIP3    H123537   4.367   1.113   6.557  1.4189  0.4800 -0.3448
  682TIP3    H223538   4.327   1.243   6.624 -1.1129 -0.0648 -0.7661
  683TIP3   OH223539   2.504   3.678   3.424 -0.0669 -0.1792 -0.3736
  683TIP3    H123540   2.425   3.701   3.472  0.9590  1.4224  0.5617
  683TIP3    H223541   2.471   3.632   3.346 -1.9158  0.5281 -0.0444
  684TIP3   OH223542   5.271   1.025  11.026 -0.2126 -0.0954 -0.1537
  684TIP3    H123543   5.198   1.026  10.964 -0.1847 -0.8244 -0.1994
  684TIP3    H223544   5.269   0.937  11.064  0.6057 -0.1010 -0.1095
  685TIP3   OH223545   0.387   5.448   2.036  0.1775 -0.3663 -0.2397
  685TIP3    H123546   0.475   5.456   2.000  0.6475 -1.2636  0.6962
  685TIP3    H223547   0.330   5.477   1.965  1.2346  0.5186 -0.7460
  686TIP3   OH223548   0.077   1.086  13.638 -0.0136 -0.7304 -0.7143
  686TIP3    H123549   0.031   1.041  13.709 -0.0159 -2.0881 -1.5432
  686TIP3    H223550   0.034   1.171  13.630  0.0891 -0.5012  1.0100
  687TIP3   OH223551   0.905   6.285   2.126 -0.0361 -0.1497 -0.0013
  687TIP3    H123552   0.931   6.195   2.106  3.8994  0.9444 -0.2275
  687TIP3    H223553   0.952   6.338   2.062 -1.6924  2.1305  0.6197
  688TIP3   OH223554   2.739   5.644   3.535  0.0330 -0.7394  0.0052
  688TIP3    H123555   2.736   5.593   3.616  1.1851 -0.0843  0.4907
  688TIP3    H223556   2.831   5.670   3.527 -0.8137  2.8576  0.8338
  689TIP3   OH223557   1.108   3.333  11.833  0.5487  0.2383  0.0868
  689TIP3    H123558   1.057   3.397  11.883 -0.1493 -0.5010  0.3211
  689TIP3    H223559   1.102   3.252  11.883  1.6369  0.0367 -0.0876
  690TIP3   OH223560   3.634   1.947   3.733 -0.6345  0.0184 -0.1839
  690TIP3    H123561   3.729   1.934   3.736 -0.7638 -0.9540 -0.1457
  690TIP3    H223562   3.600   1.866   3.694 -1.5139  0.0382  0.5326
  691TIP3   OH223563   4.455   0.441  16.430  0.1683 -0.6109 -0.6890
  691TIP3    H123564   4.385   0.376  16.434 -1.0837  0.5490 -2.8859
  691TIP3    H223565   4.529   0.399  16.474 -1.9270 -1.8003  1.8198
  692TIP3   OH223566   1.983   4.104  11.557 -0.3294 -0.2763  0.3121
  692TIP3    H123567   2.054   4.098  11.493  0.1547  4.3393  0.2242
  692TIP3    H223568   2.028   4.107  11.642 -0.5255  0.5498  0.3914
  693TIP3   OH223569   3.851   3.799  16.746  0.5272 -0.0215  0.3237
  693TIP3    H123570   3.854   3.759  16.659 -0.2532 -0.3052  0.4213
  693TIP3    H223571   3.818   3.888  16.731 -0.3573 -0.3338  0.4215
  694TIP3   OH223572   5.418   2.999   2.588 -0.5281  0.0846  0.2161
  694TIP3    H123573   5.462   3.002   2.502 -1.2017 -0.7853 -0.1658
  694TIP3    H223574   5.444   2.915   2.624  0.1396  0.6549  1.0911
  695TIP3   OH223575   1.834   2.075  11.166 -0.1337  0.5447 -0.1305
  695TIP3    H123576   1.886   2.145  11.205  0.2667 -0.0186  0.3514
  695TIP3    H223577   1.791   2.116  11.090  1.0958  0.9749 -0.6006
  696TIP3   OH223578   5.013   6.403  15.615  0.6242 -0.9323 -0.0729
  696TIP3    H123579   5.091   6.439  15.657 -0.0934 -0.2125  0.6633
  696TIP3    H223580   5.046   6.332  15.560  1.6923 -1.2385  0.9401
  697TIP3   OH223581   2.887   4.949  10.881 -0.4239 -0.6387  0.5825
  697TIP3    H123582   2.840   4.982  10.957  0.7393  2.0851  0.2075
  697TIP3    H223583   2.969   4.915  10.916 -0.1043  0.1537  0.6122
  698TIP3   OH223584   5.016   0.229  12.101 -0.2608 -0.1088  0.1780
  698TIP3    H123585   5.089   0.238  12.162 -1.9913 -0.9631  2.4354
  698TIP3    H223586   5.008   0.135  12.085 -0.6130  0.0073 -0.3793
  699TIP3   OH223587   4.367   4.556  17.241 -0.0441 -0.1716  0.1742
  699TIP3    H123588   4.397   4.553  17.150  0.0339  0.6559  0.1669
  699TIP3    H223589   4.350   4.465  17.264  1.6476 -0.5644 -0.0921
  700TIP3   OH223590   2.279   2.623  12.667 -0.0301 -0.0115 -0.4814
  700TIP3    H123591   2.361   2.578  12.645 -0.4850 -2.2330  2.0196
  700TIP3    H223592   2.220   2.605  12.594  0.7761 -0.9310 -0.9141
  701TIP3   OH223593   3.682   5.885  11.167 -0.1459  0.2317  0.2344
  701TIP3    H123594   3.650   5.893  11.257  0.7780  0.0233  0.5913
  701TIP3    H223595   3.706   5.975  11.143 -0.0825  0.2373  0.3162
  702TIP3   OH223596   2.177   3.280  12.026  0.0109  0.1002 -0.0047
  702TIP3    H123597   2.154   3.332  12.103 -2.0559  0.7185 -0.9827
  702TIP3    H223598   2.116   3.310  11.958  1.3599 -0.8777 -1.7012
  703TIP3   OH223599   2.817   2.348  15.546  0.4971  0.1010  0.6870
  703TIP3    H123600   2.871   2.270  15.542 -2.7798 -2.2820  1.1618
  703TIP3    H223601   2.839   2.389  15.630  1.7332 -0.6365  0.7346
  704TIP3   OH223602   6.166   5.468  14.261 -0.1197  1.4485 -0.0971
  704TIP3    H123603   6.251   5.503  14.238  0.7711 -0.3181  0.3899
  704TIP3    H223604   6.170   5.376  14.235 -0.7622  0.5608  2.7223
  705TIP3   OH223605   0.551   3.437   1.862  0.2438 -0.0199  0.6194
  705TIP3    H123606   0.544   3.452   1.767  0.8598 -1.0796  0.3898
  705TIP3    H223607   0.548   3.524   1.901  2.2063  0.5984 -0.5294
  706TIP3   OH223608   3.660   2.112  12.751  0.1837 -0.4321  0.1256
  706TIP3    H123609   3.677   2.166  12.674  1.4336 -1.6017 -0.4238
  706TIP3    H223610   3.583   2.060  12.727  0.2558 -0.4227 -0.1280
  707TIP3   OH223611   4.817   3.321   1.813  1.0645  0.0134  0.0132
  707TIP3    H123612   4.747   3.377   1.779  2.2213  1.6155  0.2021
  707TIP3    H223613   4.896   3.351   1.766  1.7922 -1.0836  0.5299
  708TIP3   OH223614   6.503   3.687   4.785  0.1022 -0.0158  0.0137
  708TIP3    H123615   6.452   3.694   4.704  1.2705 -1.2607 -0.8364
  708TIP3    H223616   6.589   3.720   4.761  0.6822 -1.1443  0.5381
  709TIP3   OH223617   0.031   0.268   5.935 -0.2487  0.2464  0.7435
  709TIP3    H123618   0.090   0.227   5.999 -0.4026 -0.4039  0.4737
  709TIP3    H223619  -0.057   0.250   5.969 -0.4948 -3.3199 -1.5106
  710TIP3   OH223620   4.613   4.397   4.575 -0.4356 -0.3782 -0.6346
  710TIP3    H123621   4.608   4.420   4.668 -0.1660  0.1574 -0.7502
  710TIP3    H223622   4.670   4.321   4.572 -1.1545 -0.9402 -0.2683
  711TIP3   OH223623   5.728   3.191   5.032  0.6673 -0.4701 -1.5351
  711TIP3    H123624   5.695   3.264   5.084  0.0268 -0.4870 -1.9098
  711TIP3    H223625   5.691   3.113   5.074  3.0733 -0.7470  0.1577
  712TIP3   OH223626   2.904   4.714   3.342 -0.2235 -0.3999  0.0601
  712TIP3    H123627   2.937   4.679   3.425  3.0752 -1.2289 -1.5183
  712TIP3    H223628   2.941   4.657   3.275 -1.5398  1.2015 -2.1081
  713TIP3   OH223629   2.481   1.807   1.717 -0.1285  0.3124  0.0609
  713TIP3    H123630   2.393   1.842   1.732 -0.2511 -0.6457  1.7419
  713TIP3    H223631   2.466   1.719   1.683  0.1323 -0.7040  2.4501
  714TIP3   OH223632   5.853   4.181  10.333  0.3517 -0.1414 -0.1207
  714TIP3    H123633   5.816   4.165  10.246  0.1686  0.4900 -0.1616
  714TIP3    H223634   5.829   4.271  10.353  3.1110  0.7804 -0.7731
  715TIP3   OH223635   1.444   5.748  14.972 -0.2729 -0.5163 -0.4079
  715TIP3    H123636   1.473   5.816  15.034 -2.4640 -0.6707  0.8401
  715TIP3    H223637   1.400   5.796  14.902  0.6139 -0.4674 -0.9371
  716TIP3   OH223638   3.003   5.999   2.298  0.3744  0.0844  0.3566
  716TIP3    H123639   3.035   5.910   2.290  0.3808  0.1747 -0.5975
  716TIP3    H223640   3.060   6.039   2.364  1.0499 -0.2935  0.0011
  717TIP3   OH223641   1.864   1.443  11.857  0.1333  0.5028 -0.9719
  717TIP3    H123642   1.879   1.357  11.897  0.2041  2.5111  3.5468
  717TIP3    H223643   1.770   1.457  11.866  0.3706  1.6022 -0.1185
  718TIP3   OH223644   2.415   1.725  12.064 -0.1920  0.2187 -0.2164
  718TIP3    H123645   2.333   1.774  12.056 -1.8977 -2.2011  1.6087
  718TIP3    H223646   2.434   1.696  11.975 -1.8399  0.0628 -0.5376
  719TIP3   OH223647   3.071   0.042   2.581 -0.8598 -0.0767  0.0863
  719TIP3    H123648   3.020   0.093   2.644  0.2202  2.5725 -1.0997
  719TIP3    H223649   3.152   0.092   2.570  0.1002 -1.8801 -1.4101
  720TIP3   OH223650   3.216   1.635  16.800 -0.2148  0.1534 -0.0329
  720TIP3    H123651   3.132   1.593  16.785  1.8300 -3.0427 -3.0404
  720TIP3    H223652   3.220   1.705  16.735 -1.1374  1.2891  1.1098
  721TIP3   OH223653   0.359   4.031  13.337  0.4145 -0.1125 -0.3389
  721TIP3    H123654   0.277   4.020  13.384  0.8385 -2.8926 -0.1638
  721TIP3    H223655   0.335   4.021  13.245  0.6684 -2.1113 -0.2275
  722TIP3   OH223656   2.108   0.569   6.520 -0.9283 -0.1539 -0.0322
  722TIP3    H123657   2.028   0.622   6.516  0.2666  1.6214 -1.4248
  722TIP3    H223658   2.149   0.582   6.434 -0.1608 -2.6885 -0.0932
  723TIP3   OH223659   1.024   3.336  12.992  0.0229 -0.4647 -0.7891
  723TIP3    H123660   0.933   3.318  12.971  0.2426 -1.0081 -1.3026
  723TIP3    H223661   1.067   3.345  12.907  0.0102  2.1553 -0.5689
  724TIP3   OH223662   0.564   3.999   1.595  0.3153 -0.7188 -0.0603
  724TIP3    H123663   0.618   3.923   1.574  0.0813 -0.5754 -1.2363
  724TIP3    H223664   0.498   4.001   1.526  0.2444  0.4831  0.0264
  725TIP3   OH223665   3.875   4.088  14.156  0.2885 -0.0399  0.1566
  725TIP3    H123666   3.813   4.155  14.126 -2.1173 -0.8271  3.0940
  725TIP3    H223667   3.920   4.129  14.230 -0.9680 -1.4267  1.7663
  726TIP3   OH223668   2.718   1.925   5.216 -0.2427  0.1807  1.2562
  726TIP3    H123669   2.691   1.834   5.210 -1.2289  0.5621 -0.5919
  726TIP3    H223670   2.809   1.926   5.186 -0.9140  0.1012 -0.8285
  727TIP3   OH223671   3.169   5.303   2.819  0.3764  0.0036  0.2343
  727TIP3    H123672   3.193   5.328   2.730  0.7861 -1.3352 -0.0493
  727TIP3    H223673   3.084   5.260   2.811  0.7138 -0.7096  0.3839
  728TIP3   OH223674   5.243   0.981  11.494  0.7910 -0.2980 -0.2054
  728TIP3    H123675   5.181   1.053  11.507  2.4045  1.1970 -0.6174
  728TIP3    H223676   5.212   0.936  11.415 -1.3288 -1.2676  1.1195
  729TIP3   OH223677   1.718   0.495   2.764  0.0053  0.9668 -0.1475
  729TIP3    H123678   1.732   0.497   2.670  3.8055 -0.3997  0.2985
  729TIP3    H223679   1.755   0.578   2.796 -0.3719  0.9853  0.2545
  730TIP3   OH223680   2.069   5.389   1.092 -0.1424  0.8770  0.2450
  730TIP3    H123681   2.085   5.295   1.087  0.2368  0.9271  0.5640
  730TIP3    H223682   1.981   5.396   1.130 -0.3290  0.6469 -0.1326
  731TIP3   OH223683   5.707   4.360   2.053  0.5344  0.1502  0.2680
  731TIP3    H123684   5.751   4.384   2.135  2.1930 -2.1823  0.1253
  731TIP3    H223685   5.691   4.443   2.009 -0.1177  1.4183  2.8166
  732TIP3   OH223686   4.201   4.389  16.485 -0.1543  0.2079  0.2467
  732TIP3    H123687   4.259   4.412  16.558  2.7398 -0.0021 -1.8955
  732TIP3    H223688   4.152   4.313  16.515  0.7023  0.3859  2.1220
  733TIP3   OH223689   2.459   2.063   1.471  0.2246  0.2670  0.1949
  733TIP3    H123690   2.506   2.066   1.555  0.9014 -0.3461 -0.1523
  733TIP3    H223691   2.477   1.975   1.437  0.6142  0.7925 -0.9637
  734TIP3   OH223692   4.008   1.218   2.299 -0.2821  0.3326 -0.1714
  734TIP3    H123693   3.934   1.189   2.245 -2.2088  0.7792  2.1465
  734TIP3    H223694   4.025   1.144   2.357  0.3089  0.6903  0.1118
  735TIP3   OH223695   1.279   4.589   2.332  0.2652  0.2552  0.1515
  735TIP3    H123696   1.292   4.616   2.241 -1.4321  1.9376  0.3852
  735TIP3    H223697   1.315   4.500   2.335  1.0151  0.4351 -1.9694
  736TIP3   OH223698   2.155   4.074  17.267 -0.6765 -0.2035 -0.3089
  736TIP3    H123699   2.161   4.169  17.264 -0.1411 -0.2857 -1.9451
  736TIP3    H223700   2.069   4.054  17.229 -0.6075 -0.3968 -0.3649
  737TIP3   OH223701   5.827   6.095  12.745  0.1227 -0.1068 -0.1253
  737TIP3    H123702   5.853   6.066  12.658  0.9694  0.5257 -0.0919
  737TIP3    H223703   5.763   6.164  12.730  0.3986  0.1224 -0.2551
  738TIP3   OH223704   2.664   3.250   5.091  0.1367 -0.6298  0.2058
  738TIP3    H123705   2.670   3.167   5.139  2.2351 -0.2727  0.6206
  738TIP3    H223706   2.615   3.228   5.012 -0.7124 -1.9042  1.0599
  739TIP3   OH223707   3.937   2.411  14.125 -0.7867 -0.2553 -0.0389
  739TIP3    H123708   3.900   2.498  14.110  2.0163  1.1089  0.5990
  739TIP3    H223709   3.914   2.390  14.216  0.6928  0.9504  0.6288
  740TIP3   OH223710   2.153   5.271  14.198  0.1969  0.3217  0.1656
  740TIP3    H123711   2.232   5.316  14.230  1.2100  0.2383 -2.1627
  740TIP3    H223712   2.139   5.306  14.110 -1.5396 -0.7509 -0.0050
  741TIP3   OH223713   6.786   0.642  15.645  0.0344  0.4597 -0.3407
  741TIP3    H123714   6.700   0.676  15.670  0.4091 -0.3394  2.1354
  741TIP3    H223715   6.846   0.714  15.661  0.2424  0.0192  0.9256
  742TIP3   OH223716   3.900   4.166   1.746 -0.1742  0.3957  0.1700
  742TIP3    H123717   3.947   4.247   1.728 -0.8232  0.7841  0.2282
  742TIP3    H223718   3.818   4.193   1.786 -1.6748 -0.0995 -2.4410
  743TIP3   OH223719   1.745   0.550   1.593 -0.4519 -0.3503  0.1499
  743TIP3    H123720   1.696   0.558   1.675  1.4874  0.9856  1.2279
  743TIP3    H223721   1.830   0.515   1.618 -0.6675 -2.2381 -1.6363
  744TIP3   OH223722   4.471   1.285   2.025  0.0544 -0.0808 -0.3925
  744TIP3    H123723   4.389   1.288   2.076  0.3457 -1.1319  0.1573
  744TIP3    H223724   4.502   1.195   2.035 -0.1158 -0.4472 -2.8301
  745TIP3   OH223725   1.989   4.968  14.990 -0.4329 -0.0897  0.3721
  745TIP3    H123726   2.042   5.010  14.922  2.7161 -1.5019  1.8692
  745TIP3    H223727   1.990   5.031  15.062  0.1145 -0.5979  0.8048
  746TIP3   OH223728   6.147   1.805   5.875  0.3942  0.5845  0.2423
  746TIP3    H123729   6.210   1.766   5.936  1.2249  1.2265 -0.1933
  746TIP3    H223730   6.174   1.772   5.789 -0.3473  0.2385  0.1380
  747TIP3   OH223731   4.393   3.624  11.702 -0.2526  0.1093 -0.2540
  747TIP3    H123732   4.397   3.531  11.727 -0.4923 -0.4422 -2.1830
  747TIP3    H223733   4.387   3.671  11.785  0.8799 -1.5449  0.7874
  748TIP3   OH223734   1.552   4.708   5.942  0.1812  0.0677 -0.8115
  748TIP3    H123735   1.526   4.629   5.989 -0.3319  0.3406 -0.6323
  748TIP3    H223736   1.477   4.729   5.887  0.4038  0.2999 -1.0304
  749TIP3   OH223737   4.083   3.310  11.424 -0.0555  0.0905 -0.3194
  749TIP3    H123738   4.118   3.282  11.339  1.3862 -0.7710  0.5394
  749TIP3    H223739   4.084   3.230  11.478 -1.9618  0.3922  0.1887
  750TIP3   OH223740   1.858   2.301  14.449  0.0098 -0.1900  0.4747
  750TIP3    H123741   1.900   2.221  14.482 -0.8182  0.8134  4.1523
  750TIP3    H223742   1.775   2.270  14.414  0.7106 -1.2403 -0.3079
  751TIP3   OH223743   1.153   4.365   1.215 -0.2073  0.5548  0.2136
  751TIP3    H123744   1.193   4.449   1.239 -2.4196  1.2758  1.5249
  751TIP3    H223745   1.159   4.361   1.120  0.9419  1.6613  0.2259
  752TIP3   OH223746   6.313   1.192   1.401  0.2754  0.7188  0.4498
  752TIP3    H123747   6.246   1.125   1.409  0.3545  0.8034  1.8067
  752TIP3    H223748   6.322   1.205   1.306 -0.9782  0.0791  0.2379
  753TIP3   OH223749   4.806   4.568   1.098  0.2049 -0.0643 -0.1693
  753TIP3    H123750   4.743   4.559   1.026  0.8965 -2.3839 -0.5283
  753TIP3    H223751   4.753   4.560   1.177 -0.6605  3.1240 -0.3193
  754TIP3   OH223752   4.285   5.559   4.727  0.6581 -0.2323  0.3064
  754TIP3    H123753   4.301   5.632   4.667  2.4844 -0.0612  0.9936
  754TIP3    H223754   4.280   5.482   4.670  0.7157  0.1480 -0.2178
  755TIP3   OH223755   1.470   4.083  13.455 -0.2895  0.4953 -0.4650
  755TIP3    H123756   1.396   4.023  13.459  1.0253 -1.2025 -1.3642
  755TIP3    H223757   1.500   4.080  13.364  0.3670  1.8232 -0.3139
  756TIP3   OH223758   4.811   6.173  16.705 -0.7240  0.5492  0.1140
  756TIP3    H123759   4.781   6.083  16.697  1.4259 -0.0839 -1.1447
  756TIP3    H223760   4.849   6.178  16.793  1.8726 -0.6684 -0.8737
  757TIP3   OH223761   0.216   4.780   4.873  0.1757 -0.0860  0.4899
  757TIP3    H123762   0.157   4.822   4.935 -2.6038 -0.4229 -1.7968
  757TIP3    H223763   0.232   4.847   4.806  1.4918 -0.3782  0.5030
  758TIP3   OH223764   3.967   3.296  10.702  0.1745 -0.5514 -0.3068
  758TIP3    H123765   3.919   3.376  10.726  1.8929  0.1022  1.0155
  758TIP3    H223766   4.036   3.327  10.644  1.3052 -0.9727  0.8075
  759TIP3   OH223767   4.727   6.283  13.364 -0.4576 -0.0368 -0.8368
  759TIP3    H123768   4.759   6.197  13.392  0.4844  0.6095  0.1006
  759TIP3    H223769   4.735   6.282  13.269  0.3268 -0.6764 -0.7677
  760TIP3   OH223770   5.978   4.644  13.881 -0.5238  0.4634 -0.2008
  760TIP3    H123771   5.978   4.602  13.967  0.5880  1.4731  0.3093
  760TIP3    H223772   5.915   4.715  13.889 -0.2577  0.6922 -0.1623
  761TIP3   OH223773   0.399   4.428   1.175  0.9002 -0.2711 -0.6892
  761TIP3    H123774   0.329   4.393   1.230  0.2502  0.4087 -1.0871
  761TIP3    H223775   0.466   4.456   1.238  0.8551 -0.9780 -0.3148
  762TIP3   OH223776   1.184   0.193   2.692 -0.6700  0.2264  0.0815
  762TIP3    H123777   1.235   0.274   2.691 -0.9279  0.3859 -0.4835
  762TIP3    H223778   1.249   0.123   2.685 -0.5686  0.4512 -1.4023
  763TIP3   OH223779   2.566   3.661   4.522 -0.0097  0.6886 -0.4397
  763TIP3    H123780   2.531   3.748   4.541 -3.8026 -1.1795  1.6539
  763TIP3    H223781   2.502   3.600   4.560  2.7015 -3.0325 -1.5387
  764TIP3   OH223782   4.475   3.342  16.705 -0.2810  0.3992  0.6732
  764TIP3    H123783   4.567   3.364  16.688 -0.3304  0.8627  1.0244
  764TIP3    H223784   4.431   3.426  16.713 -1.4490  0.2433 -3.2298
  765TIP3   OH223785   4.335   6.054   2.261 -0.1833 -0.3961  0.3216
  765TIP3    H123786   4.277   5.980   2.276  0.2382 -0.8554 -0.3029
  765TIP3    H223787   4.303   6.094   2.180 -1.0873  0.7596  1.2387
  766TIP3   OH223788   1.520   4.532   0.825 -0.5357 -0.0442 -0.6868
  766TIP3    H123789   1.503   4.439   0.814  0.2556 -0.3980  0.9465
  766TIP3    H223790   1.601   4.548   0.777 -0.7857 -0.1368 -1.1468
  767TIP3   OH223791   2.457   2.226   5.914 -0.2637 -0.2314 -0.4007
  767TIP3    H123792   2.432   2.255   6.002 -1.9081  1.6327 -1.4644
  767TIP3    H223793   2.543   2.184   5.927  0.1369  1.1930  1.8794
  768TIP3   OH223794   4.673   2.891  17.028  0.2466  0.2811 -0.1391
  768TIP3    H123795   4.745   2.866  16.970 -0.4528 -0.4608 -0.7012
  768TIP3    H223796   4.655   2.982  17.005  0.7194  0.3421 -0.2909
  769TIP3   OH223797   6.634   4.252   6.030  0.2770  0.3841 -0.1200
  769TIP3    H123798   6.554   4.276   6.076  0.1546 -0.1085 -0.0761
  769TIP3    H223799   6.648   4.324   5.968  1.0750  1.6178  1.4745
  770TIP3   OH223800   6.433   6.484   2.500 -0.3267  0.5268  0.1232
  770TIP3    H123801   6.452   6.474   2.594 -0.5181  0.8808  0.2028
  770TIP3    H223802   6.499   6.430   2.456  0.2595  0.9937  0.4264
  771TIP3   OH223803   3.728   4.054  16.752  0.3542  0.0750  0.1917
  771TIP3    H123804   3.785   4.101  16.814 -1.1118  1.3162  0.6286
  771TIP3    H223805   3.743   4.098  16.668  0.5570 -0.0456  0.1629
  772TIP3   OH223806   6.609   1.509   1.419 -0.3292 -0.0338 -0.3488
  772TIP3    H123807   6.514   1.497   1.427 -0.1375 -0.1620  2.0046
  772TIP3    H223808   6.635   1.445   1.352 -2.0915  1.0772 -2.1466
  773TIP3   OH223809   4.170   2.052  13.337 -0.8605 -0.3947 -0.3257
  773TIP3    H123810   4.197   2.118  13.273 -1.4947 -0.5148 -0.7239
  773TIP3    H223811   4.201   2.085  13.421  0.4739 -0.5022 -0.7630
  774TIP3   OH223812   0.487   2.635   2.057  0.4893 -0.4395  0.1708
  774TIP3    H123813   0.557   2.694   2.027 -0.1137 -0.8580 -2.2144
  774TIP3    H223814   0.414   2.654   1.997 -0.2355 -2.4916  0.3872
  775TIP3   OH223815   1.050   2.235  15.553 -0.0238 -0.0339 -0.0075
  775TIP3    H123816   0.967   2.196  15.578  0.0424 -0.8508 -1.0216
  775TIP3    H223817   1.027   2.313  15.503 -0.2170 -1.2181 -1.8079
  776TIP3   OH223818   4.371   1.486  13.344  0.6654  0.5110  0.1177
  776TIP3    H123819   4.294   1.432  13.361 -1.0143  2.1152 -2.1688
  776TIP3    H223820   4.401   1.513  13.431 -1.4905  0.0635  1.0183
  777TIP3   OH223821   0.013   2.238  15.224  0.0371 -0.3883 -0.1784
  777TIP3    H123822   0.063   2.229  15.305  0.0383 -1.5353 -0.3004
  777TIP3    H223823  -0.078   2.221  15.250  0.1904 -1.9494 -0.6309
  778TIP3   OH223824   3.346   5.566   3.216  0.3002 -0.4419  0.5924
  778TIP3    H123825   3.269   5.571   3.160 -0.3742 -0.3678  1.5192
  778TIP3    H223826   3.401   5.639   3.187 -0.5251  0.2415  0.7480
  779TIP3   OH223827   5.061   4.742   4.727  0.0099  0.0994 -0.1900
  779TIP3    H123828   5.136   4.733   4.668  0.3181 -0.0025  0.2075
  779TIP3    H223829   4.993   4.782   4.674  0.5826  0.8619 -0.3652
  780TIP3   OH223830   1.555   5.649  12.596  0.1492 -0.2940  0.1885
  780TIP3    H123831   1.511   5.696  12.525 -1.1006 -0.5006  0.8121
  780TIP3    H223832   1.521   5.560  12.591  2.7977 -1.2701 -1.2281
  781TIP3   OH223833   6.815   3.079   4.606 -0.1368  0.2000  0.1068
  781TIP3    H123834   6.785   3.157   4.653  0.2458  0.2695  0.2363
  781TIP3    H223835   6.743   3.058   4.547 -0.6490  0.0635  0.7751
  782TIP3   OH223836   4.396   1.170   3.755  0.1898 -0.1716 -0.4059
  782TIP3    H123837   4.424   1.164   3.664 -0.9684 -1.6393 -0.7055
  782TIP3    H223838   4.310   1.212   3.751  0.6482  0.8117  0.1152
  783TIP3   OH223839   5.304   6.418   4.985  0.0760  0.4480 -0.7365
  783TIP3    H123840   5.308   6.492   5.046  0.6299  0.2908 -0.5778
  783TIP3    H223841   5.375   6.435   4.923 -0.7403  0.8109 -1.5762
  784TIP3   OH223842   5.526   4.107  10.907  0.6595  0.2198  0.4385
  784TIP3    H123843   5.606   4.079  10.952 -0.1173 -0.0428  1.7032
  784TIP3    H223844   5.508   4.037  10.845  1.7740  0.5979 -0.3235
  785TIP3   OH223845   5.944   5.834  14.919 -0.2034  0.0860  0.1452
  785TIP3    H123846   5.964   5.799  14.832  0.8666  1.2276 -0.0714
  785TIP3    H223847   6.029   5.852  14.959 -0.7053  0.5446  1.0282
  786TIP3   OH223848   5.606   3.039  14.943  0.2217  0.3359 -0.6442
  786TIP3    H123849   5.574   3.126  14.917  1.9994  1.5496  1.0830
  786TIP3    H223850   5.698   3.053  14.967 -0.1465 -1.4933  2.1147
  787TIP3   OH223851   2.689   4.055   0.199 -0.3027 -0.1491  0.2896
  787TIP3    H123852   2.714   4.073   0.289  1.0121 -0.6661  0.0438
  787TIP3    H223853   2.685   3.960   0.193  0.5010 -0.1506 -0.4150
  788TIP3   OH223854   3.494   2.420  11.080 -0.4235 -0.0817 -0.1307
  788TIP3    H123855   3.528   2.351  11.023  0.8161  1.4971 -1.3353
  788TIP3    H223856   3.548   2.415  11.158  0.3712  0.2311 -0.6590
  789TIP3   OH223857   4.172   0.202   0.534 -0.4816  0.3586  0.8174
  789TIP3    H123858   4.188   0.268   0.467 -0.6463  0.7695  1.1779
  789TIP3    H223859   4.143   0.253   0.610  1.0748  0.0483  1.6526
  790TIP3   OH223860   5.910   2.476  13.567  0.0438 -0.2788 -0.3249
  790TIP3    H123861   5.840   2.482  13.501  0.0403 -1.3471 -0.4408
  790TIP3    H223862   5.899   2.553  13.622 -0.7408 -0.0319 -0.8256
  791TIP3   OH223863   2.776   6.187  15.824 -0.7748  0.4727 -0.4347
  791TIP3    H123864   2.758   6.112  15.766  2.9047 -1.4216  0.7419
  791TIP3    H223865   2.839   6.240  15.776 -2.9245  2.6295 -1.0040
  792TIP3   OH223866   5.145   1.946  15.073 -0.0947  0.1546 -0.2065
  792TIP3    H123867   5.170   1.994  14.994 -0.4649 -0.8256 -0.9399
  792TIP3    H223868   5.209   1.972  15.139 -0.9429  2.5039 -0.2500
  793TIP3   OH223869   4.604   2.539   3.958 -0.4490 -1.0935 -0.3906
  793TIP3    H123870   4.562   2.576   4.035  1.7857  2.6190 -0.8549
  793TIP3    H223871   4.695   2.567   3.964 -0.0166 -1.4693 -3.9413
  794TIP3   OH223872   6.351   2.399   0.873 -0.5008 -0.6449  0.1869
  794TIP3    H123873   6.286   2.329   0.883  0.7920 -1.9976 -0.5853
  794TIP3    H223874   6.306   2.466   0.822 -1.5074 -1.2526  0.2452
  795TIP3   OH223875   0.991   2.861  12.044  0.1249  0.2798 -0.0814
  795TIP3    H123876   0.937   2.887  11.970  2.0303  2.7614 -0.6810
  795TIP3    H223877   1.073   2.829  12.005  1.4972  2.4629  0.8920
  796TIP3   OH223878   1.985   3.950  14.790 -0.2664 -0.8517  0.2698
  796TIP3    H123879   1.963   3.915  14.876 -0.0718  1.1130  1.1450
  796TIP3    H223880   1.986   4.045  14.802 -0.0227 -0.5535 -1.8518
  797TIP3   OH223881   5.210   2.062   5.963  0.0786 -0.0529  0.1654
  797TIP3    H123882   5.257   2.142   5.984 -1.1170  0.4407  1.0131
  797TIP3    H223883   5.226   2.005   6.039  1.0879 -0.7049 -0.5215
  798TIP3   OH223884   3.517   2.498   1.622 -0.2519 -0.2243 -0.2569
  798TIP3    H123885   3.451   2.433   1.599 -1.6301  0.2635  2.1486
  798TIP3    H223886   3.491   2.577   1.575  0.1641 -0.7897 -1.4410
  799TIP3   OH223887   5.096   2.627   6.142 -0.2166  0.3960 -0.4020
  799TIP3    H123888   5.073   2.601   6.231  0.4173 -1.5042 -0.7687
  799TIP3    H223889   5.054   2.562   6.086  1.6948 -0.0553 -1.3441
  800TIP3   OH223890   3.646   6.807  12.164  0.3213  0.0201 -0.1918
  800TIP3    H123891   3.742   6.813  12.159  0.2987  0.3319 -0.2578
  800TIP3    H223892   3.624   6.727  12.117  0.5961 -0.3591  0.3102
  801TIP3   OH223893   0.408   1.860  15.933  0.2110  0.7071  0.0867
  801TIP3    H123894   0.381   1.819  16.015 -1.3631  2.4487  0.4762
  801TIP3    H223895   0.430   1.787  15.876 -1.6066 -0.6559  1.0698
  802TIP3   OH223896   6.331   3.714   4.447 -0.2781  0.5136  0.2543
  802TIP3    H123897   6.345   3.640   4.387  0.1613 -0.8171  1.9366
  802TIP3    H223898   6.259   3.763   4.408  0.9834  0.5584 -2.1485
  803TIP3   OH223899   3.275   0.162   2.993 -0.0514 -0.3989  0.2327
  803TIP3    H123900   3.288   0.154   3.087 -2.6119 -1.3338  0.5510
  803TIP3    H223901   3.218   0.089   2.970 -2.3165  1.7917 -1.4094
  804TIP3   OH223902   1.339   5.278  16.336 -0.3753 -0.1749 -0.0632
  804TIP3    H123903   1.303   5.191  16.351 -2.0856  0.4055 -0.6649
  804TIP3    H223904   1.270   5.338  16.365  1.5749  1.0206  2.2679
  805TIP3   OH223905   4.354   2.282   4.209  0.0426 -0.2272  0.7926
  805TIP3    H123906   4.353   2.327   4.294  2.2370 -0.2054  0.8415
  805TIP3    H223907   4.339   2.190   4.230  0.9074 -0.2689  1.2539
  806TIP3   OH223908   0.243   3.845  15.435 -0.3670 -0.3352  0.1170
  806TIP3    H123909   0.158   3.801  15.446  0.0876 -0.6154  2.8877
  806TIP3    H223910   0.308   3.775  15.443  0.2346  0.3366  1.2876
  807TIP3   OH223911   5.613   5.430   4.008 -0.0508 -0.4529 -1.0794
  807TIP3    H123912   5.530   5.383   4.009 -0.1039 -0.3759  1.0281
  807TIP3    H223913   5.595   5.512   3.964 -0.9936 -0.6275 -1.0230
  808TIP3   OH223914   1.294   4.307  16.639  0.4955 -0.5939 -0.4547
  808TIP3    H123915   1.283   4.352  16.723  0.7518  0.2649 -0.8665
  808TIP3    H223916   1.241   4.228  16.646 -0.3831  0.0399  0.1013
  809TIP3   OH223917   6.272   4.057  16.584  0.6477 -0.0348 -0.6462
  809TIP3    H123918   6.227   4.124  16.533  0.8367  0.2279 -0.4680
  809TIP3    H223919   6.245   3.974  16.545 -0.0614  0.1172 -0.4855
  810TIP3   OH223920   4.161   1.709  15.605 -0.3692 -0.4893  0.7243
  810TIP3    H123921   4.240   1.723  15.658  0.1485  0.0678 -0.1645
  810TIP3    H223922   4.110   1.789  15.617  0.9117  0.7295 -1.5389
  811TIP3   OH223923   1.970   4.052  12.895 -0.5265 -0.0304  0.0825
  811TIP3    H123924   1.890   4.044  12.844 -0.4056 -1.1721  0.0529
  811TIP3    H223925   1.991   4.145  12.893 -1.4847  0.1783 -0.4706
  812TIP3   OH223926   1.191   1.736  13.006 -0.1915 -0.2117 -0.1445
  812TIP3    H123927   1.100   1.706  12.997 -0.2550 -0.0550 -0.0369
  812TIP3    H223928   1.244   1.658  12.990 -0.3078 -0.0352 -1.4426
  813TIP3   OH223929   5.844   0.935  13.133 -0.5797 -1.0486  0.4099
  813TIP3    H123930   5.810   0.951  13.221  0.9531 -0.0118  0.8405
  813TIP3    H223931   5.902   0.859  13.143 -1.2392 -1.6061  0.0642
  814TIP3   OH223932   3.444   1.858  15.435 -0.1650  0.2132 -0.0896
  814TIP3    H123933   3.486   1.863  15.521 -1.0453  2.1066  0.2723
  814TIP3    H223934   3.492   1.921  15.381  0.6429 -1.2660 -1.1089
  815TIP3   OH223935   5.189   3.997   3.925  0.3768 -0.6057 -0.6900
  815TIP3    H123936   5.109   4.026   3.970  0.8413 -0.0050 -0.2528
  815TIP3    H223937   5.184   3.902   3.927 -0.9278 -0.5715 -1.7111
  816TIP3   OH223938   2.155   4.668   1.138 -0.3810 -0.2111 -0.0257
  816TIP3    H123939   2.139   4.598   1.201  0.6743 -0.4157  0.0297
  816TIP3    H223940   2.241   4.647   1.101 -1.6909 -1.0420 -2.7412
  817TIP3   OH223941   3.743   4.451  11.472  0.6311  0.0803  0.2186
  817TIP3    H123942   3.806   4.382  11.453  0.5067 -1.1024  3.6025
  817TIP3    H223943   3.666   4.428  11.421  1.5158 -0.8033 -0.7350
  818TIP3   OH223944   4.447   3.720   5.304  0.0212  0.4604  0.1524
  818TIP3    H123945   4.355   3.744   5.296  0.1286  0.8170 -0.0592
  818TIP3    H223946   4.458   3.694   5.395 -0.4948 -0.4648 -0.0403
  819TIP3   OH223947   4.994   5.031  14.250 -0.1712 -0.3007  0.5049
  819TIP3    H123948   4.917   4.975  14.258  0.4927 -1.3262 -0.1910
  819TIP3    H223949   4.988   5.066  14.161  0.0927 -0.2788  0.4960
  820TIP3   OH223950   1.315   5.365  13.294 -0.0640 -0.1398 -0.2556
  820TIP3    H123951   1.383   5.418  13.252  1.7119 -1.4243  0.9742
  820TIP3    H223952   1.318   5.281  13.248 -1.6784  0.2092 -1.0236
  821TIP3   OH223953   2.218   1.200  15.807  0.0452  0.4608  0.5828
  821TIP3    H123954   2.188   1.159  15.888 -2.2503  0.5150 -0.2256
  821TIP3    H223955   2.285   1.140  15.774 -2.0217 -1.7739  0.3202
  822TIP3   OH223956   0.887   3.748   4.209  0.7148  0.1918 -0.1979
  822TIP3    H123957   0.808   3.774   4.161  0.5078 -1.6987 -0.9313
  822TIP3    H223958   0.874   3.783   4.297 -1.4794 -1.0023 -0.0098
  823TIP3   OH223959   4.961   0.184   4.318 -1.0173 -0.3600 -0.5765
  823TIP3    H123960   5.020   0.148   4.385 -0.5826 -0.1792 -0.8573
  823TIP3    H223961   4.958   0.116   4.251 -2.8433 -1.2954  0.4208
  824TIP3   OH223962   0.792   6.617   1.583  0.0304  0.0016 -0.1005
  824TIP3    H123963   0.706   6.589   1.550  0.9496 -3.3198  0.1892
  824TIP3    H223964   0.788   6.603   1.677 -0.2418  3.1035  0.3984
  825TIP3   OH223965   5.603   1.846  12.496  0.1513 -1.3872  0.3360
  825TIP3    H123966   5.583   1.875  12.407  0.4451 -1.4721  0.2392
  825TIP3    H223967   5.698   1.830  12.495  0.4390  0.2108  1.1235
  826TIP3   OH223968   5.074   5.309  13.308 -0.0944 -0.0748 -0.3176
  826TIP3    H123969   5.025   5.235  13.344  0.5330 -1.0133 -1.3609
  826TIP3    H223970   5.121   5.345  13.382  0.3933 -1.3654  0.0152
  827TIP3   OH223971   2.099   3.980  12.313  0.2505 -0.3960 -0.5274
  827TIP3    H123972   2.030   3.981  12.247 -1.1330  2.6521  0.8747
  827TIP3    H223973   2.061   3.933  12.387  0.1807  0.0183 -0.2969
  828TIP3   OH223974   6.142   0.118  16.026 -0.0105  0.1682  0.0498
  828TIP3    H123975   6.063   0.069  16.000 -0.9282  0.5772  2.0121
  828TIP3    H223976   6.113   0.209  16.031  0.8161  0.4391 -0.0659
  829TIP3   OH223977   1.848   6.245  10.865 -0.3275 -0.1705 -1.0919
  829TIP3    H123978   1.918   6.284  10.814 -0.8908  0.5161 -1.3452
  829TIP3    H223979   1.820   6.169  10.814 -0.0273 -0.2291 -1.1712
  830TIP3   OH223980   5.474   4.837  11.948 -0.1222  1.0725  0.0306
  830TIP3    H123981   5.467   4.808  11.857 -1.1410  0.9933  0.1197
  830TIP3    H223982   5.493   4.757  11.997  1.2452  1.2476 -0.1997
  831TIP3   OH223983   5.389   5.574   4.269  0.2270 -0.2289 -0.1876
  831TIP3    H123984   5.390   5.483   4.240  0.3533 -0.5900  0.9317
  831TIP3    H223985   5.312   5.612   4.226  2.0647  0.0792 -3.4158
  832TIP3   OH223986   3.891   2.328   5.095  1.0614  0.6089 -0.1827
  832TIP3    H123987   3.848   2.384   5.030  1.2472 -0.1141 -0.9401
  832TIP3    H223988   3.821   2.303   5.156  0.5986  0.2113 -0.8682
  833TIP3   OH223989   4.275   4.765  12.496 -0.2936 -0.3941  0.7265
  833TIP3    H123990   4.233   4.799  12.575 -1.1578  0.6093 -0.1600
  833TIP3    H223991   4.222   4.798  12.424  1.7584  0.5062 -0.4036
  834TIP3   OH223992   4.248   1.709  14.327 -0.6809  0.7823  0.4411
  834TIP3    H123993   4.278   1.777  14.388  1.6486  0.0404  0.1788
  834TIP3    H223994   4.313   1.639  14.337 -1.0390  0.0969 -1.9108
  835TIP3   OH223995   0.003   5.938   5.002  0.4435 -0.3311 -0.1257
  835TIP3    H123996   0.055   6.008   4.963 -1.4324  1.0206 -0.2687
  835TIP3    H223997  -0.050   5.982   5.068 -0.7604 -1.6052 -0.2302
  836TIP3   OH223998   3.399   4.156  10.308 -0.0560  0.1414 -0.1054
  836TIP3    H123999   3.351   4.078  10.336 -0.2485 -0.7118 -2.6360
  836TIP3    H224000   3.335   4.205  10.256  0.9826  0.3898 -1.1714
  837TIP3   OH224001   6.043   1.032  14.269  0.3172 -0.1830  0.4204
  837TIP3    H124002   6.126   0.991  14.294  1.1111  0.6097 -0.8886
  837TIP3    H224003   5.982   0.959  14.262  1.1907 -0.9032  0.2180
  838TIP3   OH224004   6.085   5.092  13.353  0.0435 -0.3775 -0.0278
  838TIP3    H124005   6.173   5.105  13.388  0.0408 -1.9205  0.5901
  838TIP3    H224006   6.028   5.138  13.414  0.1606 -1.9490  1.2855
  839TIP3   OH224007   6.386   0.054  15.426  0.1961 -0.1276  0.0843
  839TIP3    H124008   6.413  -0.021  15.479  0.2709  0.1688  0.4609
  839TIP3    H224009   6.412   0.030  15.337  0.7490 -0.3001  0.2894
  840TIP3   OH224010   4.674   3.629  11.692  0.2651 -0.3178  0.4614
  840TIP3    H124011   4.582   3.603  11.680  1.0908 -2.5346 -1.3719
  840TIP3    H224012   4.714   3.554  11.737  2.1176 -1.2287 -2.6072
  841TIP3   OH224013   3.763   1.700   3.684 -0.2594  0.5473 -0.2721
  841TIP3    H124014   3.765   1.730   3.593 -1.6341 -0.1479 -0.5498
  841TIP3    H224015   3.851   1.668   3.701  0.3083  1.6628 -1.0222
  842TIP3   OH224016   5.506   5.036  12.251  0.2276 -0.2214 -0.2463
  842TIP3    H124017   5.561   4.990  12.187 -1.5564 -0.2760 -1.7925
  842TIP3    H224018   5.449   4.968  12.287  0.9206 -0.1073  1.0979
  843TIP3   OH224019   0.962   6.508   2.456 -0.3396  0.2241  0.4376
  843TIP3    H124020   0.928   6.592   2.487  1.0159  0.4069  1.4941
  843TIP3    H224021   0.997   6.466   2.534  1.9175  0.1093 -0.5728
  844TIP3   OH224022   4.502   2.984  15.308  0.2802  0.3209  0.4913
  844TIP3    H124023   4.534   2.977  15.398 -1.6432  0.9084  1.2706
  844TIP3    H224024   4.493   3.078  15.294 -1.0790  0.1762  0.3218
  845TIP3   OH224025   5.833   6.182  15.150 -0.5785 -0.4036 -0.0513
  845TIP3    H124026   5.793   6.147  15.070  0.1523  0.3622 -0.7732
  845TIP3    H224027   5.812   6.119  15.218 -0.7724 -1.3308 -0.9625
  846TIP3   OH224028   4.261   2.252   1.995  0.1167 -0.2581 -0.3380
  846TIP3    H124029   4.272   2.182   2.059 -1.0123 -0.7611 -0.6988
  846TIP3    H224030   4.335   2.311   2.012  1.7574 -2.1340 -0.8186
  847TIP3   OH224031   1.734   2.699   1.155  0.0686 -0.3984 -0.2650
  847TIP3    H124032   1.769   2.783   1.125  2.3249 -1.2703 -0.1720
  847TIP3    H224033   1.692   2.662   1.078 -2.8333  1.6929  0.1949
  848TIP3   OH224034   4.159   1.387   2.437  0.4173  0.3120  0.6740
  848TIP3    H124035   4.110   1.469   2.446  1.5541  1.1615 -0.8633
  848TIP3    H224036   4.109   1.337   2.373  0.2103  0.1455  0.9604
  849TIP3   OH224037   2.894   5.058  15.178 -0.4942  0.0124 -0.2605
  849TIP3    H124038   2.855   4.972  15.163 -0.2000 -0.5896  2.1780
  849TIP3    H224039   2.840   5.097  15.247  1.0326  0.6231  0.6110
  850TIP3   OH224040   1.046   5.808   0.571  0.2512 -0.1909 -0.2571
  850TIP3    H124041   1.049   5.738   0.636 -0.9009  0.3994  0.4493
  850TIP3    H224042   1.083   5.770   0.492 -0.3935 -1.5975  0.1101
  851TIP3   OH224043   5.531   0.997   0.740 -0.0244  0.1092  0.3827
  851TIP3    H124044   5.439   0.978   0.720  0.0471  0.0242  0.1330
  851TIP3    H224045   5.571   1.013   0.655 -0.1278  1.5828  0.6005
  852TIP3   OH224046   6.650   5.675  11.636  0.0073  0.0297 -0.2939
  852TIP3    H124047   6.674   5.632  11.554 -0.0306 -0.2072 -0.1816
  852TIP3    H224048   6.560   5.646  11.653  0.1589 -0.2587  0.0464
  853TIP3   OH224049   3.985   4.211  12.146  0.0049  0.3013 -0.5398
  853TIP3    H124050   4.019   4.230  12.233  1.1885 -2.5898 -0.3108
  853TIP3    H224051   4.052   4.246  12.086  0.3083  0.2570 -0.2295
  854TIP3   OH224052   0.432   4.944  13.037  0.1621  0.3450 -0.1639
  854TIP3    H124053   0.367   5.010  13.061 -1.3075 -0.5565 -1.6146
  854TIP3    H224054   0.403   4.911  12.952  2.9625  0.5098 -1.2468
  855TIP3   OH224055   6.550   3.917   1.909  0.6739 -0.0901  0.2647
  855TIP3    H124056   6.536   3.891   2.000 -0.4130  0.2826  0.2119
  855TIP3    H224057   6.569   4.011   1.914  1.0858 -0.1674  0.1500
  856TIP3   OH224058   4.947   6.527  11.047 -0.4936  0.1889  0.1547
  856TIP3    H124059   4.955   6.615  11.084 -0.0229  0.5752 -0.8484
  856TIP3    H224060   4.852   6.511  11.045 -0.4776 -0.3587  2.6993
  857TIP3   OH224061   5.645   0.808  11.049  0.1535 -0.1739 -0.6216
  857TIP3    H124062   5.661   0.894  11.011  0.1770 -1.1958 -3.0320
  857TIP3    H224063   5.716   0.753  11.016  1.9672 -0.4280  3.4363
  858TIP3   OH224064   5.897   5.114  10.181 -0.0399  0.2672  0.2061
  858TIP3    H124065   5.888   5.209  10.190 -1.0634  0.5468 -3.1047
  858TIP3    H224066   5.981   5.102  10.137 -1.0415 -0.1610 -1.6651
  859TIP3   OH224067   4.050   1.725   1.560 -0.1265  0.3201  0.1099
  859TIP3    H124068   4.089   1.737   1.646  1.6616  0.2226 -0.6692
  859TIP3    H224069   3.981   1.660   1.574  0.0107  0.4646  1.5041
  860TIP3   OH224070   3.460   1.598  15.949 -0.0783  0.1624 -0.2963
  860TIP3    H124071   3.534   1.566  15.897 -1.5552 -0.1028 -2.2646
  860TIP3    H224072   3.501   1.642  16.024  2.0273 -2.8578  0.3978
  861TIP3   OH224073   0.085   6.771  11.321 -0.0717  0.5582 -0.2053
  861TIP3    H124074  -0.009   6.778  11.334 -0.0083  0.9108  0.0588
  861TIP3    H224075   0.094   6.734  11.233 -0.4389  1.3616 -0.5843
  862TIP3   OH224076   0.587   2.240  13.324 -0.0532 -0.1997 -0.1480
  862TIP3    H124077   0.511   2.295  13.304 -0.4193 -0.2774  1.0040
  862TIP3    H224078   0.588   2.235  13.419 -0.1603 -2.3791 -0.2319
  863TIP3   OH224079   2.478   3.750  13.209 -0.0214 -0.3312 -0.1087
  863TIP3    H124080   2.403   3.800  13.240 -0.1918 -1.2640  0.9833
  863TIP3    H224081   2.536   3.816  13.169 -0.1367  0.7653  1.5147
  864TIP3   OH224082   4.394   1.357  12.410 -0.3825  0.0137  0.1380
  864TIP3    H124083   4.417   1.293  12.477 -0.5092 -0.0276  0.1419
  864TIP3    H224084   4.300   1.347  12.398 -0.1552 -0.9413 -1.0110
  865TIP3   OH224085   3.707   1.720  14.262 -0.1125  0.8412 -0.2155
  865TIP3    H124086   3.795   1.757  14.264  0.1925  0.0833  1.1257
  865TIP3    H224087   3.701   1.668  14.342 -0.9142 -1.1358 -1.5318
  866TIP3   OH224088   3.878   3.919  12.082 -0.1732  0.0692 -0.2600
  866TIP3    H124089   3.891   3.997  12.136  0.7605  0.5736 -1.1936
  866TIP3    H224090   3.782   3.909  12.077 -0.3516  2.0949 -1.4396
  867TIP3   OH224091   0.724   1.396   1.597  0.8552 -0.0903  0.2801
  867TIP3    H124092   0.751   1.398   1.689 -0.0338  2.1904  0.5216
  867TIP3    H224093   0.717   1.488   1.572  0.3418 -0.6826 -1.8629
  868TIP3   OH224094   6.023   2.844   4.955 -0.3693  0.1287 -0.7898
  868TIP3    H124095   5.931   2.826   4.973 -0.2074  0.1389  0.1020
  868TIP3    H224096   6.033   2.937   4.976  0.7531 -0.7932  3.1636
  869TIP3   OH224097   4.260   0.399  12.168 -0.9238 -0.0267  0.4083
  869TIP3    H124098   4.289   0.310  12.146 -1.4935  0.1749 -1.1420
  869TIP3    H224099   4.166   0.398  12.154 -0.8908  0.9057  0.1071
  870TIP3   OH224100   0.180   6.471  17.074 -0.6749  0.2417  1.0565
  870TIP3    H124101   0.115   6.445  17.139 -2.8755  1.5113 -0.5850
  870TIP3    H224102   0.201   6.561  17.096 -0.6599  0.3444  0.6290
  871TIP3   OH224103   0.883   6.534   2.999  0.4610 -0.1099 -0.1501
  871TIP3    H124104   0.822   6.599   3.032  1.3459  0.6673 -0.0006
  871TIP3    H224105   0.854   6.515   2.910 -0.4252 -0.3061  0.1808
  872TIP3   OH224106   4.787   1.301  15.187  0.3321  0.3664 -0.7036
  872TIP3    H124107   4.776   1.216  15.231  0.6250  0.8929  0.4149
  872TIP3    H224108   4.702   1.343  15.194  0.4875  0.6150 -0.2758
  873TIP3   OH224109   6.326   5.998  13.947  0.7540 -0.0077  0.2776
  873TIP3    H124110   6.343   6.043  13.864 -0.1552  2.2312  1.2643
  873TIP3    H224111   6.328   6.067  14.013 -0.4756 -1.4541  1.8875
  874TIP3   OH224112   4.078   6.792   2.118  0.5130 -0.6512  0.0495
  874TIP3    H124113   4.080   6.886   2.133 -1.2063 -0.2456 -1.8868
  874TIP3    H224114   4.018   6.758   2.184  0.0779 -0.1806 -0.0985
  875TIP3   OH224115   5.936   2.294  14.794  0.0067 -0.0990 -0.9045
  875TIP3    H124116   6.021   2.265  14.828 -0.8884  0.3409  1.8610
  875TIP3    H224117   5.902   2.218  14.747  2.4169  0.1000 -3.0630
  876TIP3   OH224118   3.001   2.940   5.125 -0.7044 -0.1368 -0.3964
  876TIP3    H124119   3.087   2.924   5.165 -0.3965 -0.7534 -1.2992
  876TIP3    H224120   3.017   3.005   5.057 -1.2924  1.1742  0.7013
  877TIP3   OH224121   0.810   2.431   4.070 -0.6306  0.0377  0.6726
  877TIP3    H124122   0.734   2.477   4.106 -1.9531 -1.1059 -0.6022
  877TIP3    H224123   0.773   2.371   4.005  1.5470  0.8201 -1.3196
  878TIP3   OH224124   5.605   0.710  16.936 -0.1201 -0.2560  0.7784
  878TIP3    H124125   5.599   0.780  16.870 -0.0788  1.3215  2.4099
  878TIP3    H224126   5.515   0.678  16.943 -0.5837  1.1673  1.6155
  879TIP3   OH224127   0.285   3.853   0.970  0.5989  0.3627  0.3865
  879TIP3    H124128   0.357   3.792   0.984  0.7126  0.3870 -0.0810
  879TIP3    H224129   0.328   3.937   0.953  0.4665  0.3194 -0.1647
  880TIP3   OH224130   0.523   1.051   1.744  0.1594 -0.4800 -0.4401
  880TIP3    H124131   0.605   1.065   1.697  1.5095 -1.1731  1.5900
  880TIP3    H224132   0.460   1.029   1.677  1.6980 -0.1252 -2.0393
  881TIP3   OH224133   6.468   0.211   3.848 -0.0549 -0.6877 -0.3131
  881TIP3    H124134   6.546   0.264   3.834 -1.1029  0.6661 -1.1655
  881TIP3    H224135   6.464   0.153   3.772  1.2915 -2.2649  0.8005
  882TIP3   OH224136   1.220   6.707   2.667  0.2238 -0.0810  0.1931
  882TIP3    H124137   1.253   6.620   2.646 -0.2030 -0.1111 -0.3518
  882TIP3    H224138   1.167   6.694   2.746 -1.9913 -0.7749 -1.3785
  883TIP3   OH224139   6.635   5.696  16.339 -0.6162  0.0123  0.2261
  883TIP3    H124140   6.611   5.630  16.404  0.9282 -0.1267  0.6808
  883TIP3    H224141   6.568   5.764  16.347 -1.5986 -0.9714  0.5183
  884TIP3   OH224142   2.033   5.442   0.810  0.0695  0.4087  0.2801
  884TIP3    H124143   1.939   5.462   0.812 -0.0390  0.1020 -0.8722
  884TIP3    H224144   2.052   5.407   0.897 -1.6322 -2.7215 -0.5157
  885TIP3   OH224145   3.986   0.990  16.860 -0.2412 -0.3564  0.0994
  885TIP3    H124146   3.972   1.045  16.936  1.5999  1.3883 -0.7806
  885TIP3    H224147   3.912   1.009  16.802  0.4662  1.3500 -0.2692
  886TIP3   OH224148   5.979   1.775   0.321  0.3246  0.4225  0.1218
  886TIP3    H124149   5.959   1.755   0.229 -0.5425  0.5691  0.2751
  886TIP3    H224150   5.932   1.857   0.338 -2.2782 -1.3435  1.6520
  887TIP3   OH224151   4.710   3.817  16.343  0.3071 -0.2700  0.0362
  887TIP3    H124152   4.768   3.761  16.291 -0.6946  0.1119 -1.5547
  887TIP3    H224153   4.630   3.766  16.353  0.0921  0.1030  0.2452
  888TIP3   OH224154   4.655   0.913  13.090 -0.8218 -0.7508 -0.5960
  888TIP3    H124155   4.634   0.966  13.013 -2.5605  1.2138  1.1696
  888TIP3    H224156   4.590   0.843  13.089 -3.2166  1.3565  1.0242
  889TIP3   OH224157   4.579   5.164   1.734 -0.0311  0.6161  0.7574
  889TIP3    H124158   4.590   5.224   1.661  2.5217  0.6948  1.1495
  889TIP3    H224159   4.564   5.079   1.694 -0.7383  1.0187  0.1685
  890TIP3   OH224160   6.629   1.734   4.738 -0.0573  0.6994 -0.0321
  890TIP3    H124161   6.611   1.816   4.785  1.8222  0.8569  0.4562
  890TIP3    H224162   6.629   1.759   4.646  1.3259  1.4318  0.1527
  891TIP3   OH224163   1.774   4.501  16.271  0.2519 -0.0846  0.4400
  891TIP3    H124164   1.817   4.533  16.351  2.4733 -0.2990 -0.6569
  891TIP3    H224165   1.791   4.569  16.206 -1.6471  0.1376  0.1288
  892TIP3   OH224166   4.009   0.302   6.501  0.4630 -0.2802  0.0038
  892TIP3    H124167   3.999   0.397   6.493 -1.1602 -0.3349  1.0143
  892TIP3    H224168   3.987   0.268   6.415 -0.2503  0.1949 -0.0113
  893TIP3   OH224169   6.055   0.371   3.204  1.0169  0.3667 -0.7534
  893TIP3    H124170   6.067   0.421   3.284  1.1623  1.2571 -1.3187
  893TIP3    H224171   6.141   0.333   3.186  0.4139 -1.8780  0.8195
  894TIP3   OH224172   4.527   1.815   1.599  0.2033  1.0861  0.5356
  894TIP3    H124173   4.442   1.796   1.560  0.4800  0.4926  0.2199
  894TIP3    H224174   4.580   1.847   1.527  1.3877 -2.0554 -0.0878
  895TIP3   OH224175   1.252   5.036   0.349  0.8618 -0.0549 -0.0219
  895TIP3    H124176   1.160   5.010   0.341  1.0668 -0.9436  0.4316
  895TIP3    H224177   1.275   5.014   0.439  1.0855  1.5945  0.3341
  896TIP3   OH224178   1.003   3.773   2.767  0.1183 -0.3657  0.5756
  896TIP3    H124179   1.028   3.721   2.690 -0.8194 -0.1868  0.1320
  896TIP3    H224180   0.927   3.823   2.737  1.2963  1.6105  0.8571
  897TIP3   OH224181   1.697   2.556   4.522  0.3408 -0.3349 -0.2947
  897TIP3    H124182   1.716   2.490   4.589 -1.9885 -0.5239  0.2027
  897TIP3    H224183   1.664   2.506   4.448 -0.9012  0.2291 -0.1208
  898TIP3   OH224184   5.853   0.970  12.553  0.1248 -0.3915 -0.0334
  898TIP3    H124185   5.778   0.999  12.501 -0.0629 -1.6469 -0.4776
  898TIP3    H224186   5.817   0.903  12.611  1.0393 -1.5276 -0.7574
  899TIP3   OH224187   1.494   0.954  13.285 -0.2588  0.8289 -0.6461
  899TIP3    H124188   1.517   0.930  13.196 -0.8876 -1.2665 -0.2806
  899TIP3    H224189   1.497   1.050  13.286 -2.3852  0.9962 -3.4839
  900TIP3   OH224190   3.110   4.694  14.593 -0.3372  0.1101  0.1773
  900TIP3    H124191   3.150   4.610  14.617  0.0555  0.1330 -0.3743
  900TIP3    H224192   3.016   4.678  14.599 -0.2571 -0.2040  0.6403
  901TIP3   OH224193   3.473   5.790   3.137 -1.0696  0.2957  1.6701
  901TIP3    H124194   3.413   5.847   3.185  0.1652  1.2093  2.1410
  901TIP3    H224195   3.540   5.848   3.103 -1.0593 -0.5596  0.1494
  902TIP3   OH224196   0.394   6.214   3.443 -0.4305  0.1229  0.3011
  902TIP3    H124197   0.477   6.193   3.486 -1.4400 -0.3683  2.0725
  902TIP3    H224198   0.385   6.149   3.373  0.1613 -0.5105  0.8080
  903TIP3   OH224199   4.730   6.691  17.255  0.6987  0.5791 -0.3740
  903TIP3    H124200   4.728   6.784  17.277  2.3052  0.1901  1.6627
  903TIP3    H224201   4.770   6.650  17.332  1.1980 -1.6344 -1.7826
  904TIP3   OH224202   2.694   1.561  16.340 -0.4853  0.5950 -0.5281
  904TIP3    H124203   2.694   1.642  16.391 -2.6337  0.9874 -1.1027
  904TIP3    H224204   2.608   1.523  16.355 -1.1952  0.7220 -3.8842
  905TIP3   OH224205   6.497   2.750   3.583 -0.3186 -0.2775  0.2419
  905TIP3    H124206   6.421   2.807   3.596 -2.3910 -3.1639  1.1058
  905TIP3    H224207   6.496   2.730   3.489 -0.5659 -0.2642  0.2421
  906TIP3   OH224208   0.671   3.195  16.000 -0.6881  0.3628 -0.2686
  906TIP3    H124209   0.607   3.171  16.067 -1.8563  2.1377 -0.7309
  906TIP3    H224210   0.691   3.287  16.018  2.0396 -0.2439  0.0964
  907TIP3   OH224211   0.746   5.632  15.488  0.2649 -0.1059  0.3470
  907TIP3    H124212   0.709   5.708  15.533  0.2907 -0.5029  1.0560
  907TIP3    H224213   0.816   5.667  15.434  0.3921  0.3511  0.8048
  908TIP3   OH224214   3.609   4.173  11.997 -0.1065  0.1866  0.7464
  908TIP3    H124215   3.665   4.177  11.920  1.2724  0.5719  1.7489
  908TIP3    H224216   3.555   4.252  11.992 -0.5729 -0.1844 -0.2181
  909TIP3   OH224217   2.647   1.574   4.041 -0.6021  0.0544 -0.0782
  909TIP3    H124218   2.648   1.597   3.948  0.7278 -0.4989 -0.2073
  909TIP3    H224219   2.667   1.656   4.086  3.4727 -0.5871 -0.5115
  910TIP3   OH224220   5.355   2.783   5.378  0.2656 -0.0364 -1.6532
  910TIP3    H124221   5.291   2.756   5.312 -0.2976 -0.3173 -1.0026
  910TIP3    H224222   5.436   2.739   5.352  0.0132 -0.2526 -2.0842
  911TIP3   OH224223   0.239   0.372  11.158  0.0779 -0.1097  0.1510
  911TIP3    H124224   0.148   0.367  11.127 -0.1692 -0.7070  0.9548
  911TIP3    H224225   0.282   0.297  11.118 -0.5781 -1.6773  2.3103
  912TIP3   OH224226   4.211   2.278  12.111 -0.0357 -0.6904  0.1296
  912TIP3    H124227   4.268   2.206  12.085 -0.0295 -0.4053 -0.6710
  912TIP3    H224228   4.154   2.292  12.035 -0.5179 -0.3321  0.5522
  913TIP3   OH224229   5.858   2.718   0.672  0.3336 -0.0636 -0.0816
  913TIP3    H124230   5.789   2.713   0.738 -1.7782 -1.7716 -2.3129
  913TIP3    H224231   5.910   2.639   0.686 -0.1569 -0.4622 -0.4953
  914TIP3   OH224232   0.264   0.199   5.229 -0.2237  0.2579  0.3073
  914TIP3    H124233   0.170   0.202   5.210 -0.2091  1.1284  0.3694
  914TIP3    H224234   0.278   0.111   5.266 -0.9426 -0.0140 -0.0514
  915TIP3   OH224235   4.317   5.105   0.330  0.8502 -0.0073  0.2962
  915TIP3    H124236   4.337   5.113   0.423  1.0160 -1.1972  0.3605
  915TIP3    H224237   4.288   5.015   0.319  2.1511 -0.2777 -1.0575
  916TIP3   OH224238   0.024   2.941  14.590 -0.1581 -0.0037 -0.1084
  916TIP3    H124239   0.055   2.954  14.500 -0.4835 -3.5469 -0.7704
  916TIP3    H224240  -0.069   2.964  14.587 -0.1537 -0.0631 -0.6595
  917TIP3   OH224241   2.631   3.490  14.978  0.4663 -0.5949  0.3429
  917TIP3    H124242   2.609   3.583  14.982 -0.4503 -0.8220  0.5405
  917TIP3    H224243   2.547   3.445  14.982  0.7546 -1.3801 -1.6143
  918TIP3   OH224244   2.879   4.051  15.563  0.0206  0.8513  0.1110
  918TIP3    H124245   2.796   4.015  15.592  0.2811  1.1058  1.1994
  918TIP3    H224246   2.940   4.031  15.634  0.8231  0.9095 -0.5532
  919TIP3   OH224247   2.939   3.450   4.778  0.1944  0.1190  0.1843
  919TIP3    H124248   2.941   3.463   4.873 -2.0513  0.2994  0.2226
  919TIP3    H224249   3.007   3.385   4.762  0.1252 -0.4365  2.0047
  920TIP3   OH224250   0.474   1.351   4.087 -0.1836  0.6943 -0.3397
  920TIP3    H124251   0.487   1.324   4.177 -0.7090  0.5892 -0.2907
  920TIP3    H224252   0.538   1.421   4.072  0.5999  0.0036 -0.2054
  921TIP3   OH224253   1.831   2.415  14.992  0.2826 -0.2045 -0.1016
  921TIP3    H124254   1.911   2.466  15.006  0.6105 -0.7702  0.0911
  921TIP3    H224255   1.832   2.394  14.899  1.6106 -2.2920  0.3722
  922TIP3   OH224256   1.567   6.328  11.750 -0.1423  0.7391 -0.2399
  922TIP3    H124257   1.510   6.334  11.674  0.1035  2.8120 -0.3014
  922TIP3    H224258   1.521   6.271  11.811 -0.6834 -0.3287 -1.6317
  923TIP3   OH224259   1.140   1.927  15.715 -0.5549 -0.4460  0.2889
  923TIP3    H124260   1.139   1.978  15.797 -0.5065 -1.0403  0.6603
  923TIP3    H224261   1.232   1.924  15.690 -0.4141 -1.3467  0.8941
  924TIP3   OH224262   3.570   0.067  15.178 -0.0301  0.4329 -0.3320
  924TIP3    H124263   3.507   0.015  15.228  1.0606 -0.7881 -0.1923
  924TIP3    H224264   3.561   0.036  15.088  0.3087  0.3229 -0.3277
  925TIP3   OH224265   5.558   6.116   2.711  0.4120  0.5365 -0.6435
  925TIP3    H124266   5.509   6.093   2.631 -0.6433  1.4331 -0.2658
  925TIP3    H224267   5.649   6.120   2.683  0.2406 -0.7781 -1.4521
  926TIP3   OH224268   5.083   3.971  16.840 -0.0280  0.1003  0.5564
  926TIP3    H124269   5.009   4.023  16.871  0.7482  0.3151  2.0941
  926TIP3    H224270   5.050   3.927  16.762 -1.0035  2.1180 -0.2080
  927TIP3   OH224271   5.485   6.074   2.080  0.1664  0.0976 -0.1348
  927TIP3    H124272   5.528   6.016   2.016  0.6119 -0.1396  0.3717
  927TIP3    H224273   5.540   6.152   2.081 -0.4871  0.5728 -0.8862
  928TIP3   OH224274   0.365   4.782   5.344  0.0815 -0.0668  0.2704
  928TIP3    H124275   0.424   4.798   5.417  0.8308 -1.0084 -0.1122
  928TIP3    H224276   0.324   4.866   5.326  0.8813  0.4604  0.9126
  929TIP3   OH224277   4.087   0.010   4.032  0.2707 -0.2402 -0.1776
  929TIP3    H124278   4.037   0.002   3.951 -1.8569 -0.2920  1.1045
  929TIP3    H224279   4.059   0.093   4.070  1.8270  0.1586  0.1474
  930TIP3   OH224280   5.651   4.684   2.800  0.4447  0.2115 -0.4073
  930TIP3    H124281   5.595   4.742   2.749 -0.7988 -0.0314  0.6542
  930TIP3    H224282   5.630   4.703   2.891  1.5284 -0.4355 -0.0079
  931TIP3   OH224283   4.447   2.102   3.841  0.4925 -0.4303  0.0922
  931TIP3    H124284   4.511   2.123   3.908 -1.0721  1.9959  0.8697
  931TIP3    H224285   4.379   2.052   3.886 -0.7730  1.5680  0.4513
  932TIP3   OH224286   2.715   5.102  14.284  0.6568 -0.6225  0.3672
  932TIP3    H124287   2.770   5.070  14.212  1.4099 -0.3353  0.8121
  932TIP3    H224288   2.629   5.063  14.267  0.0853  1.5496 -2.1853
  933TIP3   OH224289   1.958   4.858   1.149  0.8366 -0.1858  0.4231
  933TIP3    H124290   1.905   4.872   1.228 -0.5326 -3.3360  0.1703
  933TIP3    H224291   2.015   4.785   1.171  2.5044  0.7791 -0.5809
  934TIP3   OH224292   6.395   4.353   4.343  0.4554  0.3114 -0.0943
  934TIP3    H124293   6.332   4.282   4.358  2.5345 -1.4320  0.6399
  934TIP3    H224294   6.411   4.351   4.249  1.1533 -0.8243  0.0257
  935TIP3   OH224295   3.598   4.802  10.138 -0.0240  0.2205 -0.4571
  935TIP3    H124296   3.675   4.829  10.188 -2.7076 -0.8184  4.5515
  935TIP3    H224297   3.535   4.874  10.150 -1.9088 -1.5428  0.5980
  936TIP3   OH224298   2.000   3.376  15.778 -0.4212  0.4493  0.5538
  936TIP3    H124299   1.945   3.358  15.702 -0.7906 -0.9503  1.1309
  936TIP3    H224300   1.973   3.311  15.843  0.5065  1.0527  1.5688
  937TIP3   OH224301   5.794   4.592   0.428 -0.2863  0.1373  0.2781
  937TIP3    H124302   5.797   4.676   0.382  1.3926  0.3556  0.7292
  937TIP3    H224303   5.874   4.547   0.401 -1.1219 -1.2774  0.1174
  938TIP3   OH224304   4.257   1.194   4.969 -1.1526 -0.3479  0.2358
  938TIP3    H124305   4.253   1.104   4.934 -1.4498 -0.1188 -0.3315
  938TIP3    H224306   4.230   1.185   5.061  1.3620 -1.2071  0.9188
  939TIP3   OH224307   0.351   0.242   2.506 -0.4312 -0.5004  0.1824
  939TIP3    H124308   0.325   0.323   2.463 -1.9094 -0.3727  1.2799
  939TIP3    H224309   0.297   0.174   2.465 -0.2898 -0.6999  0.3213
  940TIP3   OH224310   0.125   1.008  11.325 -0.2269  1.0272  0.2096
  940TIP3    H124311   0.037   1.015  11.361  0.3163  0.9683  1.5561
  940TIP3    H224312   0.137   1.089  11.276 -0.6842  1.4568  0.7936
  941TIP3   OH224313   3.994   0.973  13.602  0.2648 -1.1391 -0.2844
  941TIP3    H124314   3.914   1.025  13.606 -0.1647 -1.6740 -1.4784
  941TIP3    H224315   4.045   1.000  13.678 -0.3844  0.3079 -0.3590
  942TIP3   OH224316   4.761   1.345  13.007  0.5160 -0.0392  0.0939
  942TIP3    H124317   4.827   1.400  12.963 -1.7937  0.9953 -2.2417
  942TIP3    H224318   4.751   1.384  13.094  1.0894  1.3937 -0.4721
  943TIP3   OH224319   1.456   2.689  13.432  0.5175  0.4210  0.3882
  943TIP3    H124320   1.477   2.696  13.339  0.3862  0.9399  0.3985
  943TIP3    H224321   1.497   2.766  13.472 -0.8471  1.0803  0.5132
  944TIP3   OH224322   3.036   4.959   1.890 -0.3136  0.0821  0.4266
  944TIP3    H124323   2.973   4.905   1.843  0.6880 -0.4503 -0.3142
  944TIP3    H224324   2.985   4.999   1.961 -1.7572  0.5863 -0.8555
  945TIP3   OH224325   4.671   6.429  11.788 -0.2986  0.3074  0.1428
  945TIP3    H124326   4.740   6.440  11.853  1.0005  0.9105 -1.3099
  945TIP3    H224327   4.716   6.398  11.710 -1.8425 -0.3998 -0.4839
  946TIP3   OH224328   4.861   3.678  13.263 -0.1577  0.3839  0.1517
  946TIP3    H124329   4.924   3.609  13.283 -0.1458  0.9044  2.0032
  946TIP3    H224330   4.831   3.658  13.175  1.4161 -0.7732 -0.1381
  947TIP3   OH224331   0.880   1.869   4.163  0.7475  0.1579  0.0123
  947TIP3    H124332   0.941   1.802   4.134  1.7979  1.1375 -0.0662
  947TIP3    H224333   0.837   1.831   4.240  1.0005 -0.7849 -0.3125
  948TIP3   OH224334   3.670   0.596   1.410 -0.4426  0.8069 -0.9739
  948TIP3    H124335   3.616   0.670   1.381 -0.0928  0.9741 -1.1997
  948TIP3    H224336   3.624   0.518   1.379 -1.0313  0.9116 -0.3770
  949TIP3   OH224337   2.199   2.923   3.345  0.2067  0.3176 -0.2698
  949TIP3    H124338   2.249   2.901   3.424 -0.5999  0.3096  0.2422
  949TIP3    H224339   2.265   2.938   3.278  0.8630 -0.9664  0.0802
  950TIP3   OH224340   0.540   2.995  11.329 -0.2661 -0.1630 -0.2903
  950TIP3    H124341   0.636   2.994  11.318 -0.3836  0.2814 -1.4305
  950TIP3    H224342   0.507   3.014  11.242 -1.4924 -2.6839 -0.4069
  951TIP3   OH224343   3.980   0.813  16.039 -0.1578 -0.1805 -0.0837
  951TIP3    H124344   3.889   0.842  16.047 -0.2611 -0.6105  0.3009
  951TIP3    H224345   3.976   0.717  16.046  0.3038 -0.2145 -0.2432
  952TIP3   OH224346   3.964   4.534   2.605  0.4534  0.2735 -0.8920
  952TIP3    H124347   3.989   4.464   2.545  3.4413 -0.5986  1.2566
  952TIP3    H224348   3.920   4.490   2.677  1.5020  0.6707  0.0103
  953TIP3   OH224349   0.031   0.542   1.649 -0.7112 -0.2451  1.1731
  953TIP3    H124350   0.124   0.525   1.635 -0.7986  1.0442 -1.3034
  953TIP3    H224351  -0.001   0.464   1.694  1.3006 -1.2804  0.8973
  954TIP3   OH224352   1.487   1.272   1.817  0.6746 -0.6911  0.4055
  954TIP3    H124353   1.521   1.335   1.753  0.7496 -1.4505 -0.3133
  954TIP3    H224354   1.392   1.274   1.805  0.5631  0.2661  1.3212
  955TIP3   OH224355   6.141   1.572  14.507 -0.4047  0.0467 -0.1360
  955TIP3    H124356   6.177   1.653  14.469 -0.3076  0.1332  0.1421
  955TIP3    H224357   6.162   1.578  14.600 -0.1484 -0.4345 -0.1636
  956TIP3   OH224358   6.585   2.873   4.108  0.0614  0.4491 -0.3418
  956TIP3    H124359   6.526   2.806   4.142 -2.2798  2.7201  0.2357
  956TIP3    H224360   6.605   2.845   4.019 -0.9226 -0.9957 -0.1244
  957TIP3   OH224361   3.304   1.889   1.123  0.5477  0.0149  0.6413
  957TIP3    H124362   3.216   1.856   1.107  0.0582  1.2147  0.7643
  957TIP3    H224363   3.354   1.865   1.045  0.0908 -0.6303  0.5515
  958TIP3   OH224364   5.745   1.953  10.913  0.2670 -0.2083 -0.2147
  958TIP3    H124365   5.722   1.867  10.877 -2.1464  0.6377 -0.7241
  958TIP3    H224366   5.840   1.948  10.927 -0.0427 -3.4407  1.0921
  959TIP3   OH224367   0.148   3.319  11.639 -0.0668  0.5670  0.5563
  959TIP3    H124368   0.169   3.403  11.598  3.7188 -0.7889 -0.5134
  959TIP3    H224369   0.128   3.262  11.566 -1.0088  0.1265  1.1601
  960TIP3   OH224370   5.605   1.587  14.995  0.1035 -0.5206 -0.5994
  960TIP3    H124371   5.567   1.535  14.924  0.3949  1.3866 -2.1876
  960TIP3    H224372   5.554   1.667  14.996 -1.2545 -1.3445  2.7725
  961TIP3   OH224373   5.279   6.221  11.733 -0.1820  0.2783 -0.4135
  961TIP3    H124374   5.202   6.273  11.757 -0.8959  0.0157 -2.0337
  961TIP3    H224375   5.260   6.191  11.644  0.6557 -1.9559  0.1389
  962TIP3   OH224376   4.556   5.072  17.257  0.3901  0.2765 -0.4081
  962TIP3    H124377   4.510   5.156  17.264  0.3623  0.2027  0.2444
  962TIP3    H224378   4.577   5.065  17.164 -1.5897 -0.0498 -0.8610
  963TIP3   OH224379   3.838   2.837  12.333 -0.1984 -0.0423 -0.1519
  963TIP3    H124380   3.918   2.807  12.377 -0.0901 -0.8788 -0.9104
  963TIP3    H224381   3.821   2.924  12.371  0.0067 -0.6565  1.3766
  964TIP3   OH224382   4.672   2.496   6.286 -0.4802 -0.5237  0.0557
  964TIP3    H124383   4.703   2.474   6.374  1.6256  2.3900  0.1070
  964TIP3    H224384   4.581   2.524   6.299  0.8430  3.2322  1.8989
  965TIP3   OH224385   2.117   0.357   2.409 -0.6517 -0.6926 -0.7630
  965TIP3    H124386   2.073   0.281   2.448 -0.3312 -0.5089 -0.0251
  965TIP3    H224387   2.090   0.431   2.465 -0.5437 -0.3529 -1.1619
  966TIP3   OH224388   0.129   1.322   0.019  0.1926  0.0536  0.3709
  966TIP3    H124389   0.106   1.402  -0.028  0.5214 -0.5220 -0.8117
  966TIP3    H224390   0.158   1.262  -0.050  0.2017 -0.9896  1.2663
  967TIP3   OH224391   4.157   4.021   6.667 -0.2405  0.3453 -0.0207
  967TIP3    H124392   4.140   4.097   6.611 -0.1395  0.7455  0.4891
  967TIP3    H224393   4.078   4.012   6.720 -0.2315  0.1268 -0.0440
  968TIP3   OH224394   1.484   3.801  13.263 -0.5818 -0.5330 -0.4320
  968TIP3    H124395   1.548   3.771  13.328  1.3554  0.4958 -1.8192
  968TIP3    H224396   1.466   3.723  13.210 -1.3412 -1.1008  0.6430
  969TIP3   OH224397   4.857   5.616  16.365 -0.4616 -0.1993  0.6071
  969TIP3    H124398   4.810   5.676  16.423 -1.2447 -1.6037  1.4455
  969TIP3    H224399   4.854   5.659  16.279  0.6287  1.8411  1.5645
  970TIP3   OH224400   2.717   0.857  17.141 -0.3177 -0.4207  0.1807
  970TIP3    H124401   2.657   0.783  17.129 -1.0350  0.2793 -0.5779
  970TIP3    H224402   2.718   0.901  17.056 -0.9821  1.2733  1.0362
  971TIP3   OH224403   6.407   4.650  10.682  0.3587 -0.4457 -0.2783
  971TIP3    H124404   6.410   4.555  10.689 -0.0988 -0.3704  1.0430
  971TIP3    H224405   6.314   4.672  10.682  0.4680  0.0699  0.6282
  972TIP3   OH224406   3.216   0.354  11.122  0.2310 -0.0092  0.3506
  972TIP3    H124407   3.200   0.271  11.166  0.4375  0.0210  0.4821
  972TIP3    H224408   3.175   0.420  11.179 -0.7609 -0.1078 -0.2247
  973TIP3   OH224409   1.601   2.406   4.302 -0.3764  0.1717  0.1418
  973TIP3    H124410   1.580   2.329   4.355 -0.5647 -0.7654 -1.2777
  973TIP3    H224411   1.658   2.372   4.233 -0.4169  1.3233 -0.4532
  974TIP3   OH224412   1.285   0.904   3.483 -0.1862  0.8280  0.3450
  974TIP3    H124413   1.380   0.917   3.492 -0.2997  2.0276 -0.1092
  974TIP3    H224414   1.277   0.819   3.439  0.6864  0.9193 -0.0028
  975TIP3   OH224415   2.899   6.304   3.117  0.3815 -0.1350  0.0530
  975TIP3    H124416   2.823   6.313   3.059  1.9527  4.4876 -1.4936
  975TIP3    H224417   2.958   6.245   3.070  0.0982  0.6676 -1.3275
  976TIP3   OH224418   2.944   2.088   6.729  0.1265  0.2427 -0.1524
  976TIP3    H124419   2.987   2.125   6.652  0.5900 -2.3979 -1.2172
  976TIP3    H224420   2.886   2.020   6.693 -0.6871 -0.0759  1.7239
  977TIP3   OH224421   1.152   6.537   0.408 -0.0145  0.6455  0.2167
  977TIP3    H124422   1.209   6.469   0.442  0.4678  1.1346  0.3947
  977TIP3    H224423   1.064   6.500   0.414  0.3281 -0.3209 -0.5753
  978TIP3   OH224424   6.310   2.014   6.245  0.0819 -0.1723  0.0984
  978TIP3    H124425   6.383   2.010   6.307 -0.0384 -0.9183  0.1899
  978TIP3    H224426   6.352   2.026   6.160  0.2832 -0.0965  0.2064
  979TIP3   OH224427   6.819   6.508  11.156  0.0765 -0.5230  0.3181
  979TIP3    H124428   6.736   6.548  11.184  0.3031 -1.2110  2.0780
  979TIP3    H224429   6.793   6.441  11.092 -0.5685  0.3749 -0.3672
  980TIP3   OH224430   2.596   2.084   2.450 -0.5272 -1.1875 -0.1196
  980TIP3    H124431   2.633   2.148   2.511 -0.2029 -2.9767  1.6457
  980TIP3    H224432   2.504   2.109   2.441 -0.5020 -0.7123  0.8757
  981TIP3   OH224433   3.987   0.321  13.419 -0.1317  0.5007  0.6338
  981TIP3    H124434   3.997   0.399  13.364  0.9085 -0.6363 -0.8231
  981TIP3    H224435   4.022   0.347  13.504  0.8718  1.4058 -0.0464
  982TIP3   OH224436   0.401   4.067   6.140  0.1303 -0.0706 -0.0390
  982TIP3    H124437   0.384   4.014   6.062  0.8935 -0.8815  0.3253
  982TIP3    H224438   0.331   4.132   6.141 -0.3971 -0.6110 -0.9110
  983TIP3   OH224439   2.166   5.492   6.111  0.2648  0.1673  0.6747
  983TIP3    H124440   2.072   5.503   6.101  0.2939 -1.0229 -1.1886
  983TIP3    H224441   2.205   5.570   6.070  0.1189 -0.0860  0.0471
  984TIP3   OH224442   0.297   3.967   5.899  0.2073  0.4940  0.0755
  984TIP3    H124443   0.226   4.000   5.843  0.3956 -1.0897 -1.1438
  984TIP3    H224444   0.255   3.897   5.950 -0.0876  2.2578  2.3208
  985TIP3   OH224445   1.815   4.189   3.977  0.2433 -0.7407 -0.3048
  985TIP3    H124446   1.905   4.221   3.979 -0.0501  0.1129 -0.7608
  985TIP3    H224447   1.819   4.102   4.018  1.0637 -0.1729  0.8435
  986TIP3   OH224448   4.986   5.863   0.301 -0.1371  0.2314 -0.4091
  986TIP3    H124449   4.999   5.891   0.392 -1.6452  0.1297 -0.1511
  986TIP3    H224450   4.948   5.775   0.308  0.7251 -0.2047 -1.1574
  987TIP3   OH224451   1.922   1.393   0.894 -0.4441 -0.2240  0.4123
  987TIP3    H124452   1.840   1.442   0.900 -0.2098  0.0160  1.6885
  987TIP3    H224453   1.990   1.457   0.916 -0.0595 -0.8997  1.2016
  988TIP3   OH224454   3.164   5.002  16.592 -0.1690  0.1596 -0.0602
  988TIP3    H124455   3.127   5.084  16.625 -1.2483 -1.0017  1.6986
  988TIP3    H224456   3.252   4.999  16.629 -1.2255 -0.9332  2.4771
  989TIP3   OH224457   0.100   1.924   5.194  0.1605 -0.3154  0.5366
  989TIP3    H124458   0.091   1.909   5.100  1.5184  1.7523  0.0499
  989TIP3    H224459   0.163   1.858   5.223  1.4328  0.4314 -0.4467
  990TIP3   OH224460   2.202   4.231   6.257 -0.0429 -0.4531 -0.1768
  990TIP3    H124461   2.150   4.232   6.337 -1.2879  2.0400 -0.9535
  990TIP3    H224462   2.289   4.258   6.284 -0.3347 -0.0981  0.4264
  991TIP3   OH224463   1.867   4.495   2.114  0.3040 -0.2901 -0.3779
  991TIP3    H124464   1.834   4.453   2.035 -0.2931  2.1543 -1.4834
  991TIP3    H224465   1.933   4.557   2.083 -4.2508  5.2588  0.2109
  992TIP3   OH224466   4.279   3.907  15.223 -0.3791  0.4545  0.3497
  992TIP3    H124467   4.206   3.910  15.284  0.6915  0.4609  1.6394
  992TIP3    H224468   4.306   3.998  15.213 -0.3302  0.4161  0.1147
  993TIP3   OH224469   5.858   0.937  15.721  0.3526  0.1260  0.0423
  993TIP3    H124470   5.769   0.965  15.739  0.0605 -1.3520  1.0206
  993TIP3    H224471   5.850   0.873  15.651  0.9696  2.0564 -1.8620
  994TIP3   OH224472   1.228   0.660  11.751  0.1802 -0.1179  0.1913
  994TIP3    H124473   1.234   0.651  11.656  0.5685  2.7861 -0.1249
  994TIP3    H224474   1.307   0.710  11.775 -0.5948  0.3510  1.8608
  995TIP3   OH224475   6.587   1.192  16.772 -0.1105 -0.3390 -0.2665
  995TIP3    H124476   6.604   1.284  16.793 -0.1038 -0.1559 -1.0455
  995TIP3    H224477   6.584   1.148  16.857 -0.2218  0.4007  0.1171
  996TIP3   OH224478   2.652   2.230  16.621 -0.2634 -0.1944 -0.7887
  996TIP3    H124479   2.565   2.196  16.596 -0.4223  0.5489 -1.2765
  996TIP3    H224480   2.633   2.312  16.666  0.1776 -0.1368 -0.7086
  997TIP3   OH224481   6.534   2.681   1.157  0.2164 -0.1635 -0.5934
  997TIP3    H124482   6.439   2.671   1.164  0.1148 -0.2394 -1.9523
  997TIP3    H224483   6.561   2.610   1.098  1.4743 -1.8542  1.9281
  998TIP3   OH224484   6.004   2.143  16.722 -0.6481  0.3655  0.1738
  998TIP3    H124485   5.939   2.198  16.679 -0.8393 -1.0380 -1.3917
  998TIP3    H224486   6.006   2.063  16.670  1.7291  0.0475  0.6915
  999TIP3   OH224487   1.990   1.153   4.574 -0.4949 -0.4667 -0.4352
  999TIP3    H124488   1.995   1.088   4.505 -1.7087 -0.6812 -0.3323
  999TIP3    H224489   1.984   1.237   4.528 -0.1030 -0.5189 -0.5802
 1000TIP3   OH224490   0.461   1.841   6.696  0.4804 -0.7802 -0.2398
 1000TIP3    H124491   0.374   1.801   6.693 -0.2503  0.7179  0.4889
 1000TIP3    H224492   0.455   1.905   6.767  2.9864 -2.5230  1.6522
 1001TIP3   OH224493   4.294   2.582   1.456  0.0054 -0.5330 -0.1462
 1001TIP3    H124494   4.249   2.497   1.455  0.4404 -0.7607 -0.6083
 1001TIP3    H224495   4.369   2.569   1.514 -0.2910 -0.2708  0.3003
 1002TIP3   OH224496   5.694   1.813  12.214  0.7316  0.4226  0.5241
 1002TIP3    H124497   5.703   1.719  12.224  0.4840  0.1785 -1.3533
 1002TIP3    H224498   5.736   1.850  12.292  1.3143 -1.2159  0.9953
 1003TIP3   OH224499   0.657   3.623   0.611  0.1250 -0.5088 -0.2141
 1003TIP3    H124500   0.615   3.648   0.529  0.1330  1.5475  0.3721
 1003TIP3    H224501   0.717   3.695   0.631  1.2041 -1.6610  0.8573
 1004TIP3   OH224502   4.675   1.714  16.044  0.2132 -0.2557  0.2294
 1004TIP3    H124503   4.730   1.728  15.967  0.6943  0.2554  0.6651
 1004TIP3    H224504   4.621   1.638  16.020 -2.7661  2.5348 -2.2974
 1005TIP3   OH224505   0.866   5.769  12.443  0.1483  0.1632  0.0279
 1005TIP3    H124506   0.827   5.696  12.396 -0.1953  0.8556 -0.7964
 1005TIP3    H224507   0.929   5.807  12.380 -0.4623  1.2247  0.0382
 1006TIP3   OH224508   5.319   6.674  17.081 -0.6902 -0.6317 -0.1969
 1006TIP3    H124509   5.388   6.705  17.022  1.3760 -3.6097  0.5560
 1006TIP3    H224510   5.258   6.628  17.024 -0.3786 -0.7311 -0.4532
 1007TIP3   OH224511   0.199   0.569  11.894 -0.5262  0.1294  0.2855
 1007TIP3    H124512   0.170   0.482  11.922  0.6888 -0.4784 -0.3431
 1007TIP3    H224513   0.123   0.625  11.910 -1.4258 -1.1029  0.3925
 1008TIP3   OH224514   4.653   2.076   5.414  0.2416  0.0331 -0.5545
 1008TIP3    H124515   4.659   2.054   5.506 -0.1378  1.1562 -0.2521
 1008TIP3    H224516   4.744   2.081   5.385  0.3532 -0.7756 -0.3642
 1009TIP3   OH224517   2.105   5.540  12.926  0.4544 -0.2276 -0.6736
 1009TIP3    H124518   2.196   5.518  12.908  0.1608 -1.0469 -1.2070
 1009TIP3    H224519   2.070   5.463  12.971  0.6294  0.9980  1.6051
 1010TIP3   OH224520   1.089   0.857  12.753  0.2109 -0.1619 -0.1586
 1010TIP3    H124521   1.163   0.907  12.719  0.2725 -0.5892 -0.6489
 1010TIP3    H224522   1.110   0.766  12.733 -0.9104 -0.2025 -1.1845
 1011TIP3   OH224523   6.500   2.208  11.840 -0.3855  0.5564  0.0697
 1011TIP3    H124524   6.533   2.279  11.896 -3.7788  1.5918  0.9307
 1011TIP3    H224525   6.404   2.218  11.844 -1.0031 -4.5507  0.8175
 1012TIP3   OH224526   0.664   5.149  15.302  0.1053 -0.7164 -0.9815
 1012TIP3    H124527   0.656   5.063  15.344 -0.5535 -0.5665 -0.7906
 1012TIP3    H224528   0.576   5.186  15.308  0.3976 -0.0148 -1.0404
 1013TIP3   OH224529   1.391   6.135  15.303 -0.3529  0.2945  0.2759
 1013TIP3    H124530   1.431   6.219  15.323 -1.5399  1.7233 -2.8693
 1013TIP3    H224531   1.297   6.152  15.306 -0.6021 -0.5315 -1.6084
 1014TIP3   OH224532   4.295   0.891  12.794 -0.3566  0.2591 -0.9384
 1014TIP3    H124533   4.242   0.816  12.819  0.0360  0.0948 -0.6017
 1014TIP3    H224534   4.331   0.868  12.708  0.7248 -0.4452 -0.3109
 1015TIP3   OH224535   5.124   5.585   3.325 -0.0557  0.5199  0.8488
 1015TIP3    H124536   5.187   5.585   3.252  0.4827  0.0754  1.3118
 1015TIP3    H224537   5.049   5.634   3.291  0.1741  0.2853 -0.0254
 1016TIP3   OH224538   4.183   6.277   6.511  0.4311  0.1749  0.5403
 1016TIP3    H124539   4.105   6.257   6.460 -0.1109 -1.7208  2.0681
 1016TIP3    H224540   4.177   6.371   6.528 -1.2224  0.1511  0.1734
 1017TIP3   OH224541   6.273   0.963   4.676 -0.2989  0.2751 -0.3329
 1017TIP3    H124542   6.202   0.990   4.617  0.4095  0.9109 -0.9103
 1017TIP3    H224543   6.235   0.968   4.763 -1.1257  0.0925 -0.6739
 1018TIP3   OH224544   1.740   5.148   0.214 -0.1123  0.5123 -0.4111
 1018TIP3    H124545   1.796   5.131   0.289  0.5891  1.0758 -0.8041
 1018TIP3    H224546   1.697   5.231   0.234 -0.6381  0.1898 -0.2065
 1019TIP3   OH224547   6.693   5.846  11.366  0.4984 -0.3219 -0.9836
 1019TIP3    H124548   6.717   5.917  11.425  1.7711 -1.5654  0.0433
 1019TIP3    H224549   6.774   5.823  11.321  0.5236 -2.2978  0.0178
 1020TIP3   OH224550   3.726   4.384  13.852 -0.2480  0.0317  0.1630
 1020TIP3    H124551   3.631   4.387  13.838 -0.6154  1.7363  2.7925
 1020TIP3    H224552   3.743   4.293  13.877 -1.0868 -0.4148 -0.8220
 1021TIP3   OH224553   0.220   2.571  13.073 -0.1251 -0.1160 -0.2849
 1021TIP3    H124554   0.141   2.517  13.074 -0.5372  0.4921 -0.2816
 1021TIP3    H224555   0.195   2.650  13.025  0.2314  0.4604  0.4619
 1022TIP3   OH224556   6.051   0.403  12.936 -0.0347  0.2084 -0.2346
 1022TIP3    H124557   6.040   0.310  12.916  0.4353 -0.4142  2.3100
 1022TIP3    H224558   6.142   0.410  12.965  0.0196  1.5299 -0.7060
 1023TIP3   OH224559   6.482   0.986   5.467  0.5707 -0.0245 -0.3857
 1023TIP3    H124560   6.531   1.051   5.518 -0.5523  1.0470 -0.6516
 1023TIP3    H224561   6.547   0.918   5.447  1.7819  1.0266 -0.1361
 1024TIP3   OH224562   2.844   0.564   1.853  0.2471 -0.5351  0.6744
 1024TIP3    H124563   2.857   0.504   1.780  0.5831 -0.2363  0.4880
 1024TIP3    H224564   2.756   0.599   1.839  0.7574  0.3988 -0.2370
 1025TIP3   OH224565   5.195   0.307   6.465 -0.1916 -0.3840  0.3448
 1025TIP3    H124566   5.160   0.396   6.470  1.3083  0.4987 -2.8724
 1025TIP3    H224567   5.124   0.255   6.428 -0.5295 -0.1408  0.6559
 1026TIP3   OH224568   2.098   1.134  12.172  0.1105  0.1180 -0.2616
 1026TIP3    H124569   2.133   1.114  12.258 -0.3507 -1.8512 -0.5172
 1026TIP3    H224570   2.165   1.104  12.110  0.0514  0.7029 -0.6175
 1027TIP3   OH224571   5.958   0.679  13.774 -0.1131 -0.0675  0.0642
 1027TIP3    H124572   6.029   0.661  13.836  0.1527  0.3259 -0.1173
 1027TIP3    H224573   5.932   0.769  13.794 -1.6690 -0.7439  1.2111
 1028TIP3   OH224574   4.420   3.245   5.041 -0.1588  0.1154  0.2279
 1028TIP3    H124575   4.350   3.280   4.986 -0.2351 -1.8740 -0.9755
 1028TIP3    H224576   4.375   3.195   5.109  0.0854 -1.7211 -0.9340
 1029TIP3   OH224577   3.732   4.144   0.885  0.5772  0.1954  0.4777
 1029TIP3    H124578   3.672   4.212   0.854  0.2498 -0.1082  0.4371
 1029TIP3    H224579   3.742   4.085   0.809  2.5242  1.3341 -0.1938
 1030TIP3   OH224580   0.327   3.304   5.096  0.2939 -0.3524  0.3200
 1030TIP3    H124581   0.238   3.336   5.082  0.8922  2.3396  2.2632
 1030TIP3    H224582   0.381   3.355   5.036  0.6198 -1.5817 -0.4527
 1031TIP3   OH224583   1.259   2.558  15.478  0.0260  0.4397  0.1332
 1031TIP3    H124584   1.315   2.635  15.478  0.0137  0.4498 -0.4069
 1031TIP3    H224585   1.262   2.526  15.388  1.2139 -1.0430  0.6780
 1032TIP3   OH224586   1.024   3.794   3.765 -0.0099 -0.3024 -0.0157
 1032TIP3    H124587   0.976   3.744   3.831 -1.7455  0.0534 -0.9768
 1032TIP3    H224588   0.995   3.756   3.682 -1.1062  2.0667 -0.7449
 1033TIP3   OH224589   0.097   0.316   6.299  0.0708  0.5328  0.1238
 1033TIP3    H124590   0.153   0.355   6.365  1.3708  2.1456 -1.8857
 1033TIP3    H224591   0.019   0.372   6.297  0.7077  1.4005 -0.7779
 1034TIP3   OH224592   6.418   2.055   5.729 -0.6314 -0.3058  0.1920
 1034TIP3    H124593   6.505   2.021   5.752  0.7239  2.4586 -0.6603
 1034TIP3    H224594   6.392   2.005   5.652  0.9809  0.0012 -0.5683
 1035TIP3   OH224595   6.170   0.500  12.470 -0.2731  0.2429 -0.3474
 1035TIP3    H124596   6.125   0.573  12.427 -0.2314  0.0898 -0.6469
 1035TIP3    H224597   6.182   0.435  12.401 -1.2091 -0.4658  0.1551
 1036TIP3   OH224598   4.332   2.652   2.083 -0.0970 -0.4908 -0.3718
 1036TIP3    H124599   4.385   2.631   2.006 -1.4262 -1.2342 -1.1111
 1036TIP3    H224600   4.256   2.593   2.076 -0.4201 -0.2764  1.2903
 1037TIP3   OH224601   3.646   2.132   1.426 -0.3962 -0.3882 -0.2387
 1037TIP3    H124602   3.710   2.063   1.409 -0.6376 -0.5235 -0.6236
 1037TIP3    H224603   3.697   2.212   1.433 -0.3262 -0.2243 -2.2286
 1038TIP3   OH224604   1.161   4.421  15.909 -0.1514  0.5667 -0.1774
 1038TIP3    H124605   1.085   4.409  15.966  0.8382 -0.8824  0.8534
 1038TIP3    H224606   1.124   4.431  15.821 -1.5229 -0.4289  0.2733
 1039TIP3   OH224607   4.731   1.823   0.885  0.2810  0.2044 -0.4370
 1039TIP3    H124608   4.743   1.733   0.916  0.6883  0.2703 -0.3985
 1039TIP3    H224609   4.820   1.853   0.866  0.0400  0.2104 -1.5448
 1040TIP3   OH224610   2.600   6.399  15.015 -0.0310  0.1223 -0.3863
 1040TIP3    H124611   2.577   6.306  15.025  3.1732 -0.5828  0.7189
 1040TIP3    H224612   2.640   6.404  14.928 -1.6505  0.8087 -1.1128
 1041TIP3   OH224613   1.861   5.389   2.918 -0.0221 -0.3718  0.1539
 1041TIP3    H124614   1.817   5.372   3.001  0.4318 -0.4219  0.3892
 1041TIP3    H224615   1.870   5.485   2.915  1.0310 -0.4409  0.7322
 1042TIP3   OH224616   6.519   6.377  13.910  0.0600  0.0088 -0.5041
 1042TIP3    H124617   6.478   6.294  13.883  0.8247 -0.4419 -0.2791
 1042TIP3    H224618   6.608   6.353  13.935 -0.6036  0.3761  2.4824
 1043TIP3   OH224619   6.070   2.236   3.783 -0.4915 -0.4004  0.3736
 1043TIP3    H124620   6.063   2.295   3.858 -0.2623 -1.1861  1.0152
 1043TIP3    H224621   6.081   2.294   3.708  1.1265  0.3309  1.1651
 1044TIP3   OH224622   4.397   3.692  11.218  0.5022  0.3040 -0.1463
 1044TIP3    H124623   4.344   3.723  11.144  1.0152 -0.2589 -0.7533
 1044TIP3    H224624   4.481   3.669  11.179  0.5234 -0.7076  0.4966
 1045TIP3   OH224625   2.700   2.398   5.739 -0.0132  0.3137 -0.1607
 1045TIP3    H124626   2.678   2.389   5.831 -0.3957 -0.1796 -0.2950
 1045TIP3    H224627   2.632   2.349   5.693 -0.6586  1.7898 -0.7950
 1046TIP3   OH224628   1.697   2.843  12.019  0.1960  0.3857 -0.1736
 1046TIP3    H124629   1.699   2.813  11.928 -2.2423  0.7745 -0.3989
 1046TIP3    H224630   1.780   2.889  12.031  0.0402  1.3687 -2.5858
 1047TIP3   OH224631   2.784   0.655  16.359 -0.1919  0.1581  0.0847
 1047TIP3    H124632   2.808   0.623  16.273  1.6099 -0.1099  0.6609
 1047TIP3    H224633   2.849   0.723  16.379 -0.3209 -0.0829  1.4087
 1048TIP3   OH224634   6.817   5.035   3.885  0.4743  0.2604 -0.4707
 1048TIP3    H124635   6.788   4.945   3.895  1.4192 -0.1217 -1.1036
 1048TIP3    H224636   6.838   5.043   3.792  0.8871  0.9845 -0.3159
 1049TIP3   OH224637   6.643   4.337   0.043  0.2898  0.4522 -0.3370
 1049TIP3    H124638   6.582   4.355   0.115  1.3425  0.7659  0.4991
 1049TIP3    H224639   6.679   4.423   0.021  1.0752  0.1528 -0.2297
 1050TIP3   OH224640   1.620   3.349  13.835  0.2162 -0.0429 -0.0179
 1050TIP3    H124641   1.547   3.392  13.789 -0.0076 -0.4095 -0.0044
 1050TIP3    H224642   1.577   3.296  13.902  0.4461 -1.1323 -0.7314
 1051TIP3   OH224643   2.636   5.013  10.500  0.4027 -0.2863 -0.2594
 1051TIP3    H124644   2.617   4.992  10.408 -0.4708  1.1311 -0.4209
 1051TIP3    H224645   2.554   5.050  10.533  0.7311 -0.7407  1.0909
 1052TIP3   OH224646   2.353   0.712   5.214  0.6965  0.2745 -0.2836
 1052TIP3    H124647   2.368   0.706   5.120  0.3501  0.7567 -0.3716
 1052TIP3    H224648   2.397   0.635   5.251  0.9906  0.1864 -0.8193
 1053TIP3   OH224649   0.735   1.164  12.705 -0.2665  0.0158  0.1403
 1053TIP3    H124650   0.763   1.222  12.633  1.8674 -0.2693  0.6903
 1053TIP3    H224651   0.669   1.215  12.752  0.6379  1.5046 -0.1496
 1054TIP3   OH224652   3.922   4.021  15.752  0.1003  1.0241 -0.2146
 1054TIP3    H124653   4.007   4.056  15.776 -0.5468  1.9577  0.7788
 1054TIP3    H224654   3.927   3.928  15.771  0.7860  1.1397  0.1735
 1055TIP3   OH224655   2.027   4.914  16.047 -0.3290 -0.1517 -0.4848
 1055TIP3    H124656   2.019   4.898  15.953  2.4633 -2.3973 -0.3959
 1055TIP3    H224657   2.110   4.873  16.072 -2.2494 -1.9429  3.4328
 1056TIP3   OH224658   4.431   4.249  11.101  0.6862 -0.0447 -0.4784
 1056TIP3    H124659   4.471   4.165  11.079  0.3601 -0.4349  0.3987
 1056TIP3    H224660   4.350   4.226  11.146  1.8348  0.7024  2.0612
 1057TIP3   OH224661   3.589   4.886   2.202  0.0427  0.4668  0.9012
 1057TIP3    H124662   3.567   4.827   2.274 -1.1444 -1.5780 -1.0547
 1057TIP3    H224663   3.525   4.957   2.209 -1.4681 -0.8302  0.6174
 1058TIP3   OH224664   3.363   6.367   5.768  0.1737 -0.3307 -0.0494
 1058TIP3    H124665   3.290   6.417   5.804  0.0739 -0.6126  0.1442
 1058TIP3    H224666   3.440   6.423   5.781 -0.0274  0.0250 -0.3769
 1059TIP3   OH224667   0.154   2.790  12.906  0.3805  0.0715  0.0416
 1059TIP3    H124668   0.097   2.758  12.836 -1.0847 -0.2942  1.3742
 1059TIP3    H224669   0.099   2.850  12.957  1.2283 -0.1333  1.2260
 1060TIP3   OH224670   5.583   1.212   3.307  0.7872 -0.6607 -0.7254
 1060TIP3    H124671   5.632   1.294   3.313  1.1354 -0.9340  0.1691
 1060TIP3    H224672   5.496   1.239   3.278  0.8846  0.0311 -0.3855
 1061TIP3   OH224673   6.726   2.865  16.124 -0.0004 -0.9530 -0.4061
 1061TIP3    H124674   6.811   2.821  16.131  0.9915  1.0641  0.8547
 1061TIP3    H224675   6.705   2.890  16.214 -1.2022 -0.1213 -0.9041
 1062TIP3   OH224676   3.681   1.156  16.105 -0.6863  0.1102  0.5320
 1062TIP3    H124677   3.645   1.233  16.062 -0.3336  0.0524  0.1268
 1062TIP3    H224678   3.644   1.081  16.057  0.1408  0.0553 -0.0335
 1063TIP3   OH224679   5.154   5.297  16.824 -0.8726  0.2957  0.4280
 1063TIP3    H124680   5.081   5.247  16.786 -0.7923 -1.2121  2.1715
 1063TIP3    H224681   5.159   5.266  16.914  1.0165  1.4513  0.7378
 1064TIP3   OH224682   2.218   5.669  15.165  0.2279 -0.1447 -0.2915
 1064TIP3    H124683   2.167   5.737  15.209 -1.6349 -1.0038 -1.0411
 1064TIP3    H224684   2.197   5.679  15.072  0.6767 -1.1260 -0.5117
 1065TIP3   OH224685   5.929   0.291  14.050  0.7780  0.3267 -0.1917
 1065TIP3    H124686   5.919   0.353  14.123  0.5256  0.1527 -0.0779
 1065TIP3    H224687   5.971   0.215  14.089  2.1115  0.8602 -0.5682
 1066TIP3   OH224688   6.504   5.778  12.225 -0.1332 -0.3291 -0.1637
 1066TIP3    H124689   6.591   5.740  12.235  1.0076  1.6754 -2.0203
 1066TIP3    H224690   6.473   5.791  12.314  1.8612 -0.2623  0.5428
 1067TIP3   OH224691   5.863   6.156   1.483 -0.2734 -0.1901 -0.4028
 1067TIP3    H124692   5.800   6.173   1.413 -1.1106 -0.7019  0.2263
 1067TIP3    H224693   5.948   6.174   1.443 -0.8781  1.5901 -0.9164
 1068TIP3   OH224694   4.248   3.790  15.709  0.0125 -0.2991  0.2570
 1068TIP3    H124695   4.328   3.762  15.755 -1.0338 -0.4692  2.0058
 1068TIP3    H224696   4.227   3.875  15.749 -0.6789 -0.2587 -0.2054
 1069TIP3   OH224697   4.381   3.570   6.008 -0.4505 -0.1943 -0.0185
 1069TIP3    H124698   4.345   3.574   5.919  0.5224  0.5734 -0.3949
 1069TIP3    H224699   4.472   3.543   5.996  0.5433  2.7528  0.4638
 1070TIP3   OH224700   4.296   5.972   0.585  0.0124  0.4821  0.5524
 1070TIP3    H124701   4.301   5.983   0.680  0.7308  0.5111  0.5107
 1070TIP3    H224702   4.369   5.914   0.563  0.2560  1.0173 -0.0694
 1071TIP3   OH224703   4.258   6.133   1.248  0.0251  0.0556  0.0087
 1071TIP3    H124704   4.332   6.185   1.215  0.4688  0.1316  1.1082
 1071TIP3    H224705   4.297   6.048   1.269  0.3780  0.9671  3.2143
 1072TIP3   OH224706   3.791   3.247   1.257  0.2895 -0.3506 -0.5720
 1072TIP3    H124707   3.725   3.315   1.245 -1.3192 -1.7543  0.2186
 1072TIP3    H224708   3.768   3.179   1.194  1.3227 -0.6203 -0.6732
 1073TIP3   OH224709   4.162   2.359   5.191 -0.2093 -0.2854 -0.4232
 1073TIP3    H124710   4.075   2.347   5.154 -0.9262  0.2094  1.0397
 1073TIP3    H224711   4.201   2.429   5.138 -1.8497  1.5883  0.7768
 1074TIP3   OH224712   6.637   1.902   0.231 -0.1941 -0.3742  0.2923
 1074TIP3    H124713   6.610   1.906   0.140 -0.5394 -1.3724  0.3402
 1074TIP3    H224714   6.615   1.988   0.267 -1.6498 -0.5730 -0.1240
 1075TIP3   OH224715   4.196   1.180   1.437 -0.2919  0.0737 -0.2147
 1075TIP3    H124716   4.151   1.160   1.519  1.2718  1.5434  1.0434
 1075TIP3    H224717   4.235   1.266   1.452 -1.2596  1.0474 -3.0801
 1076TIP3   OH224718   6.663   1.075   4.592 -0.2645 -0.3614  0.0507
 1076TIP3    H124719   6.656   0.996   4.539  0.3501  0.0675 -0.6853
 1076TIP3    H224720   6.579   1.082   4.636 -0.0142 -1.9263  0.8328
 1077TIP3   OH224721   1.403   1.968   5.130 -0.7694  0.4945  0.3745
 1077TIP3    H124722   1.410   1.988   5.036  1.8531  0.2709  0.4764
 1077TIP3    H224723   1.377   2.050   5.171 -4.3342  0.0292 -0.7668
 1078TIP3   OH224724   3.504   6.225   5.150 -0.3825  0.1851  0.4057
 1078TIP3    H124725   3.444   6.219   5.224 -0.8156  0.9490  0.1144
 1078TIP3    H224726   3.539   6.136   5.141 -3.1160 -0.8322 -0.8025
 1079TIP3   OH224727   4.290   4.009  17.143  0.8288 -0.0201 -0.2670
 1079TIP3    H124728   4.255   4.029  17.230 -0.5493  3.0430 -1.4322
 1079TIP3    H224729   4.246   3.929  17.117 -0.2163  0.0959  1.0848
 1080TIP3   OH224730   1.071   4.749   2.921  0.2035 -0.2674  0.0757
 1080TIP3    H124731   1.044   4.673   2.971 -1.9871 -0.2606 -1.0450
 1080TIP3    H224732   1.012   4.751   2.846  1.0351  1.8174 -0.5662
 1081TIP3   OH224733   4.202   5.475  12.976  0.5178 -0.6631  0.2203
 1081TIP3    H124734   4.239   5.447  12.893  2.5384 -0.4514  1.0090
 1081TIP3    H224735   4.262   5.543  13.008 -1.0757  0.3703  1.1104
 1082TIP3   OH224736   5.578   5.198   0.177  0.1669 -0.3081  0.1253
 1082TIP3    H124737   5.581   5.283   0.134  0.9303 -0.4261 -0.0533
 1082TIP3    H224738   5.502   5.205   0.236  1.6443  1.3771  1.9153
 1083TIP3   OH224739   2.500   2.686  11.417  0.8477  0.3248  0.0764
 1083TIP3    H124740   2.418   2.706  11.371  1.8118  0.8875 -1.4301
 1083TIP3    H224741   2.498   2.742  11.494 -0.7807 -0.6016  0.7291
 1084TIP3   OH224742   4.577   4.729  16.886 -0.0554  0.2439 -0.4730
 1084TIP3    H124743   4.625   4.745  16.967  0.8401  2.7848 -1.4256
 1084TIP3    H224744   4.637   4.679  16.832  0.3074  0.6603 -0.4614
 1085TIP3   OH224745   2.943   5.926  12.550  0.0819 -0.2079  0.1448
 1085TIP3    H124746   2.913   6.003  12.502  0.2575 -0.8188 -0.9606
 1085TIP3    H224747   2.981   5.962  12.630 -0.1773  0.8316 -0.1830
 1086TIP3   OH224748   4.761   5.229   0.283  0.3577  0.6415 -0.0091
 1086TIP3    H124749   4.707   5.156   0.254 -1.7012  0.7929  3.1704
 1086TIP3    H224750   4.728   5.305   0.235 -1.1263  0.4279  0.6677
 1087TIP3   OH224751   4.434   0.180  15.157  0.2024  0.7076 -0.2043
 1087TIP3    H124752   4.438   0.091  15.124 -0.0393  0.1382  1.2802
 1087TIP3    H224753   4.350   0.214  15.125 -0.5640 -0.2277  0.7644
 1088TIP3   OH224754   3.784   4.561   2.999 -0.4462 -0.2765  0.0472
 1088TIP3    H124755   3.879   4.570   3.003 -0.4845  0.4483 -0.5371
 1088TIP3    H224756   3.752   4.612   3.073 -0.2636 -2.9075  2.0144
 1089TIP3   OH224757   1.049   1.510  17.116 -0.4183 -0.2005 -0.0268
 1089TIP3    H124758   0.982   1.448  17.088  0.6336 -0.6157 -1.6866
 1089TIP3    H224759   1.074   1.557  17.037 -0.4240  1.5935  1.0201
 1090TIP3   OH224760   2.814   2.007  16.659  0.5621 -0.4860 -0.5399
 1090TIP3    H124761   2.758   2.079  16.631  0.8252 -0.4839 -1.0777
 1090TIP3    H224762   2.897   2.049  16.682  0.3945 -0.5058  0.1044
 1091TIP3   OH224763   6.581   5.586   2.657 -0.6893 -0.0568  0.0886
 1091TIP3    H124764   6.646   5.521   2.682 -0.9140 -0.5185 -0.5001
 1091TIP3    H224765   6.591   5.656   2.720  0.2628 -0.2034  0.1071
 1092TIP3   OH224766   1.536   4.452  11.602  0.2344  0.3646  0.5417
 1092TIP3    H124767   1.589   4.470  11.680 -0.7244  2.2644  0.7901
 1092TIP3    H224768   1.561   4.520  11.540 -0.5070  0.0987 -0.0556
 1093TIP3   OH224769   2.514   0.633  13.641 -0.2980  0.0715  0.3738
 1093TIP3    H124770   2.545   0.597  13.557 -2.3333 -1.4215  0.2163
 1093TIP3    H224771   2.583   0.610  13.703  0.0643 -1.0686 -0.4199
 1094TIP3   OH224772   4.881   2.225  15.290  0.3898 -0.4927  0.2679
 1094TIP3    H124773   4.947   2.165  15.325 -0.1200 -1.1730  0.0830
 1094TIP3    H224774   4.899   2.308  15.333  1.6668 -0.5453 -0.1395
 1095TIP3   OH224775   0.441   4.336  16.449  0.0027 -0.4356  0.0040
 1095TIP3    H124776   0.370   4.361  16.508 -0.7113 -1.3805 -0.4423
 1095TIP3    H224777   0.474   4.254  16.484  2.1875  0.9803  1.3385
 1096TIP3   OH224778   4.551   6.465  17.264 -0.4336  0.3414  0.1792
 1096TIP3    H124779   4.618   6.525  17.232  0.5741  1.0570  3.4877
 1096TIP3    H224780   4.599   6.403  17.318 -1.9424 -1.4803 -0.5323
 1097TIP3   OH224781   5.016   4.862  14.522 -0.4638 -0.1983  0.1971
 1097TIP3    H124782   4.925   4.891  14.521  0.1234  1.6956 -0.0479
 1097TIP3    H224783   5.067   4.942  14.507  1.3035 -0.9885  1.8404
 1098TIP3   OH224784   2.883   1.900  12.454 -0.1531 -0.3930  0.1062
 1098TIP3    H124785   2.860   1.883  12.363 -0.5740 -0.7381  0.2752
 1098TIP3    H224786   2.888   1.813  12.495 -1.9411 -0.1501  0.8813
 1099TIP3   OH224787   2.627   0.524   0.108 -0.3802  0.3913  0.4067
 1099TIP3    H124788   2.612   0.490   0.020 -0.5426  2.4034 -0.3577
 1099TIP3    H224789   2.689   0.596   0.096  1.1684 -0.5866  2.1869
 1100TIP3   OH224790   1.606   4.537  12.683  0.4226  0.3612 -0.0863
 1100TIP3    H124791   1.695   4.515  12.713  0.5640  1.3022  0.1979
 1100TIP3    H224792   1.549   4.497  12.749  0.5027 -2.7243 -1.7967
 1101TIP3   OH224793   0.064   3.742  14.277  0.3993 -0.4150  0.3320
 1101TIP3    H124794   0.055   3.648  14.262  1.3766 -1.0285  3.2273
 1101TIP3    H224795   0.052   3.782  14.191 -0.0012 -3.1903 -0.9368
 1102TIP3   OH224796   1.970   3.930  13.753 -0.4903  0.2237 -0.0124
 1102TIP3    H124797   2.042   3.869  13.761 -1.3670 -0.7277  0.7223
 1102TIP3    H224798   1.989   3.999  13.816 -0.8534 -0.6770  1.1030
 1103TIP3   OH224799   3.716   5.185  14.230 -0.3546 -0.2769 -0.0424
 1103TIP3    H124800   3.640   5.140  14.265  0.4434 -1.0760  0.6972
 1103TIP3    H224801   3.745   5.242  14.302 -1.0902  1.0994 -0.8142
 1104TIP3   OH224802   4.832   2.589  16.571  0.4701  0.6972  0.0286
 1104TIP3    H124803   4.878   2.618  16.493  0.6081  2.4658  0.7469
 1104TIP3    H224804   4.888   2.522  16.609  1.3224  1.1947 -0.3536
 1105TIP3   OH224805   2.243   5.842   5.580 -0.2513  0.5977 -0.4219
 1105TIP3    H124806   2.184   5.835   5.656  0.0834 -0.3177 -0.2432
 1105TIP3    H224807   2.200   5.906   5.523 -0.7597  0.9212  0.3085
 1106TIP3   OH224808   4.633   0.105   4.163  0.1335  0.5350 -0.5762
 1106TIP3    H124809   4.625   0.191   4.203 -1.5489  0.3633 -0.4992
 1106TIP3    H224810   4.722   0.102   4.129  1.2809  1.0730  2.2479
 1107TIP3   OH224811   5.111   3.670  12.397  0.3676  0.8415  0.2244
 1107TIP3    H124812   5.144   3.652  12.310 -3.4604 -0.4636 -1.0555
 1107TIP3    H224813   5.053   3.746  12.386  0.8957  1.5047  1.8742
 1108TIP3   OH224814   0.212   0.400  11.557  0.3151  0.1134 -0.1638
 1108TIP3    H124815   0.279   0.370  11.619  0.7519  1.1234 -0.1406
 1108TIP3    H224816   0.183   0.320  11.513  1.6673 -0.3190 -0.2988
 1109TIP3   OH224817   3.126   2.335  14.162 -0.6144 -0.1656 -0.0837
 1109TIP3    H124818   3.089   2.368  14.243 -0.3307  0.1556 -0.0859
 1109TIP3    H224819   3.221   2.340  14.174 -0.5649 -1.3020  0.0512
 1110TIP3   OH224820   0.360   4.460  15.528  0.0887  0.1389  0.1915
 1110TIP3    H124821   0.448   4.485  15.500  0.6914 -1.0217  0.9858
 1110TIP3    H224822   0.317   4.430  15.448  0.2364  1.2237 -0.2965
 1111TIP3   OH224823   5.088   2.392  12.281  0.0684  0.1246 -0.5121
 1111TIP3    H124824   5.082   2.307  12.325  0.6574 -0.1548 -0.9695
 1111TIP3    H224825   5.019   2.389  12.214 -0.9161  0.5995  0.4525
 1112TIP3   OH224826   1.541   4.571  17.219  0.3103 -0.2393 -0.1803
 1112TIP3    H124827   1.527   4.653  17.171  0.5353 -2.0453 -3.5091
 1112TIP3    H224828   1.454   4.531  17.221  0.3640 -0.3014  0.6997
 1113TIP3   OH224829   3.260   5.912  14.124 -0.0184  0.1677  0.0498
 1113TIP3    H124830   3.318   5.860  14.068  2.0445  1.3544  1.0108
 1113TIP3    H224831   3.195   5.949  14.064  0.5323 -0.7555 -1.1368
 1114TIP3   OH224832   2.243   4.814   5.006  0.6212 -0.7141  0.3512
 1114TIP3    H124833   2.279   4.725   5.004 -1.4565 -1.5701  0.3032
 1114TIP3    H224834   2.170   4.809   5.066 -0.6000  0.5422 -0.9948
 1115TIP3   OH224835   6.107   0.417   1.090  0.0355  0.5461  0.1063
 1115TIP3    H124836   6.132   0.409   0.998  1.6128 -1.1565  0.6599
 1115TIP3    H224837   6.030   0.360   1.098 -0.0212  0.5883 -0.1208
 1116TIP3   OH224838   5.947   1.106   1.990  0.1689 -0.4745 -0.0272
 1116TIP3    H124839   5.921   1.172   1.926  1.2084 -0.7073 -0.7040
 1116TIP3    H224840   5.929   1.022   1.946 -0.4653 -0.6480  0.5488
 1117TIP3   OH224841   1.010   0.139  12.679  0.4698 -0.2042  0.2546
 1117TIP3    H124842   0.946   0.084  12.634 -0.2460 -1.2639  2.4523
 1117TIP3    H224843   1.085   0.081  12.695 -0.5333 -0.8314  3.1308
 1118TIP3   OH224844   3.126   3.074  16.296 -0.1881 -0.2494  0.1347
 1118TIP3    H124845   3.071   3.144  16.263 -0.8174 -1.0496 -0.5387
 1118TIP3    H224846   3.177   3.044  16.221  0.0434 -0.5484  0.4017
 1119TIP3   OH224847   6.472   3.079   2.563  0.0698  0.5650 -0.5756
 1119TIP3    H124848   6.396   3.065   2.620 -0.2741  1.3157 -0.8359
 1119TIP3    H224849   6.444   3.049   2.477  1.2238 -2.3394  0.0056
 1120TIP3   OH224850   5.012   0.831   6.385  0.0795 -1.0022 -0.2380
 1120TIP3    H124851   4.921   0.813   6.407 -0.2900 -2.7751 -2.9198
 1120TIP3    H224852   5.025   0.922   6.410 -1.9442 -1.1950  1.6692
 1121TIP3   OH224853   1.532   2.926  13.526  0.1339 -0.7531  0.5130
 1121TIP3    H124854   1.466   2.967  13.582 -0.0100  2.7486 -2.0549
 1121TIP3    H224855   1.601   2.991  13.517  1.8424 -2.6279 -0.5057
 1122TIP3   OH224856   5.225   6.492  15.748 -0.0519 -0.0827  0.0265
 1122TIP3    H124857   5.262   6.405  15.765 -0.4775 -0.5602 -1.4663
 1122TIP3    H224858   5.217   6.531  15.835 -1.0105 -2.0063  0.8308
 1123TIP3   OH224859   2.165   2.093   4.420  0.3852 -0.4329  0.6459
 1123TIP3    H124860   2.187   2.000   4.412  0.5746 -0.2475 -1.1303
 1123TIP3    H224861   2.248   2.134   4.447  0.7869 -0.5172 -0.4535
 1124TIP3   OH224862   4.595   6.739  14.203  0.7409  0.2062 -0.1867
 1124TIP3    H124863   4.686   6.766  14.189  0.8965  0.2221  0.8050
 1124TIP3    H224864   4.545   6.821  14.198  1.0584  0.5316  1.4984
 1125TIP3   OH224865   4.531   5.077   4.603 -0.3656  0.3518 -0.3965
 1125TIP3    H124866   4.540   4.987   4.570  0.8816  0.5882 -0.7385
 1125TIP3    H224867   4.463   5.071   4.670 -0.5407 -0.7838 -0.6537
 1126TIP3   OH224868   2.382   5.080   3.371 -0.4344  0.4362  0.2263
 1126TIP3    H124869   2.453   5.020   3.349 -0.5819  0.6739 -0.9276
 1126TIP3    H224870   2.316   5.065   3.303 -0.5766  1.7203  0.0530
 1127TIP3   OH224871   6.313   2.093   3.085  0.2757  0.5480  0.5101
 1127TIP3    H124872   6.389   2.095   3.028 -0.0010 -2.2722 -0.0299
 1127TIP3    H224873   6.289   2.001   3.090 -2.4491  1.2522  1.5364
 1128TIP3   OH224874   1.310   3.403   1.942 -0.2570  0.4532 -0.3064
 1128TIP3    H124875   1.406   3.395   1.943 -0.2810  0.1056  1.7137
 1128TIP3    H224876   1.279   3.313   1.943 -0.6052  0.5660 -1.2150
 1129TIP3   OH224877   3.796   1.743  16.950 -0.5427 -0.2028 -0.3706
 1129TIP3    H124878   3.782   1.709  16.862  0.4132 -0.3383 -0.4785
 1129TIP3    H224879   3.879   1.790  16.945 -1.1779  1.0061  0.1107
 1130TIP3   OH224880   2.410   0.278  17.007 -0.2091  0.7397  0.3494
 1130TIP3    H124881   2.418   0.353  16.947 -0.4966 -0.4952 -1.2613
 1130TIP3    H224882   2.495   0.234  17.001 -0.5241  0.1444  0.1982
 1131TIP3   OH224883   3.340   6.107   4.852 -0.4656 -0.0859  0.0909
 1131TIP3    H124884   3.415   6.167   4.849 -0.7059  0.2118 -0.0241
 1131TIP3    H224885   3.378   6.022   4.871  0.1252 -0.3113 -1.9248
 1132TIP3   OH224886   0.234   6.021   0.842  0.8236  0.2964  0.2973
 1132TIP3    H124887   0.191   6.052   0.921 -1.7955 -1.6866 -0.2878
 1132TIP3    H224888   0.276   6.099   0.805 -1.5242  2.1302  1.3750
 1133TIP3   OH224889   4.465   0.309  12.841  0.7274  0.0974 -0.4334
 1133TIP3    H124890   4.509   0.363  12.775 -0.0028  1.2715  0.0453
 1133TIP3    H224891   4.455   0.224  12.798 -0.6679  1.1358 -2.2247
 1134TIP3   OH224892   1.450   1.786  13.228 -0.8400 -0.4038  0.8401
 1134TIP3    H124893   1.415   1.767  13.315 -3.0192 -0.0934  0.0421
 1134TIP3    H224894   1.434   1.879  13.216 -0.6687 -0.4797  0.0432
 1135TIP3   OH224895   1.627   5.786   1.596  0.4419 -0.0468 -0.1503
 1135TIP3    H124896   1.570   5.804   1.521  0.1638  2.9972  0.7165
 1135TIP3    H224897   1.713   5.814   1.567  0.0916  2.4012  1.0854
 1136TIP3   OH224898   4.126   4.963  14.642 -0.2411  0.2738  0.1427
 1136TIP3    H124899   4.139   4.909  14.563 -0.3371 -0.3871  0.5704
 1136TIP3    H224900   4.107   5.050  14.608  0.6346  0.2047 -0.5576
 1137TIP3   OH224901   5.954   2.421  15.753 -0.0227  0.2035  0.1280
 1137TIP3    H124902   5.993   2.507  15.738  1.2433 -0.5756 -1.2244
 1137TIP3    H224903   5.929   2.422  15.846 -1.2667  2.4922 -0.1841
 1138TIP3   OH224904   4.726   3.829  13.878 -0.1074 -0.0540  0.0274
 1138TIP3    H124905   4.643   3.838  13.925 -0.3814  0.3708 -0.5299
 1138TIP3    H224906   4.715   3.883  13.800  0.7142  0.0468 -0.0228
 1139TIP3   OH224907   0.661   1.165  16.544 -0.0198  0.0440 -0.3054
 1139TIP3    H124908   0.651   1.190  16.636  1.0149  0.1956 -0.2335
 1139TIP3    H224909   0.651   1.070  16.543 -0.7757  0.1170 -0.1445
 1140TIP3   OH224910   5.142   0.866  13.078  0.2926 -0.3329 -0.8928
 1140TIP3    H124911   5.112   0.779  13.105  1.4394 -0.2420  0.7388
 1140TIP3    H224912   5.235   0.868  13.103 -0.6199  2.7194  2.6194
 1141TIP3   OH224913   0.671   2.456  11.692 -0.0243 -0.2233  0.6481
 1141TIP3    H124914   0.611   2.499  11.631  0.4454 -2.1980 -1.2762
 1141TIP3    H224915   0.754   2.503  11.681  0.2752 -1.0584 -0.8752
 1142TIP3   OH224916   4.328   2.311   0.170 -0.1719  0.5354  0.0097
 1142TIP3    H124917   4.420   2.308   0.144  0.4647 -2.7265  2.3566
 1142TIP3    H224918   4.282   2.264   0.101  0.4642 -1.0867  0.6539
 1143TIP3   OH224919   0.972   0.925  13.230 -0.4074  0.5413  0.3319
 1143TIP3    H124920   0.978   1.016  13.202 -2.0073  0.4083 -0.4852
 1143TIP3    H224921   1.008   0.874  13.158  0.5482  0.5291  0.8150
 1144TIP3   OH224922   3.292   3.303   0.935  0.8315  0.4935 -0.6842
 1144TIP3    H124923   3.214   3.335   0.979  0.0999 -1.2155 -0.6882
 1144TIP3    H224924   3.336   3.382   0.903  0.6210  1.6516  1.7992
 1145TIP3   OH224925   2.248   1.923   3.135  0.3306 -0.6198 -0.1783
 1145TIP3    H124926   2.181   1.963   3.080  2.5493  0.7167 -2.0283
 1145TIP3    H224927   2.245   1.973   3.217  0.7197  1.1119 -1.1813
 1146TIP3   OH224928   0.146   6.318   5.343 -0.1724  0.1315  0.2657
 1146TIP3    H124929   0.227   6.316   5.292  0.3014  0.9434  0.9632
 1146TIP3    H224930   0.083   6.269   5.291  0.2962  0.9666 -1.1177
 1147TIP3   OH224931   1.288   6.143   0.904 -0.1014  0.0202  0.1385
 1147TIP3    H124932   1.284   6.236   0.881  0.6951 -0.2236 -1.0165
 1147TIP3    H224933   1.320   6.100   0.825 -2.4482 -1.5038 -0.0256
 1148TIP3   OH224934   0.372   2.049   0.519  0.2649 -0.3261  0.0891
 1148TIP3    H124935   0.419   2.083   0.595 -0.3741 -0.3091  0.4793
 1148TIP3    H224936   0.280   2.045   0.547 -0.3096  1.8047 -1.4411
 1149TIP3   OH224937   4.042   4.793   0.631 -0.5517  0.4536 -0.0500
 1149TIP3    H124938   4.061   4.864   0.570 -1.6030 -0.4091 -1.4248
 1149TIP3    H224939   4.033   4.835   0.716 -0.2369  1.8348 -0.6929
 1150TIP3   OH224940   0.428   0.881   4.024 -0.0452 -0.0543 -0.1453
 1150TIP3    H124941   0.373   0.903   3.949 -0.6124 -1.5344 -0.1846
 1150TIP3    H224942   0.468   0.797   4.001  0.1501 -0.2882  0.9958
 1151TIP3   OH224943   5.117   4.144  12.440 -0.1145 -0.5121 -0.4681
 1151TIP3    H124944   5.127   4.133  12.534 -1.4247  1.2216 -0.1144
 1151TIP3    H224945   5.087   4.058  12.409 -0.6393 -0.7972  0.8106
 1152TIP3   OH224946   6.487   0.104  16.820 -0.4912 -0.0369 -0.3310
 1152TIP3    H124947   6.562   0.165  16.820 -0.3124 -0.2433  0.3394
 1152TIP3    H224948   6.506   0.044  16.892 -0.8449 -0.6742 -0.7693
 1153TIP3   OH224949   2.669   0.607  12.049  0.0640  0.2717  0.3854
 1153TIP3    H124950   2.720   0.677  12.010 -0.8822  0.1522 -1.1031
 1153TIP3    H224951   2.698   0.528  12.005  0.8169 -0.2203  1.7546
 1154TIP3   OH224952   6.046   4.412   4.213  0.1816 -0.0835  0.1045
 1154TIP3    H124953   5.958   4.424   4.250  0.3204  0.1736  0.3501
 1154TIP3    H224954   6.045   4.323   4.178 -0.8419  0.5807 -1.6643
 1155TIP3   OH224955   0.153   1.775   4.864 -0.2675  0.5982 -0.3290
 1155TIP3    H124956   0.145   1.842   4.796 -0.5401 -1.8254 -2.7469
 1155TIP3    H224957   0.066   1.737   4.871  0.3926 -0.9969 -0.5643
 1156TIP3   OH224958   4.869   0.015   0.777  0.4762 -0.0685 -0.3996
 1156TIP3    H124959   4.883   0.096   0.729 -1.9197  0.5232 -0.1355
 1156TIP3    H224960   4.873   0.040   0.869 -3.0216  0.3066 -0.2971
 1157TIP3   OH224961   1.818   3.003  12.644 -0.4989  0.2077  0.3501
 1157TIP3    H124962   1.849   3.041  12.561  3.0044 -0.7784  1.1192
 1157TIP3    H224963   1.867   3.050  12.711 -0.8978 -1.2275  1.6619
 1158TIP3   OH224964   5.459   6.034   2.475 -0.6081  0.3188 -0.3296
 1158TIP3    H124965   5.464   5.943   2.447 -0.0329  0.6728 -1.4004
 1158TIP3    H224966   5.536   6.075   2.437  0.7839  0.5880  2.6723
 1159TIP3   OH224967   6.544   2.706  15.983  0.4030 -0.4757  0.0497
 1159TIP3    H124968   6.524   2.643  16.053  1.9240 -0.2187  0.7397
 1159TIP3    H224969   6.617   2.756  16.017 -0.1103  0.9720 -0.9485
 1160TIP3   OH224970   5.228   2.972   5.655  0.0551 -0.3932 -0.1215
 1160TIP3    H124971   5.150   2.936   5.614  0.1014  0.4343 -0.9435
 1160TIP3    H224972   5.195   3.039   5.715  0.1185 -0.0893 -0.4200
 1161TIP3   OH224973   6.786   1.484   2.322  0.6219  0.7662  0.0989
 1161TIP3    H124974   6.784   1.443   2.408 -0.8956 -1.5891 -1.0034
 1161TIP3    H224975   6.823   1.417   2.264 -0.1806  1.6032 -1.4309
 1162TIP3   OH224976   4.532   6.259  14.562 -0.5316  0.1600  0.0498
 1162TIP3    H124977   4.551   6.167  14.541  2.9418  0.9936 -0.6991
 1162TIP3    H224978   4.618   6.299  14.575 -2.0249  3.1739  1.0455
 1163TIP3   OH224979   0.160   4.220  16.097  0.1825  0.2840 -0.1027
 1163TIP3    H124980   0.240   4.263  16.127  1.2291 -1.0759 -0.9090
 1163TIP3    H224981   0.108   4.290  16.059  1.7270  0.8982 -1.1181
 1164TIP3   OH224982   3.918   1.457   0.998  0.4724  0.3003 -0.3286
 1164TIP3    H124983   3.975   1.529   0.971 -1.6934  1.4776 -1.8886
 1164TIP3    H224984   3.853   1.450   0.928  0.7259 -3.2876 -0.2831
 1165TIP3   OH224985   5.835   5.722  14.025  0.4052 -0.2323  0.3752
 1165TIP3    H124986   5.852   5.635  13.989  0.0628 -0.5055  0.8730
 1165TIP3    H224987   5.894   5.779  13.977  0.3532 -0.6820 -0.2349
 1166TIP3   OH224988   1.078   3.869   4.438  0.4951 -0.1763 -0.5734
 1166TIP3    H124989   1.111   3.903   4.521  0.4089 -1.6911  0.1018
 1166TIP3    H224990   0.984   3.859   4.452  0.6302 -1.4108 -0.4900
 1167TIP3   OH224991   3.808   2.359  11.726  0.4626 -0.7069 -0.0235
 1167TIP3    H124992   3.776   2.442  11.760  1.9284 -0.7158  1.4460
 1167TIP3    H224993   3.730   2.303  11.719 -0.0275 -0.3381  2.2848
 1168TIP3   OH224994   5.824   4.069   4.393 -0.0411  0.0744 -0.5580
 1168TIP3    H124995   5.828   4.154   4.438 -0.5046 -0.6970  0.9534
 1168TIP3    H224996   5.795   4.007   4.460  0.7826 -1.3847 -1.5214
 1169TIP3   OH224997   4.204   5.045  14.056 -0.7915 -0.7283  0.0058
 1169TIP3    H124998   4.170   5.085  13.976  1.2480  0.5843 -0.2442
 1169TIP3    H224999   4.247   4.965  14.026 -1.6887 -1.2279  0.0421
 1170TIP3   OH225000   0.192   1.886   4.284  0.1772  0.0513  0.1620
 1170TIP3    H125001   0.239   1.905   4.202  1.5571  2.1105  1.3758
 1170TIP3    H225002   0.109   1.848   4.256  0.7697  0.4156 -2.1895
 1171TIP3   OH225003   1.792   1.953  13.312  0.2403 -0.4552 -0.1864
 1171TIP3    H125004   1.713   1.917  13.272 -1.3033  0.0775  2.3268
 1171TIP3    H225005   1.836   1.999  13.240 -1.5509 -1.0285 -1.6837
 1172TIP3   OH225006   4.020   3.608  14.171 -0.4694  0.3476  0.4806
 1172TIP3    H125007   3.961   3.571  14.238  1.8014  0.3749  2.5445
 1172TIP3    H225008   4.106   3.572  14.192  0.7824  2.4592 -0.8597
 1173TIP3   OH225009   4.178   6.730  15.660 -0.8018  0.2655  0.2777
 1173TIP3    H125010   4.234   6.808  15.658 -1.9959  1.1624  0.9394
 1173TIP3    H225011   4.095   6.760  15.622 -0.5375 -1.3010 -1.6196
 1174TIP3   OH225012   0.020   1.001   1.373  0.5383 -0.0304 -0.6531
 1174TIP3    H125013   0.036   0.918   1.419  1.0011  0.2760 -0.2483
 1174TIP3    H225014  -0.069   0.994   1.340  0.4215 -0.5093 -0.2376
 1175TIP3   OH225015   2.720   0.549  16.641 -0.2062  0.2229 -0.2341
 1175TIP3    H125016   2.789   0.566  16.576 -0.6147 -0.6738 -0.9078
 1175TIP3    H225017   2.641   0.587  16.603 -0.1637  0.9548  0.3892
 1176TIP3   OH225018   4.228   0.086  16.234 -0.6064 -0.1656  0.2568
 1176TIP3    H125019   4.193   0.129  16.156  3.6232  0.2517 -1.5774
 1176TIP3    H225020   4.195  -0.004  16.229 -0.2405 -0.2112 -2.2090
 1177TIP3   OH225021   4.700   6.585   5.269  0.3243 -0.1093  0.3472
 1177TIP3    H125022   4.742   6.544   5.344 -0.7234  0.0076  1.0094
 1177TIP3    H225023   4.755   6.562   5.194  0.5390 -1.4816  0.9254
 1178TIP3   OH225024   4.212   2.797   5.090 -0.2796  0.2000  0.4658
 1178TIP3    H125025   4.194   2.740   5.015  0.4410  0.6296 -0.0364
 1178TIP3    H225026   4.276   2.860   5.058  0.2381  0.2245  1.5203
 1179TIP3   OH225027   4.563   3.940  11.681  0.1495  0.1610 -0.2834
 1179TIP3    H125028   4.522   3.864  11.638 -1.4508  0.4648  0.6756
 1179TIP3    H225029   4.518   4.016  11.644  0.0302  0.5120  0.5704
 1180TIP3   OH225030   5.101   0.731   5.183 -0.5404  0.0054  0.4845
 1180TIP3    H125031   5.121   0.638   5.180  0.2776  0.1752  0.6248
 1180TIP3    H225032   5.145   0.768   5.107 -1.6896  0.1297 -0.1379
 1181TIP3   OH225033   1.788   3.822   1.179 -0.1088  0.0618  0.6793
 1181TIP3    H125034   1.866   3.868   1.147 -0.8430  1.4586  0.8550
 1181TIP3    H225035   1.821   3.737   1.210  1.2850  0.5058  0.4549
 1182TIP3   OH225036   6.038   4.780  14.277  0.1953  0.4002  0.3886
 1182TIP3    H125037   6.012   4.705  14.225  0.1534  0.0944  0.8507
 1182TIP3    H225038   5.984   4.852  14.244 -1.2166 -0.2190  1.3156
 1183TIP3   OH225039   5.447   6.636  16.405  0.0010  0.1033 -0.2418
 1183TIP3    H125040   5.473   6.676  16.322 -0.1048 -0.7817 -0.7135
 1183TIP3    H225041   5.363   6.595  16.387  0.4695 -1.0022 -0.0125
 1184TIP3   OH225042   3.436   1.665   5.608 -0.2575 -0.1985  0.0062
 1184TIP3    H125043   3.348   1.675   5.644  0.3022  2.0957  0.8356
 1184TIP3    H225044   3.472   1.590   5.655 -0.6185  0.8851  2.0879
 1185TIP3   OH225045   5.413   6.586  11.876 -0.4364  0.5093  0.2273
 1185TIP3    H125046   5.324   6.550  11.867 -0.7078  1.2041  0.1080
 1185TIP3    H225047   5.400   6.679  11.893  0.2998  1.0624 -2.0202
 1186TIP3   OH225048   6.819   6.277  15.432  0.6115 -0.0273 -0.0101
 1186TIP3    H125049   6.884   6.207  15.444  2.9226  1.4465 -3.2143
 1186TIP3    H225050   6.847   6.346  15.492 -0.1227 -0.7431  1.1934
 1187TIP3   OH225051   0.543   0.510  13.682 -0.1077  0.6585  0.0751
 1187TIP3    H125052   0.578   0.502  13.771 -1.7836  0.4799  0.7504
 1187TIP3    H225053   0.507   0.423  13.663  1.5618  0.2643 -1.3762
 1188TIP3   OH225054   6.711   0.835  13.509  0.5580 -0.7926 -0.6461
 1188TIP3    H125055   6.627   0.824  13.554  0.5785  0.5482 -0.2729
 1188TIP3    H225056   6.773   0.858  13.578  1.2017 -1.5715 -0.9525
 1189TIP3   OH225057   4.648   3.642   3.009 -0.2963 -0.3703  0.1652
 1189TIP3    H125058   4.559   3.644   3.045  0.1115 -0.6976  1.2022
 1189TIP3    H225059   4.683   3.729   3.028  0.1267 -0.7390  1.1066
 1190TIP3   OH225060   1.390   5.576  14.111  0.3208 -0.0419  0.0045
 1190TIP3    H125061   1.411   5.664  14.080  0.5648 -0.1328 -0.0844
 1190TIP3    H225062   1.468   5.547  14.158  0.1580 -0.1235  0.2284
 1191TIP3   OH225063   1.047   0.649   1.801 -0.0069 -0.7230  0.3591
 1191TIP3    H125064   0.959   0.612   1.799 -1.2555  2.1698 -0.4315
 1191TIP3    H225065   1.069   0.665   1.710  0.5465  0.2966  0.6566
 1192TIP3   OH225066   1.329   0.202  14.610 -0.5057  0.3521  0.7701
 1192TIP3    H125067   1.355   0.236  14.525 -2.6263 -1.9041 -0.8584
 1192TIP3    H225068   1.393   0.237  14.671  2.9323 -0.4769 -2.2049
 1193TIP3   OH225069   6.374   0.620  11.434 -0.1410 -0.1068 -0.2066
 1193TIP3    H125070   6.296   0.591  11.482 -0.7406  2.2738  0.3003
 1193TIP3    H225071   6.341   0.640  11.346 -0.1986  1.3405  0.1381
 1194TIP3   OH225072   1.121   6.041  13.480 -0.2222 -0.3424 -0.6548
 1194TIP3    H125073   1.094   6.017  13.392 -1.6618 -2.0049  0.2205
 1194TIP3    H225074   1.040   6.049  13.530  0.4993  1.7760  0.2569
 1195TIP3   OH225075   5.290   3.381   3.145  0.1343 -0.0413 -0.1669
 1195TIP3    H125076   5.383   3.360   3.133  0.1523 -0.1518  0.1404
 1195TIP3    H225077   5.286   3.476   3.140  0.2974 -0.0233  0.0293
 1196TIP3   OH225078   4.438   2.340  16.595 -0.4815 -0.0881 -0.0413
 1196TIP3    H125079   4.489   2.385  16.664 -1.8750 -1.7265  2.1227
 1196TIP3    H225080   4.496   2.270  16.565 -0.4647 -0.3360  0.5648
 1197TIP3   OH225081   1.105   0.875  15.627  0.3406 -0.3697 -0.3953
 1197TIP3    H125082   1.113   0.941  15.696  0.2027  1.3957 -2.0216
 1197TIP3    H225083   1.193   0.866  15.591  0.5669 -1.8455  0.4803
 1198TIP3   OH225084   6.218   6.071  12.396  0.9975  0.3240 -0.5578
 1198TIP3    H125085   6.191   6.075  12.304  0.1564 -1.6904 -0.4320
 1198TIP3    H225086   6.267   5.989  12.403 -0.6090 -0.5274  1.1942
 1199TIP3   OH225087   0.713   5.899   2.579  0.1351 -0.4125 -0.4143
 1199TIP3    H125088   0.723   5.991   2.601  0.1178 -0.2370 -1.1125
 1199TIP3    H225089   0.663   5.861   2.651  0.0073  0.1588 -0.2067
 1200TIP3   OH225090   5.174   0.395  14.056  0.1788  0.0543 -0.1912
 1200TIP3    H125091   5.206   0.323  14.109 -0.7007 -0.6322 -0.5737
 1200TIP3    H225092   5.190   0.473  14.109  0.2206 -0.5227  0.6546
 1201TIP3   OH225093   5.004   5.895   4.387  0.7879 -0.6436  0.2773
 1201TIP3    H125094   4.951   5.960   4.342  1.5093  1.0319  1.7965
 1201TIP3    H225095   4.943   5.825   4.409 -0.8147  1.2163  1.9223
 1202TIP3   OH225096   2.367   4.070  12.334  0.3568 -0.1834 -0.1374
 1202TIP3    H125097   2.286   4.031  12.365  0.0595  0.3216 -0.2749
 1202TIP3    H225098   2.340   4.129  12.263  0.6195  1.4416  1.0884
 1203TIP3   OH225099   2.235   0.142  10.945 -0.0100 -0.4896  0.3601
 1203TIP3    H125100   2.272   0.205  11.006  1.7116 -0.3497 -0.7814
 1203TIP3    H225101   2.273   0.166  10.860  0.9920 -3.2768 -0.0318
 1204TIP3   OH225102   4.325   1.134  17.153 -0.0851 -0.3657  0.3561
 1204TIP3    H125103   4.355   1.138  17.244 -0.4043 -2.7573  0.5912
 1204TIP3    H225104   4.400   1.165  17.102  1.3553 -2.2960  1.2251
 1205TIP3   OH225105   6.734   2.665  13.990 -0.6676  0.3466  0.2812
 1205TIP3    H125106   6.729   2.594  13.926 -0.3977  0.1219  0.5094
 1205TIP3    H225107   6.799   2.635  14.054 -1.1290  0.4555  0.8056
 1206TIP3   OH225108   3.345   2.307   1.502 -0.1216  0.4821 -0.0250
 1206TIP3    H125109   3.252   2.313   1.525  0.3044  0.6055  1.7031
 1206TIP3    H225110   3.357   2.216   1.474 -1.4848  1.2985 -3.6505
 1207TIP3   OH225111   0.563   5.260  12.750  0.0610 -0.3434 -0.2268
 1207TIP3    H125112   0.584   5.316  12.675 -0.2374  1.1165  0.7581
 1207TIP3    H225113   0.471   5.237  12.738  0.2911 -0.9735 -0.8443
 1208TIP3   OH225114   0.812   1.367  12.528  0.4487 -0.2690 -0.3446
 1208TIP3    H125115   0.723   1.401  12.516  0.1692 -0.6451  0.5917
 1208TIP3    H225116   0.869   1.433  12.489 -0.0673  1.3624  1.5865
 1209TIP3   OH225117   4.855   2.679  11.747  0.3594  0.0633  0.0334
 1209TIP3    H125118   4.907   2.713  11.674  1.3463 -0.3426  0.5291
 1209TIP3    H225119   4.912   2.614  11.788  0.8285  2.0966  2.7113
 1210TIP3   OH225120   2.323   3.014  10.507  0.2172  0.1957  0.5383
 1210TIP3    H125121   2.301   2.920  10.501 -0.6618  0.3340  1.5222
 1210TIP3    H225122   2.242   3.055  10.537 -0.0932  1.5872 -2.0452
 1211TIP3   OH225123   3.022   3.770   3.077  0.1696  0.4685 -0.8732
 1211TIP3    H125124   2.971   3.846   3.106 -0.4987  0.5111 -2.1607
 1211TIP3    H225125   3.037   3.785   2.984  1.0573 -0.4068 -0.8793
 1212TIP3   OH225126   1.889   0.895   0.306  0.2510  0.3126 -0.2423
 1212TIP3    H125127   1.870   0.806   0.338 -1.8718  1.1615  0.9439
 1212TIP3    H225128   1.981   0.909   0.329  0.4225 -1.3269  0.1490
 1213TIP3   OH225129   3.942   6.121   0.260 -0.1166 -0.0691  0.2177
 1213TIP3    H125130   3.959   6.092   0.350 -1.1385 -1.1698  0.0688
 1213TIP3    H225131   3.848   6.141   0.259 -0.0118  0.3844 -0.4805
 1214TIP3   OH225132   5.758   0.372   4.198 -0.2693  0.4099  0.2059
 1214TIP3    H125133   5.846   0.383   4.234 -0.2643 -1.4688  0.8094
 1214TIP3    H225134   5.760   0.422   4.116  1.9438 -1.0089 -0.6703
 1215TIP3   OH225135   2.045   1.427  11.185 -1.1520 -0.2737  0.5074
 1215TIP3    H125136   2.123   1.385  11.222 -1.8431 -1.2269  0.9079
 1215TIP3    H225137   2.022   1.495  11.247 -1.5022 -0.9705  1.1566
 1216TIP3   OH225138   3.852   2.064  13.209  0.3647  0.0928  0.3833
 1216TIP3    H125139   3.792   2.125  13.167 -0.2588  0.1120  1.2885
 1216TIP3    H225140   3.891   2.113  13.281  1.1588 -0.0484  0.0562
 1217TIP3   OH225141   3.501   2.032   4.273  0.4165 -0.5272 -0.0331
 1217TIP3    H125142   3.497   2.127   4.285  1.7868 -0.6426  1.3872
 1217TIP3    H225143   3.557   2.021   4.196  0.6127 -0.2007  0.0578
 1218TIP3   OH225144   2.882   3.117   1.919 -0.9283  0.4247  0.4782
 1218TIP3    H125145   2.930   3.189   1.960  0.9180  0.5461 -1.7713
 1218TIP3    H225146   2.845   3.156   1.840  0.5580 -1.1978 -1.0564
 1219TIP3   OH225147   1.412   6.218   4.297 -0.1333  0.2264  0.0072
 1219TIP3    H125148   1.423   6.306   4.333  1.3294  0.1225 -0.1545
 1219TIP3    H225149   1.373   6.168   4.369 -2.0851  1.2811 -0.2952
 1220TIP3   OH225150   1.653   0.926   1.106  0.1101  0.2168 -0.6202
 1220TIP3    H125151   1.728   0.880   1.144  2.9385  2.1233 -3.6224
 1220TIP3    H225152   1.649   1.008   1.155  0.4315  0.4026 -0.9009
 1221TIP3   OH225153   6.638   4.710   3.775 -0.3514 -0.3089  0.2535
 1221TIP3    H125154   6.571   4.646   3.751 -0.4680 -0.6493  1.4802
 1221TIP3    H225155   6.717   4.658   3.791  0.1564  0.0704 -0.9442
 1222TIP3   OH225156   5.148   4.709  14.297 -0.5053 -0.7917  0.1663
 1222TIP3    H125157   5.083   4.765  14.340  0.8040 -0.6330  2.0549
 1222TIP3    H225158   5.160   4.636  14.358  0.4589 -1.2468 -0.5585
 1223TIP3   OH225159   3.527   5.038   5.439  0.1827  0.4273  0.0104
 1223TIP3    H125160   3.544   5.132   5.437 -0.9621  0.6246 -0.5125
 1223TIP3    H225161   3.441   5.027   5.399  0.7373 -0.9457 -0.8487
 1224TIP3   OH225162   3.978   4.288   2.067 -0.3975  0.2415 -0.5331
 1224TIP3    H125163   3.946   4.213   2.117  1.7571  0.4357  1.1919
 1224TIP3    H225164   4.051   4.253   2.017  0.0310  0.9920 -0.4313
 1225TIP3   OH225165   6.820   6.624   5.399  0.2769 -0.1135  0.0784
 1225TIP3    H125166   6.830   6.710   5.439 -0.1742 -0.8399  1.7998
 1225TIP3    H225167   6.859   6.563   5.461  2.5224 -0.9641 -2.0922
 1226TIP3   OH225168   1.624   6.446   6.399 -0.3239  0.1903 -0.0864
 1226TIP3    H125169   1.593   6.367   6.443  0.7048  0.1455  0.5584
 1226TIP3    H225170   1.586   6.518   6.450  0.1635  0.1264  0.3770
 1227TIP3   OH225171   3.239   0.438   0.213  0.1387  0.3143  0.4716
 1227TIP3    H125172   3.276   0.447   0.301 -0.5268  0.5367  0.7308
 1227TIP3    H225173   3.146   0.457   0.224  0.4388  2.5277 -0.6725
 1228TIP3   OH225174   2.669   4.427  11.312 -0.1841 -0.1425 -0.3782
 1228TIP3    H125175   2.729   4.361  11.277 -0.3478 -0.3473 -0.2737
 1228TIP3    H225176   2.691   4.507  11.265  0.3786 -0.1444 -0.1208
 1229TIP3   OH225177   6.377   2.835  15.805 -0.5018  0.5969  0.7176
 1229TIP3    H125178   6.411   2.919  15.773 -0.2087  0.6877  1.2736
 1229TIP3    H225179   6.439   2.808  15.872  0.2752 -0.8634 -0.5693
 1230TIP3   OH225180   2.095   1.314  12.490  0.0060  0.6231  0.1314
 1230TIP3    H125181   2.078   1.408  12.483  1.7700  1.1769  2.5249
 1230TIP3    H225182   2.009   1.273  12.482 -1.1160  2.6073  1.5408
 1231TIP3   OH225183   0.819   5.855  14.945 -0.0137 -0.1479  0.2292
 1231TIP3    H125184   0.840   5.775  14.993 -1.7059  0.1887  1.6211
 1231TIP3    H225185   0.725   5.848  14.928  0.2007  0.6647 -1.3237
 1232TIP3   OH225186   2.103   1.688   4.127  0.3529 -0.2084  0.6237
 1232TIP3    H125187   2.008   1.697   4.128  0.1716 -1.3765 -2.4299
 1232TIP3    H225188   2.129   1.720   4.041  2.4599 -2.3691  0.4187
 1233TIP3   OH225189   1.618   6.631  16.899 -0.0244 -0.7132  0.1420
 1233TIP3    H125190   1.581   6.543  16.893 -0.5405 -0.4316 -0.9875
 1233TIP3    H225191   1.564   6.684  16.839  1.3838 -0.0090 -0.5251
 1234TIP3   OH225192   5.905   5.613  15.923  0.2559  0.5538  0.3842
 1234TIP3    H125193   5.929   5.596  15.832  0.9862  1.7191  0.3487
 1234TIP3    H225194   5.817   5.576  15.932 -0.4333  1.7394 -1.2016
 1235TIP3   OH225195   2.444   0.202   2.656 -0.2193  0.0081 -0.8769
 1235TIP3    H125196   2.478   0.120   2.692  1.1671  0.8758 -0.1827
 1235TIP3    H225197   2.516   0.237   2.604 -0.1717  1.6457  0.2427
 1236TIP3   OH225198   2.623   4.235  15.616  0.1709 -0.5464  0.0920
 1236TIP3    H125199   2.632   4.240  15.521  2.1283  0.7791  0.3128
 1236TIP3    H225200   2.627   4.141  15.636 -1.0586 -0.8803 -1.1874
 1237TIP3   OH225201   3.081   4.221   4.773  0.0557 -0.2627 -0.0673
 1237TIP3    H125202   3.014   4.218   4.705 -1.2875 -0.8028  1.2497
 1237TIP3    H225203   3.033   4.211   4.855  1.7608 -0.8221  0.9033
 1238TIP3   OH225204   6.625   0.625   0.102 -0.0316 -0.0239 -0.0063
 1238TIP3    H125205   6.694   0.621   0.035 -0.1737  0.1736 -0.1657
 1238TIP3    H225206   6.547   0.652   0.054 -0.4963 -1.3977 -0.0359
 1239TIP3   OH225207   5.394   5.946  14.212  0.2829  0.1306 -0.3108
 1239TIP3    H125208   5.307   5.909  14.199 -1.0726  2.5134  1.4428
 1239TIP3    H225209   5.395   6.024  14.155  0.6161  1.0245  0.8966
 1240TIP3   OH225210   3.240   6.646   5.876  0.0801 -0.4466 -0.4625
 1240TIP3    H125211   3.283   6.728   5.853 -0.9107  0.9495  2.3623
 1240TIP3    H225212   3.167   6.638   5.814 -0.4944  1.4065 -0.0428
 1241TIP3   OH225213   4.418   6.745  16.099  0.0289  0.2046  0.4208
 1241TIP3    H125214   4.373   6.824  16.130  0.8239  0.2374  1.5346
 1241TIP3    H225215   4.363   6.713  16.028 -1.5016  0.5127  1.4300
 1242TIP3   OH225216   6.673   3.173  15.193  0.1347 -0.8208  0.1788
 1242TIP3    H125217   6.591   3.125  15.182 -0.8372  0.7050  0.7270
 1242TIP3    H225218   6.705   3.148  15.280 -0.4942 -0.2849  0.5629
 1243TIP3   OH225219   5.634   1.934   2.639  0.1813  0.8346  0.6836
 1243TIP3    H125220   5.709   1.904   2.690 -0.3952 -1.3116  0.3130
 1243TIP3    H225221   5.566   1.869   2.656 -0.6205  1.0965 -1.3675
 1244TIP3   OH225222   5.831   3.127   4.505  0.3546 -0.2103  0.1702
 1244TIP3    H125223   5.926   3.119   4.507  0.2274 -2.9274 -1.3734
 1244TIP3    H225224   5.799   3.055   4.559 -0.8422  0.0910 -0.1093
 1245TIP3   OH225225   4.173   0.606  16.901  0.0505  0.2728 -1.0019
 1245TIP3    H125226   4.174   0.697  16.870 -0.2849  0.1228 -1.4597
 1245TIP3    H225227   4.144   0.555  16.826 -0.7450 -0.1036 -0.4447
 1246TIP3   OH225228   2.215   1.707  13.824 -0.2474  0.5088 -0.1384
 1246TIP3    H125229   2.219   1.622  13.869 -1.1335  0.5227 -0.0113
 1246TIP3    H225230   2.251   1.769  13.887 -1.6433  0.5525  0.6483
 1247TIP3   OH225231   5.435   2.839   1.046  0.1108 -0.1035 -0.1548
 1247TIP3    H125232   5.434   2.933   1.064 -2.5970 -0.5617  2.4871
 1247TIP3    H225233   5.476   2.800   1.123 -0.4955 -1.2359 -0.3931
 1248TIP3   OH225234   4.394   6.610   5.247 -0.1266 -0.7831 -0.2831
 1248TIP3    H125235   4.328   6.598   5.316 -0.5626  0.6806 -0.4263
 1248TIP3    H225236   4.472   6.642   5.294  0.8340 -3.5086  0.0217
 1249TIP3   OH225237   4.876   3.735   4.460 -0.4263  0.4407  0.0778
 1249TIP3    H125238   4.951   3.734   4.401  0.3533 -0.6077  1.0669
 1249TIP3    H225239   4.800   3.722   4.403  0.1437  1.2613 -0.8931
 1250TIP3   OH225240   2.405   0.948   0.570  0.0093  0.3530 -0.1957
 1250TIP3    H125241   2.491   0.990   0.580 -0.1463  0.7748 -0.6422
 1250TIP3    H225242   2.343   1.013   0.601 -0.0032 -0.7650  2.2392
 1251TIP3   OH225243   4.683   0.139  12.243 -0.2354  0.3589 -0.1152
 1251TIP3    H125244   4.678   0.071  12.176 -0.9141 -0.9670  1.2550
 1251TIP3    H225245   4.653   0.218  12.198  0.4502 -0.2508 -1.6951
 1252TIP3   OH225246   2.836   3.488   4.125 -0.1642 -0.5283 -0.2636
 1252TIP3    H125247   2.745   3.468   4.147 -0.5569  0.9958 -0.4418
 1252TIP3    H225248   2.836   3.500   4.030 -0.2467  1.8125  0.0246
 1253TIP3   OH225249   5.612   3.082  11.450 -0.0322  0.0696  0.1586
 1253TIP3    H125250   5.604   3.007  11.509  0.1525 -0.9477 -1.0858
 1253TIP3    H225251   5.674   3.140  11.493 -0.2388 -0.4589  1.1766
 1254TIP3   OH225252   2.742   3.090   4.722 -0.0588  0.4014 -0.0599
 1254TIP3    H125253   2.689   3.165   4.695 -0.8745 -0.0924  0.1754
 1254TIP3    H225254   2.681   3.032   4.767  0.3865 -0.8256 -1.0244
 1255TIP3   OH225255   5.453   1.072   5.957  0.0179 -0.1808  0.5584
 1255TIP3    H125256   5.391   1.110   6.020 -0.8499 -1.7963  0.7189
 1255TIP3    H225257   5.533   1.123   5.967 -0.6865  0.7007  1.7367
 1256TIP3   OH225258   3.768   0.329   2.490 -1.0579  0.0863  0.1663
 1256TIP3    H125259   3.752   0.376   2.408 -2.5258  0.2394  0.5208
 1256TIP3    H225260   3.812   0.393   2.546  0.4703 -0.1965 -0.6801
 1257TIP3   OH225261   0.181   1.413   4.004 -0.5875 -0.3137  0.2980
 1257TIP3    H125262   0.091   1.422   4.036 -0.3269 -0.8938  1.1836
 1257TIP3    H225263   0.218   1.341   4.054 -0.5128 -1.9554 -2.0200
 1258TIP3   OH225264   2.024   1.534  17.223 -0.0201 -0.1431  0.0425
 1258TIP3    H125265   1.953   1.475  17.249 -0.2956  0.4941  0.7414
 1258TIP3    H225266   2.072   1.550  17.304 -0.0712  0.7570 -0.1036
 1259TIP3   OH225267   1.122   6.242  15.319  0.2101 -0.9011  0.5114
 1259TIP3    H125268   1.070   6.203  15.249  0.3812  0.7446 -0.5582
 1259TIP3    H225269   1.057   6.267  15.385 -0.2187 -0.3688 -0.0899
 1260TIP3   OH225270   1.515   1.396  11.109 -0.5626  0.3003  0.0849
 1260TIP3    H125271   1.595   1.435  11.074  0.2444  1.2608  2.8774
 1260TIP3    H225272   1.446   1.422  11.047  1.1783 -0.2097 -2.1344
 1261TIP3   OH225273   5.337   3.614  11.678 -0.2000 -0.0741  0.0397
 1261TIP3    H125274   5.389   3.572  11.609  0.4348  2.2111 -0.9390
 1261TIP3    H225275   5.376   3.584  11.760  1.5241  0.1974 -0.6638
 1262TIP3   OH225276   1.975   2.740   4.105 -0.3026 -0.2712 -0.0694
 1262TIP3    H125277   2.007   2.684   4.176  0.3519 -1.2561 -1.1178
 1262TIP3    H225278   1.882   2.752   4.123 -0.0013  0.0289  1.3082
 1263TIP3   OH225279   3.254   2.042   1.721 -0.0571  0.1213 -0.1178
 1263TIP3    H125280   3.317   2.027   1.651  0.0850  1.0257 -0.1809
 1263TIP3    H225281   3.240   1.955   1.759  0.6589 -0.2027 -0.5853
 1264TIP3   OH225282   3.359   2.864   3.461  0.1928  0.7651 -0.0336
 1264TIP3    H125283   3.454   2.854   3.470  0.2183  1.6456  0.7720
 1264TIP3    H225284   3.333   2.913   3.539 -0.9048  0.6775 -0.3389
 1265TIP3   OH225285   0.584   6.179  13.163 -0.4944  0.2249 -0.3755
 1265TIP3    H125286   0.556   6.148  13.249 -1.0700  2.4030  0.2432
 1265TIP3    H225287   0.672   6.144  13.152 -0.4416 -0.1090  1.0630
 1266TIP3   OH225288   3.633   5.097   1.127  0.1244 -0.3936  0.1068
 1266TIP3    H125289   3.674   5.128   1.047 -0.3003 -1.7948 -0.6706
 1266TIP3    H225290   3.672   5.010   1.142  0.4767  0.0106  1.6155
 1267TIP3   OH225291   3.985   1.065  15.259  0.1544  0.5305 -0.1214
 1267TIP3    H125292   3.894   1.094  15.264  0.0626  0.0147  1.6237
 1267TIP3    H225293   4.033   1.130  15.310  0.5847  0.1248 -0.0121
 1268TIP3   OH225294   6.280   1.575   3.998 -0.0522 -0.0986  0.4470
 1268TIP3    H125295   6.263   1.600   3.907 -1.1978 -1.7084  0.1813
 1268TIP3    H225296   6.255   1.652   4.049 -1.2753  0.1567 -0.4864
 1269TIP3   OH225297   0.878   5.560   3.909  0.1790 -0.2352 -0.3540
 1269TIP3    H125298   0.940   5.489   3.925  0.3702  0.1226  0.4979
 1269TIP3    H225299   0.910   5.633   3.961  1.4152  1.3212 -3.2285
 1270TIP3   OH225300   4.322   0.442   0.398 -0.1617  0.6539 -0.2038
 1270TIP3    H125301   4.326   0.380   0.325  0.8067  0.1440  0.2784
 1270TIP3    H225302   4.291   0.523   0.358  1.2358  0.6423 -1.3671
 1271TIP3   OH225303   3.722   1.038   5.995 -0.4361 -0.1386 -0.8322
 1271TIP3    H125304   3.677   1.037   5.911 -1.0859  1.0447 -0.5132
 1271TIP3    H225305   3.676   0.973   6.048 -0.0965 -0.8035 -1.3405
 1272TIP3   OH225306   1.225   6.284   3.340  0.0824 -0.4472 -0.0497
 1272TIP3    H125307   1.165   6.231   3.392  0.2214 -0.5686 -0.0136
 1272TIP3    H225308   1.196   6.272   3.250 -0.1759 -0.2141 -0.0008
 1273TIP3   OH225309   0.647   3.655  10.616  0.2166  0.0803 -0.1081
 1273TIP3    H125310   0.717   3.631  10.676 -1.9260 -0.3594  2.2733
 1273TIP3    H225311   0.601   3.573  10.597  0.6464  0.2664 -2.1089
 1274TIP3   OH225312   3.609   3.655   4.949 -0.2317  0.6833 -0.7213
 1274TIP3    H125313   3.605   3.688   5.038  1.0127  0.7554 -0.6760
 1274TIP3    H225314   3.555   3.715   4.898 -1.5910  0.1817  0.1038
 1275TIP3   OH225315   5.525   4.607   4.237 -0.0243  0.2808 -0.3460
 1275TIP3    H125316   5.589   4.641   4.174  0.9242 -2.3830 -0.8952
 1275TIP3    H225317   5.451   4.578   4.183 -0.0185 -0.2541 -0.0734
 1276TIP3   OH225318   0.787   2.441  16.687 -0.3251 -0.0872 -0.0378
 1276TIP3    H125319   0.770   2.372  16.750  2.2887  0.2307  1.0968
 1276TIP3    H225320   0.844   2.400  16.622  0.6467  0.7862  0.2455
 1277TIP3   OH225321   6.746   1.496  14.789  0.9489  0.1441 -0.4664
 1277TIP3    H125322   6.674   1.454  14.836  1.0238  2.8140  2.1973
 1277TIP3    H225323   6.752   1.447  14.707 -3.3928 -0.6319 -0.4746
 1278TIP3   OH225324   4.946   2.269  13.610 -0.5593 -0.0630 -0.1434
 1278TIP3    H125325   4.882   2.336  13.636 -0.3052  1.0112 -2.1136
 1278TIP3    H225326   4.974   2.297  13.523 -0.3472 -2.6951 -0.9622
 1279TIP3   OH225327   2.933   5.634  12.585 -0.3264  0.1222 -0.1602
 1279TIP3    H125328   2.975   5.719  12.595  1.8737 -0.9163 -0.3040
 1279TIP3    H225329   2.971   5.581  12.655  0.3214 -1.4838 -1.6893
 1280TIP3   OH225330   0.633   3.154  12.698 -0.3817  0.5242  0.1743
 1280TIP3    H125331   0.608   3.149  12.606 -1.1677  0.5389  0.3852
 1280TIP3    H225332   0.726   3.131  12.699 -0.1898  1.2517 -0.7042
 1281TIP3   OH225333   2.656   2.256  13.063 -0.8008  0.0984  0.1483
 1281TIP3    H125334   2.686   2.267  12.973  1.9975 -0.2443  0.9978
 1281TIP3    H225335   2.620   2.167  13.066  0.2811 -0.3585 -0.3157
 1282TIP3   OH225336   1.361   6.436  11.530  0.0938  0.0868 -0.2335
 1282TIP3    H125337   1.305   6.358  11.529  1.6491 -1.0818  1.5528
 1282TIP3    H225338   1.354   6.469  11.620 -1.5917  2.8274 -1.3064
 1283TIP3   OH225339   4.737   1.494   5.968 -0.2715  0.2474  0.0856
 1283TIP3    H125340   4.791   1.565   6.002 -0.3552  0.0023  0.7340
 1283TIP3    H225341   4.677   1.536   5.906 -0.8224  0.8468  1.0275
 1284TIP3   OH225342   6.109   2.634  15.306 -1.0996  0.7228 -0.0901
 1284TIP3    H125343   6.083   2.645  15.397 -0.7548  0.2770  0.0677
 1284TIP3    H225344   6.158   2.552  15.305  0.3481  1.5638 -0.3660
 1285TIP3   OH225345   3.613   0.543  13.221  0.0255  0.8080 -0.7752
 1285TIP3    H125346   3.522   0.546  13.248  0.3341 -0.5985  0.4877
 1285TIP3    H225347   3.629   0.451  13.200  2.1169  0.3025  2.6131
 1286TIP3   OH225348   6.787   0.265   5.674 -0.5102  0.3584 -0.0406
 1286TIP3    H125349   6.821   0.256   5.763  1.6286  3.5650 -0.4577
 1286TIP3    H225350   6.739   0.348   5.675 -2.6695 -0.8272 -1.2446
 1287TIP3   OH225351   0.078   0.892  15.739 -0.0862  0.1234  0.1798
 1287TIP3    H125352   0.148   0.862  15.681 -0.7136 -0.9034 -0.0584
 1287TIP3    H225353   0.119   0.892  15.826 -0.0606 -1.4479  0.1881
 1288TIP3   OH225354   0.641   2.262  14.650 -0.0544  0.0340  0.6171
 1288TIP3    H125355   0.692   2.300  14.721  0.0069 -1.5737  1.4652
 1288TIP3    H225356   0.659   2.168  14.655  0.9522  0.0305 -2.3262
 1289TIP3   OH225357   0.787   6.484   2.726 -0.0931  0.1424 -0.1895
 1289TIP3    H125358   0.699   6.464   2.697 -0.7469  2.2151  0.3191
 1289TIP3    H225359   0.812   6.562   2.678  1.4064 -0.2974 -0.1781
 1290TIP3   OH225360   3.691   2.293   5.281  0.3949  0.0839  0.0230
 1290TIP3    H125361   3.712   2.297   5.374 -0.9778  2.4311  0.2573
 1290TIP3    H225362   3.618   2.230   5.276 -0.3407  0.8711  0.6961
 1291TIP3   OH225363   3.322   1.645   1.447  0.1164  0.0076 -0.1663
 1291TIP3    H125364   3.373   1.723   1.424 -0.8618  1.4752  2.4849
 1291TIP3    H225365   3.384   1.572   1.436  1.2431  1.2073 -1.9922
 1292TIP3   OH225366   3.321   1.062   5.548 -0.6443  0.3123  0.3962
 1292TIP3    H125367   3.334   0.973   5.582 -1.5617  0.3876  0.9698
 1292TIP3    H225368   3.248   1.053   5.487 -1.6570  0.9232  1.5061
 1293TIP3   OH225369   1.587   5.978  14.514  0.1827  0.1468 -0.1684
 1293TIP3    H125370   1.631   6.057  14.484  1.8732 -0.6690  0.0768
 1293TIP3    H225371   1.653   5.932  14.566 -0.2014 -2.2306 -1.6805
 1294TIP3   OH225372   0.552   3.932   5.771  0.7361  0.1397 -0.3256
 1294TIP3    H125373   0.600   3.850   5.783  0.6504 -0.0219 -1.0213
 1294TIP3    H225374   0.472   3.921   5.822  2.0578  0.9672  1.9971
 1295TIP3   OH225375   3.870   0.492   6.781  0.1856 -0.3491 -0.1896
 1295TIP3    H125376   3.790   0.463   6.737  0.0349  1.7959 -1.3751
 1295TIP3    H225377   3.937   0.491   6.712 -0.6237  5.6150 -1.2984
 1296TIP3   OH225378   4.503   0.343  16.101 -0.8262  0.4014  0.2772
 1296TIP3    H125379   4.420   0.299  16.120 -0.6006  0.6339  1.8994
 1296TIP3    H225380   4.566   0.299  16.159 -0.0067  0.8633 -0.2608
 1297TIP3   OH225381   5.999   4.375  15.932  0.3190  0.3575  0.7573
 1297TIP3    H125382   6.068   4.440  15.919  0.4636 -0.0956 -0.8491
 1297TIP3    H225383   5.993   4.365  16.027  2.2745  0.6155  0.9287
 1298TIP3   OH225384   2.177   3.045   1.873 -0.0769 -0.0012 -0.7003
 1298TIP3    H125385   2.119   3.073   1.802  0.5278  0.5383 -0.9812
 1298TIP3    H225386   2.226   3.124   1.897  0.8950 -0.5632 -0.7967
 1299TIP3   OH225387   0.419   3.420   2.319  0.0330 -0.1077 -0.2355
 1299TIP3    H125388   0.446   3.335   2.353 -2.9928 -0.4809  1.4924
 1299TIP3    H225389   0.435   3.481   2.391 -0.4812  0.2534 -0.4236
 1300TIP3   OH225390   1.572   6.383   3.007 -0.0436 -0.1716 -0.3941
 1300TIP3    H125391   1.657   6.343   2.990  0.1092 -0.7198  1.5291
 1300TIP3    H225392   1.557   6.442   2.933  3.5023  2.3975  0.8152
 1301TIP3   OH225393   4.100   3.560  15.032 -0.3640 -0.4245  0.3853
 1301TIP3    H125394   4.044   3.551  15.110  0.0389  0.7851  0.8306
 1301TIP3    H225395   4.187   3.536  15.063  0.4286  3.2523  1.1926
 1302TIP3   OH225396   4.241   2.359  14.230 -0.8411  0.1838 -0.4476
 1302TIP3    H125397   4.318   2.394  14.184 -1.0723 -1.1694 -1.9030
 1302TIP3    H225398   4.193   2.437  14.259  1.0797  1.0487  0.5140
 1303TIP3   OH225399   5.671   5.520  11.379  0.1476 -0.1561 -0.8222
 1303TIP3    H125400   5.751   5.480  11.413 -0.4787  1.1850  2.4253
 1303TIP3    H225401   5.692   5.613  11.369 -1.7580  0.7674  2.8411
 1304TIP3   OH225402   2.601   6.163  16.030 -0.1876 -0.9101 -0.1421
 1304TIP3    H125403   2.664   6.142  15.961 -2.1473 -0.2027 -2.2232
 1304TIP3    H225404   2.622   6.253  16.055 -0.3252 -0.6886 -0.8074
 1305TIP3   OH225405   5.589   0.534   1.004 -0.2069  0.2239  0.0791
 1305TIP3    H125406   5.619   0.469   0.940  3.5453  1.8912  0.0082
 1305TIP3    H225407   5.526   0.587   0.955  0.8452  0.0229 -1.5455
 1306TIP3   OH225408   4.761   5.864  16.379  0.1010  0.4811  0.5210
 1306TIP3    H125409   4.847   5.889  16.346  0.3568 -1.6507 -0.5136
 1306TIP3    H225410   4.702   5.874  16.304 -0.0710 -0.5043  0.5234
 1307TIP3   OH225411   3.487   0.315  14.491  0.4550 -0.5239  0.5478
 1307TIP3    H125412   3.553   0.345  14.554 -0.0554  0.2230  0.7299
 1307TIP3    H225413   3.414   0.376  14.501 -1.0549 -2.4685  1.6966
 1308TIP3   OH225414   3.679   5.325  15.795 -0.6299 -0.6440 -0.2474
 1308TIP3    H125415   3.641   5.327  15.883 -0.9544  2.1156 -0.4123
 1308TIP3    H225416   3.644   5.403  15.752  1.3910 -0.6781 -2.0411
 1309TIP3   OH225417   3.533   5.226  12.529  0.1658 -0.6121 -0.3740
 1309TIP3    H125418   3.628   5.218  12.528  0.4010  1.0317  2.6592
 1309TIP3    H225419   3.513   5.282  12.455  1.6237 -0.4504 -0.6621
 1310TIP3   OH225420   0.131   1.443  12.727 -0.0065  0.1089 -1.2094
 1310TIP3    H125421   0.195   1.373  12.715 -0.5063 -0.3687 -1.1225
 1310TIP3    H225422   0.115   1.476  12.639  3.1273  2.7470 -0.8793
 1311TIP3   OH225423   0.661   2.554  13.290 -0.0754  0.3879 -0.5624
 1311TIP3    H125424   0.571   2.539  13.263 -0.0352 -1.2444  0.1468
 1311TIP3    H225425   0.714   2.506  13.226  0.1683 -0.6481  0.4007
 1312TIP3   OH225426   4.245   1.202  14.996  0.1993 -0.4481 -0.6347
 1312TIP3    H125427   4.339   1.185  14.993  0.3549  0.6794 -2.1945
 1312TIP3    H225428   4.224   1.245  14.913 -1.4546  0.5570  0.2594
 1313TIP3   OH225429   1.158   2.672   1.490  0.5696  0.3201  0.3304
 1313TIP3    H125430   1.121   2.756   1.463  0.3946  0.1328 -0.0225
 1313TIP3    H225431   1.203   2.639   1.412  1.9299  0.7786  0.9084
 1314TIP3   OH225432   0.826   4.248  11.511 -0.2015  0.3557 -0.2277
 1314TIP3    H125433   0.853   4.255  11.603  0.0590  0.9207 -0.3469
 1314TIP3    H225434   0.755   4.184  11.513 -0.9093  1.1372  0.5319
 1315TIP3   OH225435   6.203   4.056   2.427 -0.0871 -0.3789 -0.0043
 1315TIP3    H125436   6.156   3.985   2.384 -0.5979 -0.0404 -0.0159
 1315TIP3    H225437   6.281   4.070   2.373 -0.6801 -0.0142 -0.7703
 1316TIP3   OH225438   0.471   2.181  15.227  0.0326  0.0946 -0.0177
 1316TIP3    H125439   0.557   2.219  15.244  0.2308  0.1664 -1.1073
 1316TIP3    H225440   0.421   2.197  15.307  0.6723  1.0679  0.1951
 1317TIP3   OH225441   1.203   6.066  14.398  0.4270 -0.5290 -0.0639
 1317TIP3    H125442   1.280   6.010  14.391  0.0815 -0.9910 -0.2165
 1317TIP3    H225443   1.148   6.023  14.463  0.0743 -0.4720 -0.3237
 1318TIP3   OH225444   5.759   1.052  13.357  0.0405  0.4206  0.6291
 1318TIP3    H125445   5.828   1.097  13.407 -1.6631  0.4109  3.1260
 1318TIP3    H225446   5.695   1.026  13.424 -1.8648 -0.4943 -1.4912
 1319TIP3   OH225447   0.327   3.504  13.247  0.2738  0.5065 -0.0019
 1319TIP3    H125448   0.293   3.449  13.318  1.3359 -1.7455 -1.1845
 1319TIP3    H225449   0.407   3.459  13.219  1.0991  2.6192 -1.0906
 1320TIP3   OH225450   1.486   2.149   1.864  0.3325  0.5231 -0.1721
 1320TIP3    H125451   1.552   2.088   1.832  1.4670  0.2553  2.5401
 1320TIP3    H225452   1.536   2.223   1.899 -0.8581  1.1964  0.1535
 1321TIP3   OH225453   0.921   4.450  16.908 -0.1825  0.6378 -0.3900
 1321TIP3    H125454   0.984   4.477  16.974 -1.5617  0.4420  1.0201
 1321TIP3    H225455   0.959   4.369  16.872  0.6885  0.8664 -0.0050
 1322TIP3   OH225456   5.650   3.069   3.198 -0.4613  0.2848 -0.6131
 1322TIP3    H125457   5.615   3.082   3.110 -0.2378 -1.1217 -0.9270
 1322TIP3    H225458   5.695   3.151   3.219 -0.4018  0.5754 -1.8653
 1323TIP3   OH225459   3.827   3.038  12.552  0.4136  0.2529 -0.4398
 1323TIP3    H125460   3.883   3.102  12.597  0.6329 -0.2980  0.0819
 1323TIP3    H225461   3.789   2.987  12.623 -0.5162  0.4265 -0.8111
 1324TIP3   OH225462   3.200   5.250  13.723  0.7548  0.4465  0.5423
 1324TIP3    H125463   3.280   5.284  13.763  2.3927 -2.4614 -0.1560
 1324TIP3    H225464   3.203   5.280  13.632  1.6922 -0.7060  0.1884
 1325TIP3   OH225465   2.600   0.059   2.294 -0.5057 -0.4251  0.0374
 1325TIP3    H125466   2.508   0.085   2.289 -0.2346  1.1037  2.1173
 1325TIP3    H225467   2.648   0.139   2.272  0.3431 -0.8043  0.5101
 1326TIP3   OH225468   2.625   2.046  12.632  0.2040  0.4179 -0.3710
 1326TIP3    H125469   2.640   1.997  12.712 -0.8276 -1.7041 -1.4212
 1326TIP3    H225470   2.709   2.085  12.611  0.8134 -0.1273  1.0170
 1327TIP3   OH225471   6.331   1.044   2.201  1.2071 -0.0749 -0.1810
 1327TIP3    H125472   6.340   1.049   2.106  0.0765  0.7705 -0.2544
 1327TIP3    H225473   6.281   1.122   2.224  0.0473 -1.1235  0.9214
 1328TIP3   OH225474   2.605   4.182  15.888  0.1898  0.1189  0.3735
 1328TIP3    H125475   2.645   4.228  15.814 -0.8064  0.5269  0.0739
 1328TIP3    H225476   2.583   4.252  15.950  0.2720 -0.1335  0.6851
 1329TIP3   OH225477   0.317   4.755  12.131  0.4960  0.3481  0.0658
 1329TIP3    H125478   0.372   4.690  12.088 -0.3921  0.3217 -1.0351
 1329TIP3    H225479   0.303   4.822  12.064 -2.8820 -0.8504 -0.4684
 1330TIP3   OH225480   2.017   5.958  12.387 -0.4388  0.0670  0.1693
 1330TIP3    H125481   1.979   5.946  12.474 -2.0147  2.7816 -0.0689
 1330TIP3    H225482   2.021   5.871  12.349 -1.7773 -0.8721  2.1398
 1331TIP3   OH225483   0.515   4.880   5.571 -0.5029  0.2801 -0.5708
 1331TIP3    H125484   0.475   4.962   5.599  0.7348  1.4252 -2.0678
 1331TIP3    H225485   0.557   4.846   5.650 -0.4250  1.4414 -0.0965
 1332TIP3   OH225486   3.973   6.097   0.529 -0.1881 -0.2034  0.0561
 1332TIP3    H125487   4.017   6.178   0.558  2.1142 -0.6262 -2.0419
 1332TIP3    H225488   3.948   6.053   0.610  0.2234  1.7061  1.2644
 1333TIP3   OH225489   3.550   6.484  15.460 -0.3769 -0.1405 -0.0346
 1333TIP3    H125490   3.472   6.446  15.420 -0.5092  0.9097 -0.7758
 1333TIP3    H225491   3.623   6.437  15.419 -0.5307  0.5808 -1.1365
 1334TIP3   OH225492   2.945   3.516   1.396  0.0973 -0.7691  0.6361
 1334TIP3    H125493   2.903   3.527   1.481  2.3494 -2.3345  2.0044
 1334TIP3    H225494   3.033   3.552   1.407 -0.3679  1.2746 -1.7979
 1335TIP3   OH225495   0.914   0.009  17.168  0.2077 -0.0760  0.6218
 1335TIP3    H125496   0.928   0.058  17.087  0.3596  1.1480  1.3792
 1335TIP3    H225497   0.869  -0.071  17.140 -0.0221  0.4770 -0.6263
 1336TIP3   OH225498   1.427   1.556  13.413  0.4590 -0.4207 -0.0375
 1336TIP3    H125499   1.500   1.599  13.367  0.0594 -0.4477 -0.7033
 1336TIP3    H225500   1.390   1.496  13.348 -1.4520  1.0758 -0.3705
 1337TIP3   OH225501   5.769   2.666  15.905  0.2812 -0.2156 -0.3350
 1337TIP3    H125502   5.822   2.704  15.835  1.3595 -0.1954  0.4679
 1337TIP3    H225503   5.804   2.577  15.915 -0.2490 -0.4111 -0.1978
 1338TIP3   OH225504   2.152   6.098  12.932 -0.1360 -0.3067 -0.1276
 1338TIP3    H125505   2.197   6.109  13.016 -0.7863 -2.2404  0.4951
 1338TIP3    H225506   2.155   6.004  12.916  0.7473  0.1335 -2.7138
 1339TIP3   OH225507   4.534   4.454  14.884  0.1759  0.1428  0.3739
 1339TIP3    H125508   4.600   4.430  14.819 -1.3793  2.0337 -1.9903
 1339TIP3    H225509   4.476   4.379  14.888  0.6603 -0.2498  0.0735
 1340TIP3   OH225510   2.570   1.786  16.131  0.4002 -0.0350 -0.4758
 1340TIP3    H125511   2.590   1.840  16.207  1.2263 -2.5232  1.1445
 1340TIP3    H225512   2.476   1.769  16.136 -0.4378  3.5671 -2.6201
 1341TIP3   OH225513   4.750   3.038   1.335  0.5245 -0.3872 -0.2514
 1341TIP3    H125514   4.839   3.004   1.346  0.9304  0.7386 -0.0136
 1341TIP3    H225515   4.723   3.064   1.423  1.4455  2.9009 -0.8781
 1342TIP3   OH225516   3.995   2.068   5.368  0.6674  0.2549  0.4848
 1342TIP3    H125517   4.018   2.152   5.408 -0.1680  0.9211 -0.4142
 1342TIP3    H225518   3.907   2.049   5.401  0.6184  0.0192  0.2163
 1343TIP3   OH225519   3.277   3.597   4.472 -0.6609 -0.5827 -0.2799
 1343TIP3    H125520   3.227   3.564   4.398 -1.3036 -1.3531  0.4975
 1343TIP3    H225521   3.218   3.589   4.547 -0.6856  1.8906  0.0129
 1344TIP3   OH225522   6.495   2.827  12.568  0.3284  0.9776 -0.4190
 1344TIP3    H125523   6.487   2.758  12.503  0.4200  0.4408  0.1312
 1344TIP3    H225524   6.429   2.891  12.543 -1.3905 -0.4205  0.4207
 1345TIP3   OH225525   0.239   5.746   1.898  0.1008 -0.4986  0.0799
 1345TIP3    H125526   0.327   5.767   1.867  0.5123 -0.7811  1.0191
 1345TIP3    H225527   0.223   5.657   1.866  0.3698 -0.6477  0.3624
 1346TIP3   OH225528   6.300   5.365   3.901  0.8290  0.0033 -0.4155
 1346TIP3    H125529   6.228   5.308   3.875 -1.1158  3.0076 -2.0082
 1346TIP3    H225530   6.316   5.420   3.824  0.6784  3.4374  1.8541
 1347TIP3   OH225531   3.070   4.005   3.356 -0.1541  0.1319  0.0056
 1347TIP3    H125532   3.148   4.061   3.359  0.2138 -0.4453  2.5549
 1347TIP3    H225533   3.105   3.917   3.342 -0.0171 -0.5384  3.8370
 1348TIP3   OH225534   6.105   0.761   5.503 -0.5863  0.1241 -0.3468
 1348TIP3    H125535   6.135   0.851   5.489  0.2127  0.1132  1.2441
 1348TIP3    H225536   6.179   0.707   5.478 -1.5959 -0.2089 -2.8509
 1349TIP3   OH225537   0.309   1.974   5.515 -0.1157  0.5229  0.9171
 1349TIP3    H125538   0.318   2.033   5.440  0.0430  2.2668  2.2629
 1349TIP3    H225539   0.381   1.911   5.505  1.5672  2.3693  1.0126
 1350TIP3   OH225540   6.157   5.256  11.471  0.0477  0.2065 -0.0255
 1350TIP3    H125541   6.198   5.342  11.477 -0.4133  0.2907  3.1609
 1350TIP3    H225542   6.102   5.250  11.549 -1.6905 -2.0995 -1.3530
 1351TIP3   OH225543   2.994   6.528   3.563  0.0887  0.4531 -0.1587
 1351TIP3    H125544   2.948   6.485   3.491 -1.1021 -0.0189  0.8461
 1351TIP3    H225545   2.945   6.609   3.577 -2.6786 -1.6142  3.1409
 1352TIP3   OH225546   3.266   1.799   5.251  0.2185 -0.4119  0.4428
 1352TIP3    H125547   3.341   1.742   5.266 -1.0420 -2.5298 -1.0091
 1352TIP3    H225548   3.285   1.841   5.167  0.0235 -0.5057  0.3530
 1353TIP3   OH225549   5.863   0.852   5.313  0.1261  0.0976 -0.1450
 1353TIP3    H125550   5.873   0.820   5.403 -1.2228 -1.2088 -0.4225
 1353TIP3    H225551   5.921   0.797   5.261 -0.4974 -0.4161 -0.3119
 1354TIP3   OH225552   0.445   5.523  16.975 -0.5028  0.1925 -0.2327
 1354TIP3    H125553   0.448   5.550  16.884  0.9221  1.7714  0.2592
 1354TIP3    H225554   0.523   5.467  16.986  0.4329  1.6055  0.4823
 1355TIP3   OH225555   3.901   0.271  16.962 -0.5760  0.2514 -0.3597
 1355TIP3    H125556   3.847   0.340  16.925 -0.6291  0.3707 -0.0631
 1355TIP3    H225557   3.945   0.231  16.887  1.6297  2.4387 -0.3008
 1356TIP3   OH225558   2.698   1.393  14.322  0.4565  0.3905  0.1464
 1356TIP3    H125559   2.712   1.298  14.316  1.2241  0.5689 -0.9667
 1356TIP3    H225560   2.635   1.403  14.394  1.5235 -0.8616  1.2977
 1357TIP3   OH225561   1.089   5.967  12.590 -0.6412  0.2971  0.4417
 1357TIP3    H125562   1.081   5.877  12.622 -2.8816 -0.8828 -3.1277
 1357TIP3    H225563   1.183   5.979  12.579 -0.2984 -1.5927  1.0247
 1358TIP3   OH225564   0.896   0.003   0.158  0.2738  0.3751 -0.0234
 1358TIP3    H125565   0.932   0.012   0.070  0.0630 -0.7255 -0.2256
 1358TIP3    H225566   0.829  -0.064   0.150  1.0737 -0.5996  1.2196
 1359TIP3   OH225567   2.190   5.553  12.447 -0.7195 -0.2622 -0.3572
 1359TIP3    H125568   2.122   5.570  12.512  1.1983  1.0286  1.4113
 1359TIP3    H225569   2.211   5.639  12.411 -1.8808 -0.9917 -2.8704
 1360TIP3   OH225570   3.048   5.358  14.130  0.8725  0.2788  0.4920
 1360TIP3    H125571   3.081   5.270  14.150  0.0279 -0.4714 -1.2371
 1360TIP3    H225572   3.074   5.411  14.205  1.2986 -1.4746  1.6321
 1361TIP3   OH225573   3.228   0.949  13.857 -0.5908 -0.0028  0.5477
 1361TIP3    H125574   3.171   0.900  13.916 -1.6795  0.1839 -0.3538
 1361TIP3    H225575   3.258   0.884  13.794 -2.2640  0.5341 -0.8211
 1362TIP3   OH225576   0.739   1.651  14.410 -0.0967 -0.7929 -0.2056
 1362TIP3    H125577   0.645   1.664  14.397 -0.0938 -0.9368 -0.3624
 1362TIP3    H225578   0.780   1.710  14.347 -0.0826 -1.2070 -0.5880
 1363TIP3   OH225579   1.579   5.330  17.035 -0.0395 -0.3342  0.0563
 1363TIP3    H125580   1.583   5.345  16.941 -0.6563  1.7299  0.3263
 1363TIP3    H225581   1.486   5.320  17.054  0.0459 -0.3367  0.4938
 1364TIP3   OH225582   1.359   5.028  16.106  0.5396  0.2633  0.1746
 1364TIP3    H125583   1.390   4.969  16.038  0.1986 -1.0861  1.1798
 1364TIP3    H225584   1.271   5.054  16.077  0.9332  0.7757 -0.5733
 1365TIP3   OH225585   0.926   4.871  13.785  0.2292  0.1873  0.2120
 1365TIP3    H125586   0.984   4.887  13.859  1.9303  2.6345 -1.5618
 1365TIP3    H225587   0.846   4.918  13.806  2.0588  4.1053 -1.0665
 1366TIP3   OH225588   0.825   6.710  15.640  0.1628  0.1906 -0.1483
 1366TIP3    H125589   0.774   6.777  15.685  0.4723 -0.3772  1.0730
 1366TIP3    H225590   0.902   6.696  15.695 -0.8775 -2.5850  0.7272
 1367TIP3   OH225591   3.832   5.599  11.330  0.2183  0.3068 -0.0898
 1367TIP3    H125592   3.794   5.685  11.315 -0.5943  0.5011  2.7778
 1367TIP3    H225593   3.924   5.607  11.303  0.5833  2.5524  1.7583
 1368TIP3   OH225594   2.710   2.894   3.913  0.5061  0.3127 -0.9681
 1368TIP3    H125595   2.709   2.817   3.969 -2.3326  0.6125 -0.5304
 1368TIP3    H225596   2.722   2.968   3.973 -1.2746  0.5285 -0.8321
 1369TIP3   OH225597   6.737   4.466   2.680 -0.4047 -0.1660  0.1063
 1369TIP3    H125598   6.673   4.422   2.625 -1.4997  0.3313  0.9775
 1369TIP3    H225599   6.798   4.397   2.706 -1.1821 -0.8465  0.1399
 1370TIP3   OH225600   2.414   5.848  14.649  0.2970  0.5507 -0.1319
 1370TIP3    H125601   2.445   5.798  14.725  0.4286 -0.0223 -0.5567
 1370TIP3    H225602   2.353   5.912  14.685  0.4380  0.3472  0.4700
 1371TIP3   OH225603   4.220   3.403  14.743 -0.6703  0.1643 -0.9384
 1371TIP3    H125604   4.135   3.366  14.721  0.1745 -2.6911  0.4234
 1371TIP3    H225605   4.279   3.369  14.676 -0.3617  1.2147 -1.2133
 1372TIP3   OH225606   2.707   5.491   2.824 -0.0107 -0.0655  0.4631
 1372TIP3    H125607   2.727   5.550   2.751  0.2063 -0.5189  0.1534
 1372TIP3    H225608   2.618   5.460   2.805  0.4889 -1.1293 -0.2719
 1373TIP3   OH225609   2.585   6.092  14.469 -0.2453  0.5095 -0.2982
 1373TIP3    H125610   2.649   6.023  14.484 -0.8892 -0.1760 -0.6318
 1373TIP3    H225611   2.505   6.061  14.513 -0.5732  0.9872 -0.5482
 1374TIP3   OH225612   3.896   0.185   3.813 -0.4457 -0.1683 -0.6810
 1374TIP3    H125613   3.810   0.162   3.848  0.0752  0.6677  1.1671
 1374TIP3    H225614   3.889   0.279   3.793  0.1259 -0.0348 -0.2553
 1375TIP3   OH225615   6.546   0.594   2.296 -0.8548 -0.3657  0.6127
 1375TIP3    H125616   6.619   0.655   2.299 -1.4277  0.3858 -0.6828
 1375TIP3    H225617   6.496   0.613   2.375 -1.4432  1.3543 -0.1642
 1376TIP3   OH225618   3.506   6.803   5.958 -0.4382 -0.0058 -0.5415
 1376TIP3    H125619   3.480   6.876   5.901  2.7467  0.8332 -1.0027
 1376TIP3    H225620   3.561   6.843   6.025  0.1792 -1.7857  0.0363
 1377TIP3   OH225621   2.388   1.390  15.501 -0.5777 -0.6298 -0.9334
 1377TIP3    H125622   2.374   1.439  15.582 -0.3866  1.6268 -2.2163
 1377TIP3    H225623   2.374   1.298  15.526  0.2758 -0.0780  1.8133
 1378TIP3   OH225624   0.053   1.180  12.980  0.1871  0.0332  0.3106
 1378TIP3    H125625   0.009   1.124  13.043  1.8970  1.2952  2.6942
 1378TIP3    H225626   0.146   1.171  12.999  0.8868 -0.7817 -3.0979
 1379TIP3   OH225627   1.603   2.869   5.764 -0.3430 -0.2612  0.1478
 1379TIP3    H125628   1.648   2.945   5.728 -4.4012  2.2166 -0.0089
 1379TIP3    H225629   1.622   2.799   5.703  2.2813  0.9603 -0.5091
 1380TIP3   OH225630   3.857   5.713  16.658 -0.7301  0.2321  0.3133
 1380TIP3    H125631   3.924   5.728  16.725 -1.3796 -0.3835  1.1056
 1380TIP3    H225632   3.857   5.618  16.645 -1.5297  0.2202  0.3978
 1381TIP3   OH225633   1.215   3.224  15.411 -0.5309 -0.4596 -0.2140
 1381TIP3    H125634   1.140   3.253  15.358 -0.3017  1.3221  0.3928
 1381TIP3    H225635   1.291   3.249  15.359 -0.2887  1.8269  1.1651
 1382TIP3   OH225636   2.561   2.074  15.196 -0.0666  0.4383 -0.1114
 1382TIP3    H125637   2.492   2.125  15.239  0.5929  1.7113 -0.5351
 1382TIP3    H225638   2.585   2.127  15.120  0.6113 -0.5341 -0.5691
 1383TIP3   OH225639   5.318   3.412   3.725 -0.2536  0.0453 -0.3616
 1383TIP3    H125640   5.290   3.446   3.639  2.0656 -1.3640 -1.7212
 1383TIP3    H225641   5.349   3.490   3.772  0.5053  0.5465 -1.6357
 1384TIP3   OH225642   1.461   5.750  11.748 -0.3454 -0.1542  0.4314
 1384TIP3    H125643   1.557   5.752  11.748 -0.3676  1.5260 -0.7255
 1384TIP3    H225644   1.435   5.817  11.811 -0.7578  0.8453 -0.7735
 1385TIP3   OH225645   3.753   0.818  14.034  0.1193  0.1028 -0.0255
 1385TIP3    H125646   3.729   0.764  13.959  0.1885  1.1397 -0.8100
 1385TIP3    H225647   3.693   0.790  14.103  0.3381 -1.1566 -0.3351
 1386TIP3   OH225648   1.298   2.372  15.268  0.4667 -0.3191  0.0295
 1386TIP3    H125649   1.343   2.374  15.184  0.0361 -1.4184 -0.2264
 1386TIP3    H225650   1.300   2.280  15.294  0.1899 -0.0553  1.0041
 1387TIP3   OH225651   4.725   4.768  12.591  0.6790  0.0815 -0.2540
 1387TIP3    H125652   4.727   4.680  12.630  0.0081  0.4222  0.5516
 1387TIP3    H225653   4.816   4.783  12.564  0.7659 -0.9308 -0.5714
 1388TIP3   OH225654   4.947   3.144   3.678  0.1817 -0.4958  0.1084
 1388TIP3    H125655   4.890   3.164   3.752  1.1907 -2.3648  1.4687
 1388TIP3    H225656   4.936   3.217   3.618 -2.2540  0.0482  1.1542
 1389TIP3   OH225657   5.424   3.532  12.191  0.0878  0.4315  0.6919
 1389TIP3    H125658   5.452   3.442  12.204  0.5508  0.2485 -1.3960
 1389TIP3    H225659   5.454   3.554  12.103 -2.7957  1.5743 -0.0534
 1390TIP3   OH225660   6.236   4.127   0.186  0.2742  0.2730 -0.0304
 1390TIP3    H125661   6.308   4.067   0.207  0.4858  0.6190  0.2458
 1390TIP3    H225662   6.157   4.078   0.204  0.4466 -0.0319 -0.1072
 1391TIP3   OH225663   1.742   4.110  16.043  0.0784 -0.8023 -0.4791
 1391TIP3    H125664   1.719   4.018  16.030  0.7117 -1.0759  0.2437
 1391TIP3    H225665   1.825   4.120  15.995 -0.1835 -0.5139 -0.8686
 1392TIP3   OH225666   3.366   1.329  12.988 -0.2545  0.0847 -0.3153
 1392TIP3    H125667   3.286   1.308  13.035 -0.2963 -1.3229 -0.9964
 1392TIP3    H225668   3.432   1.340  13.057 -0.4110 -1.5312  0.1049
 1393TIP3   OH225669   5.942   4.913  11.443  0.4183 -0.1111  0.7880
 1393TIP3    H125670   6.016   4.967  11.471 -0.3245  1.3897 -0.0974
 1393TIP3    H225671   5.967   4.880  11.357 -0.9129  2.3320 -0.5647
 1394TIP3   OH225672   6.341   1.595   5.381  0.3263  0.0568 -0.4553
 1394TIP3    H125673   6.267   1.624   5.327  0.2253  0.5257 -0.0651
 1394TIP3    H225674   6.383   1.526   5.329 -0.5451 -0.4026 -0.5518
 1395TIP3   OH225675   4.896   1.451   1.860 -0.0856 -0.5259  0.7772
 1395TIP3    H125676   4.982   1.408   1.862 -1.2547 -2.9359  0.8618
 1395TIP3    H225677   4.860   1.439   1.948 -0.6431  0.2414  0.6658
 1396TIP3   OH225678   5.095   6.023  13.632 -0.1111  0.4510 -0.2587
 1396TIP3    H125679   5.025   5.961  13.652  0.1807  0.1405 -0.1929
 1396TIP3    H225680   5.087   6.091  13.699 -1.0854  1.0380 -0.9529
 1397TIP3   OH225681   2.268   1.681   2.430 -0.4393 -0.1317  0.0188
 1397TIP3    H125682   2.248   1.620   2.359  2.2707 -0.0627 -0.8440
 1397TIP3    H225683   2.267   1.767   2.389 -0.7312  0.0966  0.4952
 1398TIP3   OH225684   0.082   5.801  17.023  0.3532 -0.1284  0.0655
 1398TIP3    H125685   0.012   5.738  17.006 -0.7465  0.7565  1.2260
 1398TIP3    H225686   0.155   5.772  16.968 -1.5363 -0.0016 -2.5887
 1399TIP3   OH225687   5.840   6.061  14.512 -0.0823  0.5412  0.5422
 1399TIP3    H125688   5.815   6.002  14.440  0.1941  2.0844 -0.8636
 1399TIP3    H225689   5.824   6.010  14.591 -1.4327 -0.8359 -0.5712
 1400TIP3   OH225690   5.370   1.662  15.870  0.2126 -0.2576  0.2969
 1400TIP3    H125691   5.291   1.648  15.819  0.1820 -3.0735  1.0170
 1400TIP3    H225692   5.339   1.699  15.952 -0.3157 -0.7279  0.3177
 1401TIP3   OH225693   4.685   1.306  13.824 -0.9012 -0.3761  0.3020
 1401TIP3    H125694   4.686   1.376  13.889 -1.2069 -0.1090  0.0200
 1401TIP3    H225695   4.777   1.279  13.816 -0.5918  0.8923 -0.5601
 1402TIP3   OH225696   1.218   0.099   5.460  0.9743  0.0956  0.4577
 1402TIP3    H125697   1.225   0.003   5.457 -0.9526 -0.0162 -1.9371
 1402TIP3    H225698   1.125   0.115   5.476  1.2014  1.5862  0.2879
 1403TIP3   OH225699   6.289   6.682   5.751 -0.4504 -0.4173  0.6255
 1403TIP3    H125700   6.363   6.719   5.703 -2.5639  1.3609 -1.3743
 1403TIP3    H225701   6.319   6.595   5.777  0.5885 -1.8039 -4.5513
 1404TIP3   OH225702   1.645   3.195  11.707  0.1628  0.3957  0.1480
 1404TIP3    H125703   1.736   3.187  11.737  0.4630 -1.6337 -1.1911
 1404TIP3    H225704   1.633   3.288  11.693  1.1406  1.0024  3.0415
 1405TIP3   OH225705   1.954   4.329   2.299  0.4212 -0.1193 -0.2545
 1405TIP3    H125706   1.929   4.417   2.271 -0.8165 -0.0634  1.0186
 1405TIP3    H225707   1.933   4.326   2.392  3.7788 -0.5542  0.5812
 1406TIP3   OH225708   1.848   3.444  15.350 -0.2150 -0.4860 -0.5239
 1406TIP3    H125709   1.787   3.517  15.359 -0.4548 -0.8393  0.7587
 1406TIP3    H225710   1.932   3.479  15.381 -0.0224 -0.3502 -1.1909
 1407TIP3   OH225711   4.910   4.776  16.958 -0.3019 -0.2608 -0.1660
 1407TIP3    H125712   4.880   4.799  17.046 -0.4382  2.7064 -0.9414
 1407TIP3    H225713   5.004   4.790  16.960 -0.5696  1.7443 -1.0424
 1408TIP3   OH225714   6.756   6.753   2.850 -0.0752 -0.1244 -0.2293
 1408TIP3    H125715   6.764   6.846   2.873 -0.2852 -0.5479  1.6012
 1408TIP3    H225716   6.834   6.735   2.796  0.6490  0.7939  0.5001
 1409TIP3   OH225717   4.436   3.354  13.122 -0.7986  0.1400 -0.0629
 1409TIP3    H125718   4.504   3.411  13.157  0.0405 -0.5603 -0.5224
 1409TIP3    H225719   4.354   3.393  13.152 -0.1785  0.6797  0.9658
 1410TIP3   OH225720   6.694   6.233  16.763 -0.1256  0.1815  0.1543
 1410TIP3    H125721   6.634   6.280  16.821 -0.7170 -1.1501  0.6394
 1410TIP3    H225722   6.742   6.173  16.820  0.1458 -0.2849 -0.5484
 1411TIP3   OH225723   6.594   6.343   2.184 -0.2148 -0.0746  0.1556
 1411TIP3    H125724   6.549   6.398   2.120 -0.1839 -0.4449 -0.1877
 1411TIP3    H225725   6.589   6.255   2.147  0.0266 -0.2498  0.5415
 1412TIP3   OH225726   2.834   1.309  12.260  0.5871 -0.0001  0.2718
 1412TIP3    H125727   2.771   1.362  12.210 -0.0089 -0.9140  0.0473
 1412TIP3    H225728   2.886   1.265  12.193  1.4705  0.7387  0.4581
 1413TIP3   OH225729   1.717   1.577   4.886 -0.3806  0.0132 -0.0887
 1413TIP3    H125730   1.678   1.664   4.898  1.9972  1.0185  0.7347
 1413TIP3    H225731   1.699   1.531   4.968  0.2500  0.5230  0.3425
 1414TIP3   OH225732   3.370   2.367   6.490  0.6880 -0.0286 -0.1499
 1414TIP3    H125733   3.415   2.442   6.452 -1.1189  0.4866 -1.3570
 1414TIP3    H225734   3.430   2.333   6.556  2.2979  1.3565 -0.8787
 1415TIP3   OH225735   5.906   1.074  11.703  0.5552 -1.0090 -0.3602
 1415TIP3    H125736   5.857   1.143  11.659  0.7372 -0.7333 -0.1292
 1415TIP3    H225737   5.842   1.005  11.720  0.3456 -0.8358 -0.4594
 1416TIP3   OH225738   6.511   6.661   4.251  0.1084 -0.3384  0.5888
 1416TIP3    H125739   6.537   6.741   4.206  3.0969 -1.6992 -0.1904
 1416TIP3    H225740   6.440   6.625   4.196  0.5780  0.3830 -0.5078
 1417TIP3   OH225741   4.579   6.167   3.666  0.0877 -0.0060 -0.1041
 1417TIP3    H125742   4.591   6.072   3.662  1.2150  0.1324 -0.1314
 1417TIP3    H225743   4.528   6.188   3.588 -0.1548 -0.5854 -0.1061
 1418TIP3   OH225744   4.995   0.980   2.648 -0.6444  0.4723 -0.0012
 1418TIP3    H125745   4.936   1.055   2.651 -1.1631  0.0264  1.6582
 1418TIP3    H225746   4.946   0.909   2.689  1.3637  0.3407  2.3024
 1419TIP3   OH225747   0.934   6.788   2.141  0.5686 -0.2263 -0.4985
 1419TIP3    H125748   0.984   6.848   2.197  0.7038 -1.8237  1.1552
 1419TIP3    H225749   0.886   6.732   2.203  0.4132 -1.7834 -1.9786
 1420TIP3   OH225750   3.155   3.302  12.789 -0.4894 -0.4052  0.2664
 1420TIP3    H125751   3.229   3.326  12.844 -0.5692 -2.3342  1.2748
 1420TIP3    H225752   3.078   3.333  12.837 -0.4288  0.2093 -0.0262
 1421TIP3   OH225753   5.804   0.027  12.368 -0.0943  0.3540  0.1334
 1421TIP3    H125754   5.820   0.029  12.463  0.9967  1.3541 -0.0591
 1421TIP3    H225755   5.766   0.112  12.348 -1.0938 -0.1666 -0.2116
 1422TIP3   OH225756   4.388   2.977   3.531  0.2709  0.1176 -0.1254
 1422TIP3    H125757   4.451   2.919   3.489 -1.0666  0.0482 -2.1321
 1422TIP3    H225758   4.306   2.926   3.533 -0.4952  1.3173 -0.3968
 1423TIP3   OH225759   5.721   3.846   0.206  0.6529  0.0712  0.2382
 1423TIP3    H125760   5.762   3.924   0.243 -0.0867  1.4725 -1.8241
 1423TIP3    H225761   5.675   3.877   0.128  0.4382 -2.4553 -0.6931
 1424TIP3   OH225762   6.456   6.765  11.396 -0.1587  0.2916 -0.3062
 1424TIP3    H125763   6.489   6.722  11.317  1.3107 -0.5418  0.7250
 1424TIP3    H225764   6.371   6.723  11.412  0.0921 -0.4046 -0.7612
 1425TIP3   OH225765   3.062   1.427   4.715 -0.2163 -0.1729 -0.1570
 1425TIP3    H125766   3.104   1.441   4.799 -1.2388 -0.3184  0.3878
 1425TIP3    H225767   3.127   1.379   4.663  0.5336  0.2017  0.4362
 1426TIP3   OH225768   1.579   5.457  11.700  0.4608 -0.6439 -0.1381
 1426TIP3    H125769   1.537   5.469  11.785  1.0627 -0.3158  0.1206
 1426TIP3    H225770   1.638   5.382  11.711  1.2270 -0.0283  0.0089
 1427TIP3   OH225771   5.031   4.986  12.287 -0.3128 -0.3909 -0.1243
 1427TIP3    H125772   5.112   5.026  12.318 -0.1121 -1.1350  0.3169
 1427TIP3    H225773   4.966   5.056  12.292  0.3141  0.2239 -0.5334
 1428TIP3   OH225774   0.133   6.014  15.882 -0.3365 -0.4510  0.1794
 1428TIP3    H125775   0.109   5.925  15.858 -2.0956  0.0735 -0.1048
 1428TIP3    H225776   0.049   6.059  15.894  0.5248  1.1800  0.2469
 1429TIP3   OH225777   1.330   4.939   5.081 -0.0682  0.0211  0.1325
 1429TIP3    H125778   1.394   4.979   5.023  0.0783  0.6689  0.7299
 1429TIP3    H225779   1.259   4.912   5.023  0.6466 -0.5080 -0.5006
 1430TIP3   OH225780   6.187   0.748   3.773 -0.1273  0.3500 -0.1073
 1430TIP3    H125781   6.137   0.677   3.812  0.2171 -0.7393 -1.5995
 1430TIP3    H225782   6.231   0.708   3.698 -0.5255  2.3021 -1.4217
 1431TIP3   OH225783   3.707   0.953  13.069 -0.1799 -0.4547 -0.3243
 1431TIP3    H125784   3.650   0.883  13.038  0.3572 -0.4635 -1.3296
 1431TIP3    H225785   3.679   1.030  13.019 -1.3277  0.2628  1.3735
 1432TIP3   OH225786   5.281   1.553   3.260 -0.1444  0.3465  0.5332
 1432TIP3    H125787   5.291   1.621   3.327  0.8816  1.5728 -0.8483
 1432TIP3    H225788   5.272   1.601   3.178 -0.9477 -1.1567 -0.2776
 1433TIP3   OH225789   5.695   0.879   6.126 -0.5439 -0.5277  0.4702
 1433TIP3    H125790   5.776   0.828   6.119 -1.2212 -1.6296  0.4545
 1433TIP3    H225791   5.709   0.954   6.069  0.5280 -0.6330  0.5869
 1434TIP3   OH225792   5.975   6.408   4.180  0.0383  0.4307  0.7004
 1434TIP3    H125793   5.979   6.410   4.085 -1.4582 -1.3949  0.5763
 1434TIP3    H225794   5.883   6.424   4.201  0.4082  1.1265  1.8588
 1435TIP3   OH225795   6.323   4.577   0.549  0.5204 -0.0148 -0.5526
 1435TIP3    H125796   6.351   4.627   0.472  1.7703 -1.3754 -1.0097
 1435TIP3    H225797   6.395   4.516   0.565 -0.4754 -0.8889  0.6810
 1436TIP3   OH225798   1.152   4.397   0.645 -0.0051 -0.0819 -0.0033
 1436TIP3    H125799   1.069   4.389   0.598 -0.5814  0.5619  0.8736
 1436TIP3    H225800   1.219   4.380   0.579 -0.7648  1.6073 -1.2490
 1437TIP3   OH225801   4.026   1.014  14.981  0.3185 -0.0458  0.4357
 1437TIP3    H125802   4.024   0.988  15.073  0.0029 -0.2712  0.3651
 1437TIP3    H225803   4.084   1.090  14.979  1.1780 -0.6889  0.6516
 1438TIP3   OH225804   2.085   5.112  11.533  0.8203  0.1014  0.8753
 1438TIP3    H125805   2.005   5.137  11.580  1.4912 -0.1403  2.1725
 1438TIP3    H225806   2.072   5.146  11.445 -1.1738 -0.8588  0.7675
 1439TIP3   OH225807   4.291   3.109   0.963 -0.0664  0.1989  0.0368
 1439TIP3    H125808   4.257   3.168   1.031 -0.1719  0.9834 -0.6800
 1439TIP3    H225809   4.386   3.114   0.973 -0.0197  1.6897 -0.9957
 1440TIP3   OH225810   1.695   1.653   3.116  0.4239 -0.1558 -0.4280
 1440TIP3    H125811   1.764   1.614   3.062  1.4558 -2.6094  2.5012
 1440TIP3    H225812   1.621   1.593   3.108 -0.0442  0.4258 -0.5212
 1441TIP3   OH225813   3.113   1.196  15.853 -0.0210  0.2310 -0.4147
 1441TIP3    H125814   3.048   1.261  15.877 -0.8585 -0.3659 -1.0259
 1441TIP3    H225815   3.150   1.166  15.936 -2.4569 -1.4001  0.1214
 1442TIP3   OH225816   2.124   1.438  16.883 -0.4313  0.2198  0.1317
 1442TIP3    H125817   2.064   1.363  16.892  1.8733 -1.7869 -0.6106
 1442TIP3    H225818   2.075   1.512  16.918 -2.9776 -1.5380  0.4577
 1443TIP3   OH225819   5.844   2.777   5.482 -0.2507 -0.4091  0.1909
 1443TIP3    H125820   5.816   2.756   5.571 -0.7924  0.4771  0.2364
 1443TIP3    H225821   5.926   2.728   5.470 -0.4511 -0.9425  0.9864
 1444TIP3   OH225822   1.650   2.511  15.413 -0.7216 -0.1663  0.1827
 1444TIP3    H125823   1.709   2.532  15.486 -0.1763 -0.1960 -0.2436
 1444TIP3    H225824   1.564   2.542  15.442 -0.3648  0.5135  0.5295
 1445TIP3   OH225825   6.201   6.056   5.845 -0.2531 -0.4098  0.4082
 1445TIP3    H125826   6.285   6.101   5.838 -0.0111 -0.9547 -0.2537
 1445TIP3    H225827   6.181   6.057   5.938  1.6395 -2.3413  0.8890
 1446TIP3   OH225828   6.726   0.211  16.793  0.2570  0.4649 -0.6270
 1446TIP3    H125829   6.775   0.218  16.875  0.8658 -0.1325 -0.9370
 1446TIP3    H225830   6.739   0.121  16.764 -1.4191  0.1554 -0.4698
 1447TIP3   OH225831   2.631   6.171   5.563  0.1754  0.0425 -0.0582
 1447TIP3    H125832   2.666   6.127   5.640  0.6147  0.0523 -0.2486
 1447TIP3    H225833   2.559   6.224   5.596 -1.0971 -1.6891  0.0051
 1448TIP3   OH225834   3.072   3.440  15.022  0.1306 -0.2223 -0.0114
 1448TIP3    H125835   2.988   3.430  15.067  0.5042 -2.3356  0.2736
 1448TIP3    H225836   3.103   3.351  15.009  1.8920  0.5016 -0.9773
 1449TIP3   OH225837   6.058   1.705   1.059  0.1008 -0.3287 -0.3993
 1449TIP3    H125838   5.965   1.727   1.066  0.7590  2.1877  1.1590
 1449TIP3    H225839   6.078   1.711   0.966 -0.8235  1.3540 -0.5095
 1450TIP3   OH225840   3.237   4.458  14.629  0.5396 -0.9658 -0.1396
 1450TIP3    H125841   3.323   4.417  14.614  0.6527 -0.6124 -0.4631
 1450TIP3    H225842   3.178   4.414  14.568  0.7789 -0.2608 -0.8901
 1451TIP3   OH225843   0.478   2.959   4.953  0.4733  0.1721  0.0298
 1451TIP3    H125844   0.428   2.963   5.034  0.9635 -0.9757  0.3966
 1451TIP3    H225845   0.418   2.917   4.890 -0.2103  1.8130 -0.4534
 1452TIP3   OH225846   4.276   4.646  11.412  0.1924  0.1915  0.4884
 1452TIP3    H125847   4.200   4.614  11.462 -0.1540 -1.7734 -1.2353
 1452TIP3    H225848   4.238   4.687  11.335  0.7590  2.5894  1.4680
 1453TIP3   OH225849   1.020   0.470   2.381 -0.3898 -0.5471  1.0532
 1453TIP3    H125850   0.949   0.462   2.445 -1.6598  1.0443 -0.1106
 1453TIP3    H225851   1.079   0.535   2.421 -1.1112  0.3432  0.7016
 1454TIP3   OH225852   4.230   6.594   3.990  0.0107 -0.4679  0.1052
 1454TIP3    H125853   4.323   6.596   4.014 -0.2425 -0.5999  1.1402
 1454TIP3    H225854   4.199   6.684   4.006 -0.6484 -1.0553  2.3390
 1455TIP3   OH225855   1.923   6.105  14.807 -0.4842 -0.1348 -0.0215
 1455TIP3    H125856   1.863   6.174  14.779 -0.5484 -1.2266 -2.7522
 1455TIP3    H225857   1.868   6.040  14.849 -0.4859  1.2192  2.1385
 1456TIP3   OH225858   4.619   4.175  10.659  0.0907 -0.2046 -0.2627
 1456TIP3    H125859   4.604   4.084  10.631 -0.9084  0.0107 -0.4329
 1456TIP3    H225860   4.597   4.227  10.583  1.3419  0.1562 -0.3917
 1457TIP3   OH225861   3.134   1.275  15.220  0.3942  0.4532 -0.0112
 1457TIP3    H125862   3.040   1.294  15.216  0.1137 -0.4945  1.5393
 1457TIP3    H225863   3.171   1.320  15.144 -1.7202 -1.4910 -2.2861
 1458TIP3   OH225864   3.996   1.279   2.704  0.1558  0.0031  0.0294
 1458TIP3    H125865   4.048   1.328   2.641 -0.3947  0.9328  0.2878
 1458TIP3    H225866   3.952   1.212   2.652 -0.0546  0.5709 -0.5311
 1459TIP3   OH225867   4.426   6.004  12.772 -0.2397  0.0828 -0.0647
 1459TIP3    H125868   4.376   6.026  12.694 -0.7439 -1.5295 -0.2130
 1459TIP3    H225869   4.409   6.076  12.832 -0.6239  0.8570 -1.0855
 1460TIP3   OH225870   2.288   6.278  12.761 -0.1300  0.0037  0.2118
 1460TIP3    H125871   2.371   6.244  12.728  0.5721  1.3662  0.5096
 1460TIP3    H225872   2.247   6.204  12.806  2.1203 -0.0204  2.3092
 1461TIP3   OH225873   2.329   0.253  16.011 -0.4436  0.7592  0.6773
 1461TIP3    H125874   2.309   0.162  16.030 -0.1410  0.8700  1.5869
 1461TIP3    H225875   2.248   0.300  16.032 -0.0952  0.8873  1.7945
 1462TIP3   OH225876   4.834   0.246   4.612 -0.0784  0.0941  0.4930
 1462TIP3    H125877   4.788   0.163   4.596  0.3149 -0.6270  2.8643
 1462TIP3    H225878   4.924   0.220   4.631 -0.1324  0.9765  2.0257
 1463TIP3   OH225879   6.153   5.870   4.037 -0.4256 -0.0421  0.2013
 1463TIP3    H125880   6.198   5.945   4.076  1.6384 -1.1943  0.1243
 1463TIP3    H225881   6.157   5.802   4.104  0.6308 -1.1182 -0.9163
 1464TIP3   OH225882   5.173   5.294  12.575  0.1163  0.0925  0.3159
 1464TIP3    H125883   5.165   5.347  12.496  1.2839  0.7623  0.6258
 1464TIP3    H225884   5.234   5.342  12.631  2.1851 -2.1546  0.0960
 1465TIP3   OH225885   3.663   5.901  17.210 -0.0558 -0.5541 -0.4667
 1465TIP3    H125886   3.606   5.978  17.210  0.6293 -0.0228  0.7577
 1465TIP3    H225887   3.710   5.905  17.127  2.3823  2.1985  0.9418
 1466TIP3   OH225888   6.286   2.396  15.378  0.6802 -0.4219  0.4488
 1466TIP3    H125889   6.360   2.427  15.325  0.3529  0.6207  0.5915
 1466TIP3    H225890   6.305   2.428  15.466  0.7221 -1.2995  0.7662
 1467TIP3   OH225891   2.723   6.391   1.881  0.4937 -0.1233  0.0890
 1467TIP3    H125892   2.682   6.476   1.898  0.1705  0.0218 -1.3968
 1467TIP3    H225893   2.796   6.411   1.823  0.4858 -0.8579 -0.1715
 1468TIP3   OH225894   5.272   4.346  15.061  0.1419  0.6107  0.1536
 1468TIP3    H125895   5.279   4.441  15.061  2.1444  0.4824  0.1367
 1468TIP3    H225896   5.344   4.316  15.118  1.2812 -0.9742 -2.0295
 1469TIP3   OH225897   0.799   2.555   1.309 -0.0930 -0.3045 -0.3261
 1469TIP3    H125898   0.866   2.530   1.245 -0.3859  1.6008 -1.3968
 1469TIP3    H225899   0.727   2.590   1.257 -0.8398  0.1481  0.9825
 1470TIP3   OH225900   3.889   1.967  12.841 -0.4236 -0.0794  0.1442
 1470TIP3    H125901   3.835   2.044  12.825  1.6755  1.3797 -0.1409
 1470TIP3    H225902   3.929   1.947  12.757 -0.0547 -0.7870  0.4774
 1471TIP3   OH225903   6.659   1.922   5.800  0.2904 -0.1988 -0.3544
 1471TIP3    H125904   6.640   1.879   5.883 -1.0770  1.2625  0.1134
 1471TIP3    H225905   6.706   1.856   5.749 -0.7480 -1.8369  0.7672
 1472TIP3   OH225906   6.043   4.632   5.871 -0.6512 -0.8776  0.1684
 1472TIP3    H125907   6.125   4.588   5.847 -1.5665 -2.4111 -0.1782
 1472TIP3    H225908   5.976   4.564   5.864 -2.1287  0.6227 -0.5933
 1473TIP3   OH225909   4.061   6.520  11.331  0.3440  0.6039  0.0845
 1473TIP3    H125910   4.107   6.482  11.256  1.4034  1.2711  0.3768
 1473TIP3    H225911   3.969   6.513  11.309  0.5366 -1.5395 -0.1682
 1474TIP3   OH225912   4.343   0.140  15.701  0.2941 -0.2688  0.1894
 1474TIP3    H125913   4.359   0.123  15.608 -0.6049  0.4944 -0.1110
 1474TIP3    H225914   4.331   0.235  15.707  0.1766 -0.3328  1.0603
 1475TIP3   OH225915   3.039   1.424   0.284  0.0591  0.8116 -0.0348
 1475TIP3    H125916   3.010   1.386   0.202  2.7076  0.9368 -1.0858
 1475TIP3    H225917   2.981   1.387   0.350 -1.5448  0.0444 -1.8511
 1476TIP3   OH225918   3.014   3.979  13.315 -0.6375  0.1075 -0.7154
 1476TIP3    H125919   2.976   3.968  13.228 -0.1850  0.1156 -0.9147
 1476TIP3    H225920   2.987   4.067  13.342 -1.1752 -0.0768 -0.6504
 1477TIP3   OH225921   5.016   4.590  16.664  0.5961 -0.1705 -0.2920
 1477TIP3    H125922   5.052   4.558  16.581  2.3164 -1.2806  0.8550
 1477TIP3    H225923   5.000   4.511  16.715 -0.0784  0.5288  0.5987
 1478TIP3   OH225924   0.423   2.393  16.890  0.1493 -0.0568 -0.3152
 1478TIP3    H125925   0.392   2.479  16.860 -1.1296  0.1212  1.4448
 1478TIP3    H225926   0.345   2.338  16.890  0.1301 -0.0869  2.4652
 1479TIP3   OH225927   6.027   4.634   3.326  0.7330  0.1354 -0.9157
 1479TIP3    H125928   6.051   4.551   3.365 -0.7113  0.9985  1.9992
 1479TIP3    H225929   5.973   4.611   3.250 -0.1243 -1.5835  0.1976
 1480TIP3   OH225930   2.353   0.814   4.165 -0.6333 -0.1261  0.1370
 1480TIP3    H125931   2.382   0.831   4.255  0.0436 -1.5300  0.1973
 1480TIP3    H225932   2.376   0.893   4.117  2.3872 -0.7801  0.4286
 1481TIP3   OH225933   4.567   3.048   0.725 -0.2532 -0.4445  0.0135
 1481TIP3    H125934   4.480   3.062   0.686  0.9018  3.7231 -1.3330
 1481TIP3    H225935   4.617   3.003   0.656 -1.1883 -2.5952  0.6869
 1482TIP3   OH225936   3.609   1.733   3.956  0.1736 -0.1178 -0.2656
 1482TIP3    H125937   3.626   1.772   3.870  1.4407  0.1723  0.1016
 1482TIP3    H225938   3.515   1.717   3.957  0.7497 -4.7290 -3.6735
 1483TIP3   OH225939   3.807   3.457   1.429 -0.0450  0.3983 -0.4929
 1483TIP3    H125940   3.743   3.509   1.380 -1.3161 -0.5795  0.0764
 1483TIP3    H225941   3.820   3.378   1.375 -0.7824 -0.2744  0.2872
 1484TIP3   OH225942   0.275   6.016  10.417  0.4202 -0.4137  0.1327
 1484TIP3    H125943   0.215   5.950  10.381  1.9454 -1.7064 -0.0710
 1484TIP3    H225944   0.223   6.061  10.483 -0.9716 -1.1225 -0.4516
 1485TIP3   OH225945   2.002   6.112   0.947  0.4960  0.1606  0.0890
 1485TIP3    H125946   1.986   6.056   0.871  3.9369 -0.9013  0.0850
 1485TIP3    H225947   2.038   6.193   0.910  0.4198  0.3575  0.4469
 1486TIP3   OH225948   1.941   3.380   4.933  0.2517  0.3037  0.0454
 1486TIP3    H125949   1.936   3.344   4.844 -1.2159 -0.3016  0.3574
 1486TIP3    H225950   1.924   3.304   4.989 -1.7826  1.2544  0.7508
 1487TIP3   OH225951   0.233   4.082   4.004 -0.0407  0.5245  0.2587
 1487TIP3    H125952   0.159   4.074   4.063 -0.0202 -1.3948  0.0278
 1487TIP3    H225953   0.299   4.130   4.055 -0.6896  0.4833  1.1447
 1488TIP3   OH225954   2.558   5.902   4.609 -0.3002  0.5697 -0.0286
 1488TIP3    H125955   2.627   5.946   4.658  0.7045 -1.3589  0.3211
 1488TIP3    H225956   2.498   5.869   4.676 -0.7353  0.8735 -0.2643
 1489TIP3   OH225957   5.002   1.237   3.177  0.0492 -0.2382 -0.0207
 1489TIP3    H125958   5.045   1.152   3.181 -0.1219 -0.3898 -1.4483
 1489TIP3    H225959   5.039   1.285   3.252  2.0021 -0.6967 -0.6528
 1490TIP3   OH225960   2.115   1.507  16.608  0.1131 -0.4322 -0.2961
 1490TIP3    H125961   2.102   1.522  16.701  1.6016 -1.0175  0.0224
 1490TIP3    H225962   2.163   1.424  16.603 -0.2981 -0.6099 -1.6023
 1491TIP3   OH225963   3.162   5.074   5.067  0.3405  0.4271 -0.3105
 1491TIP3    H125964   3.156   5.079   4.971  0.5224  0.4531 -0.3202
 1491TIP3    H225965   3.101   5.003   5.091 -0.3684  1.0039 -0.3728
 1492TIP3   OH225966   1.366   4.398   0.466 -0.6131  0.6376 -0.1344
 1492TIP3    H125967   1.453   4.404   0.506 -0.9712 -3.1899  1.3426
 1492TIP3    H225968   1.382   4.353   0.382 -1.2543 -0.9996  0.5993
 1493TIP3   OH225969   4.463   5.703  14.255 -0.4415 -0.2424  0.4479
 1493TIP3    H125970   4.377   5.661  14.258 -0.3291 -0.4140  1.2575
 1493TIP3    H225971   4.443   5.795  14.242 -0.6697 -0.6236 -2.2859
 1494TIP3   OH225972   3.500   1.742   1.697  0.5712 -0.6959  0.1078
 1494TIP3    H125973   3.585   1.786   1.696  0.5017 -0.5533  0.4889
 1494TIP3    H225974   3.461   1.763   1.612  0.2757  0.4940  0.5337
 1495TIP3   OH225975   0.351   3.435   3.471 -0.3165  0.5620 -0.4080
 1495TIP3    H125976   0.341   3.504   3.535 -1.7191  0.7238 -0.7839
 1495TIP3    H225977   0.293   3.460   3.399 -2.5383 -2.0669  0.3839
 1496TIP3   OH225978   0.991   6.752  16.136  0.3454 -0.0254 -0.3656
 1496TIP3    H125979   1.078   6.760  16.175  0.1934  0.2106 -0.0772
 1496TIP3    H225980   0.989   6.819  16.067  0.6713 -0.5480 -0.8913
 1497TIP3   OH225981   0.750   4.201  16.513 -0.4631 -0.1565  0.2980
 1497TIP3    H125982   0.776   4.178  16.424 -2.0243  0.9849 -0.4683
 1497TIP3    H225983   0.726   4.293  16.508 -2.2042 -0.5279  1.5292
 1498TIP3   OH225984   3.868   2.303  15.840  0.1079 -0.3964  0.5384
 1498TIP3    H125985   3.910   2.267  15.918  2.2186  0.4273 -0.1911
 1498TIP3    H225986   3.931   2.367  15.805 -1.1320 -0.1718 -1.3903
 1499TIP3   OH225987   5.544   1.917  16.598 -0.1957 -0.0361 -0.1500
 1499TIP3    H125988   5.548   2.008  16.627  0.0678 -0.1983  0.3294
 1499TIP3    H225989   5.552   1.866  16.679  0.0831 -0.4910 -0.4639
 1500TIP3   OH225990   6.615   3.062  12.050 -0.4140  0.1982  0.4450
 1500TIP3    H125991   6.528   3.104  12.052  0.0814  1.3341 -0.7285
 1500TIP3    H225992   6.638   3.061  11.957  0.9707  0.1924  0.7840
 1501TIP3   OH225993   4.260   2.558   0.212 -0.3800 -0.1757 -0.2752
 1501TIP3    H125994   4.269   2.463   0.207 -0.1487 -0.1841  0.2435
 1501TIP3    H225995   4.351   2.590   0.214 -0.4542  0.0736 -0.6969
 1502TIP3   OH225996   6.109   3.132   0.166 -0.6554 -0.6510 -0.3293
 1502TIP3    H125997   6.075   3.212   0.207 -2.1437 -0.7735 -1.2810
 1502TIP3    H225998   6.101   3.066   0.234 -2.8389 -0.7820 -0.6628
 1503TIP3   OH225999   3.219   1.155   2.235  0.3731 -0.0239 -0.3419
 1503TIP3    H126000   3.187   1.200   2.157  0.8833  0.1670 -0.4416
 1503TIP3    H226001   3.228   1.064   2.209 -0.7996 -0.2180 -0.0999
 1504TIP3   OH226002   4.770   0.764  13.292 -0.0211 -0.3414  0.7414
 1504TIP3    H126003   4.706   0.787  13.359 -1.2095 -0.2993 -0.3824
 1504TIP3    H226004   4.733   0.799  13.211  1.3447 -0.4859  0.0514
 1505TIP3   OH226005   5.347   0.017  13.618  0.2533 -0.2750 -0.7428
 1505TIP3    H126006   5.374  -0.061  13.667  1.4008  0.3067 -0.4123
 1505TIP3    H226007   5.408   0.085  13.646 -1.4035  1.0263 -0.2353
 1506TIP3   OH226008   0.218   6.189  13.193 -0.4976  0.1164  0.2882
 1506TIP3    H126009   0.272   6.262  13.165 -0.1922  0.1420  0.9356
 1506TIP3    H226010   0.256   6.113  13.149 -1.4583  0.4806 -1.2284
 1507TIP3   OH226011   1.719   6.714  12.968  0.3766  0.4639 -0.0152
 1507TIP3    H126012   1.692   6.703  12.877  1.4178 -0.0820 -0.2646
 1507TIP3    H226013   1.669   6.649  13.016 -0.3595  0.9194 -0.1607
 1508TIP3   OH226014   4.031   0.033  14.190  0.2543  0.8336  0.3814
 1508TIP3    H126015   4.000   0.074  14.109 -0.1010  0.1553  0.1662
 1508TIP3    H226016   4.126   0.040  14.186  0.1965  1.6783  0.3744
 1509TIP3   OH226017   1.262   1.315   2.957 -0.6326  0.4226 -0.0306
 1509TIP3    H126018   1.177   1.359   2.953 -0.7633  0.1389 -0.4345
 1509TIP3    H226019   1.248   1.233   2.910 -0.7650 -0.6705  1.8914
 1510TIP3   OH226020   3.834   4.640   2.364  0.6427 -0.1969 -0.1815
 1510TIP3    H126021   3.866   4.620   2.451 -1.4988 -0.0714  0.6748
 1510TIP3    H226022   3.806   4.555   2.329  2.2732 -0.3779 -1.0993
 1511TIP3   OH226023   6.755   5.573  16.883  0.2734  0.3015 -0.1096
 1511TIP3    H126024   6.743   5.481  16.859  1.1689  0.1844 -0.1297
 1511TIP3    H226025   6.847   5.592  16.863 -0.2141  1.5394 -1.2346
 1512TIP3   OH226026   3.450   6.062   3.841 -0.8103  0.2819  0.4189
 1512TIP3    H126027   3.368   6.027   3.875 -0.9794  0.8710  0.6386
 1512TIP3    H226028   3.503   5.985   3.822 -1.0246 -0.0806  1.2528
 1513TIP3   OH226029   2.148   0.928   1.090  0.0787  0.4541  0.5084
 1513TIP3    H126030   2.096   0.999   1.051  0.3466  0.9937  1.1354
 1513TIP3    H226031   2.204   0.897   1.019 -0.0213  0.8837  0.2446
 1514TIP3   OH226032   1.810   4.998   4.906  0.0356  0.3707 -0.0687
 1514TIP3    H126033   1.865   5.060   4.954  1.8874 -0.4260 -1.1139
 1514TIP3    H226034   1.845   4.912   4.928 -1.8640 -0.2727  0.5517
 1515TIP3   OH226035   3.335   4.553  14.995  0.0854  0.4663  0.0285
 1515TIP3    H126036   3.378   4.592  15.071 -0.6933 -1.1313  1.3326
 1515TIP3    H226037   3.400   4.559  14.925  2.1674 -1.1741  1.7325
 1516TIP3   OH226038   4.147   3.243  14.177  0.1215  0.2581 -0.0341
 1516TIP3    H126039   4.126   3.240  14.271  0.2713  0.4922  0.0079
 1516TIP3    H226040   4.110   3.162  14.142 -1.2045  0.8542 -0.0362
 1517TIP3   OH226041   2.288   3.222  12.782  0.0901 -0.0615 -0.8847
 1517TIP3    H126042   2.295   3.205  12.876 -2.2727  0.5857 -0.5602
 1517TIP3    H226043   2.377   3.242  12.755  0.5384  1.5079  1.5809
 1518TIP3   OH226044   4.351   2.458   3.415  0.0972 -0.3496  0.2526
 1518TIP3    H126045   4.423   2.413   3.371  0.4437  1.4150 -1.0907
 1518TIP3    H226046   4.272   2.417   3.380  0.3967  0.3460 -1.2855
 1519TIP3   OH226047   3.252   1.192  16.194  0.5389 -0.3106  0.2090
 1519TIP3    H126048   3.280   1.261  16.134  0.0260  0.1784  0.5213
 1519TIP3    H226049   3.256   1.112  16.142  1.1357 -0.0483 -0.1576
 1520TIP3   OH226050   3.271   5.284  12.172  0.6097  0.4057  0.8287
 1520TIP3    H126051   3.271   5.370  12.131 -0.9411  0.3501  0.6549
 1520TIP3    H226052   3.219   5.295  12.252  1.5450 -0.0505  1.5019
 1521TIP3   OH226053   3.130   4.302   3.292  0.0491  0.2389 -0.0606
 1521TIP3    H126054   3.132   4.265   3.204 -0.5193 -0.6481  0.2844
 1521TIP3    H226055   3.203   4.260   3.338 -0.9020 -0.8538  0.4775
 1522TIP3   OH226056   3.812   0.267   2.891  0.3658 -0.0893 -0.0842
 1522TIP3    H126057   3.726   0.231   2.913 -0.6952  1.8157 -0.9796
 1522TIP3    H226058   3.832   0.327   2.963 -0.0698  1.1201 -0.9612
 1523TIP3   OH226059   5.952   5.323  16.978 -0.4609 -0.2416 -0.0054
 1523TIP3    H126060   5.985   5.403  16.937 -0.2722  0.0159  0.6529
 1523TIP3    H226061   5.872   5.303  16.930  0.5790 -0.8131 -1.5638
 1524TIP3   OH226062   3.638   4.001   1.209 -0.1442  0.2999 -0.1757
 1524TIP3    H126063   3.590   3.997   1.292  1.1797 -1.1641  0.5543
 1524TIP3    H226064   3.571   4.019   1.143 -1.1803  1.7716  1.2318
 1525TIP3   OH226065   6.323   3.994  13.312  0.3743  0.6287 -0.1906
 1525TIP3    H126066   6.233   4.013  13.283 -0.1576 -0.3846  0.7585
 1525TIP3    H226067   6.347   3.915  13.264  0.6989  0.7820 -0.2869
 1526TIP3   OH226068   5.260   6.315   5.653  0.1513  0.3543  0.0711
 1526TIP3    H126069   5.340   6.366   5.663  0.7331 -0.6285  0.5974
 1526TIP3    H226070   5.290   6.229   5.623 -1.0218  1.0995 -3.5210
 1527TIP3   OH226071   1.420   0.491   5.240  0.3535  0.4267  0.0220
 1527TIP3    H126072   1.407   0.578   5.203  1.2201  0.0526 -1.2368
 1527TIP3    H226073   1.513   0.472   5.223 -0.0618 -1.1272 -0.6130
 1528TIP3   OH226074   4.233   5.921  15.772 -0.5893 -0.3641  0.0932
 1528TIP3    H126075   4.209   5.980  15.843  0.8026 -0.3738  0.5912
 1528TIP3    H226076   4.163   5.856  15.769 -0.4753 -0.5747  1.7031
 1529TIP3   OH226077   6.527   6.033   6.463  0.1510  0.4326  0.1280
 1529TIP3    H126078   6.518   5.956   6.407  0.6377 -1.4401  2.5378
 1529TIP3    H226079   6.621   6.038   6.481  0.1151  1.5947 -0.0114
 1530TIP3   OH226080   6.503   3.074   1.117 -0.1511  0.3047 -0.3579
 1530TIP3    H126081   6.512   3.169   1.115 -0.1311  0.2841 -1.3119
 1530TIP3    H226082   6.587   3.042   1.082  0.3222 -0.0892  1.0875
 1531TIP3   OH226083   1.567   0.408  14.521 -0.1862  0.0210  0.1344
 1531TIP3    H126084   1.613   0.425  14.439 -0.8074 -0.1326 -0.2445
 1531TIP3    H226085   1.631   0.360  14.574  0.4709  0.7648  0.0236
 1532TIP3   OH226086   0.657   2.102   2.774  0.4401 -0.2856  0.1607
 1532TIP3    H126087   0.693   2.118   2.861  1.0840  0.1721 -0.1787
 1532TIP3    H226088   0.590   2.169   2.763  1.4342  0.6582 -0.2941
 1533TIP3   OH226089   3.317   2.221   0.946 -0.1705  0.0830 -0.1518
 1533TIP3    H126090   3.326   2.174   1.028  0.2538  2.0847  0.9800
 1533TIP3    H226091   3.281   2.306   0.970 -3.4256 -0.5657 -2.4459
 1534TIP3   OH226092   4.191   2.703  16.877 -0.3945  0.0464  0.1660
 1534TIP3    H126093   4.185   2.642  16.804 -0.7600  0.8210 -0.4709
 1534TIP3    H226094   4.223   2.651  16.951 -1.9707 -1.2123 -0.0013
 1535TIP3   OH226095   3.078   5.315  12.838  0.4152 -0.4009  0.0597
 1535TIP3    H126096   3.147   5.271  12.886 -0.2187 -0.9980  0.4407
 1535TIP3    H226097   2.998   5.296  12.888  0.1592  1.3280  0.3263
 1536TIP3   OH226098   2.663   5.181   5.052  0.2487  0.5272 -0.6771
 1536TIP3    H126099   2.587   5.123   5.043  0.1179  0.6753 -0.5166
 1536TIP3    H226100   2.719   5.137   5.115  0.7042 -0.0195 -1.4460
 1537TIP3   OH226101   2.498   1.788   5.427  0.1312  0.2954  0.1115
 1537TIP3    H126102   2.538   1.734   5.495 -1.6011 -1.0636  0.0890
 1537TIP3    H226103   2.548   1.869   5.428  4.1634 -2.0020 -1.2251
 1538TIP3   OH226104   5.815   5.373  16.281 -0.1022  0.0348 -0.1091
 1538TIP3    H126105   5.723   5.387  16.304 -0.7503  0.3488 -2.6713
 1538TIP3    H226106   5.838   5.448  16.226  1.5026 -0.3511  0.0052
 1539TIP3   OH226107   5.176   5.488  13.923 -0.1395 -0.0947 -0.0222
 1539TIP3    H126108   5.192   5.537  13.843  0.3954 -0.8691 -0.4002
 1539TIP3    H226109   5.236   5.527  13.987  0.3131 -0.2792 -0.3299
 1540TIP3   OH226110   2.587   1.411   1.886 -0.1850  0.3220  0.6031
 1540TIP3    H126111   2.658   1.474   1.873 -0.0204  0.2742  1.2650
 1540TIP3    H226112   2.534   1.449   1.956 -0.7840  0.3332  0.1488
 1541TIP3   OH226113   0.837   6.334   1.014  0.3096 -0.1090  0.5342
 1541TIP3    H126114   0.835   6.255   0.960 -0.8174  0.8340 -0.8545
 1541TIP3    H226115   0.745   6.361   1.021  0.7695  1.6960  0.0345
 1542TIP3   OH226116   0.697   4.879   1.650  0.6404 -0.6192  0.7861
 1542TIP3    H126117   0.781   4.926   1.645 -0.5293  1.2934 -1.5848
 1542TIP3    H226118   0.708   4.803   1.593  0.7829 -0.3923  0.5098
 1543TIP3   OH226119   5.882   5.810   4.291  0.2599 -1.0226 -0.2503
 1543TIP3    H126120   5.824   5.743   4.255 -0.3051  0.3472 -1.9558
 1543TIP3    H226121   5.831   5.891   4.285  1.3730 -0.2456  0.7002
 1544TIP3   OH226122   3.255   4.624  16.265 -0.3396  0.4108  0.2779
 1544TIP3    H126123   3.303   4.647  16.185 -0.3578  2.4079  0.8204
 1544TIP3    H226124   3.163   4.635  16.242 -0.4088 -0.3102  0.1921
 1545TIP3   OH226125   4.449   0.052  14.460  0.3768  0.2162  0.5337
 1545TIP3    H126126   4.424   0.054  14.552  0.7977 -2.3077  0.7497
 1545TIP3    H226127   4.541   0.076  14.459  0.0718  1.4315  0.6174
 1546TIP3   OH226128   2.856   0.653  14.019  0.3984  0.1838  0.1484
 1546TIP3    H126129   2.802   0.576  14.036  0.5530 -0.0095 -0.2321
 1546TIP3    H226130   2.794   0.718  13.985  0.4585 -0.1431 -0.5868
 1547TIP3   OH226131   3.002   0.944   0.135 -0.5871 -0.1970  0.3546
 1547TIP3    H126132   3.089   0.923   0.101 -1.4973 -1.7492 -1.1134
 1547TIP3    H226133   3.012   0.941   0.230  0.6085 -2.0237  0.2111
 1548TIP3   OH226134   5.044   1.304   3.802 -0.0797 -0.5591  0.4403
 1548TIP3    H126135   4.969   1.363   3.793  0.4816 -0.0032 -0.6296
 1548TIP3    H226136   5.120   1.361   3.791  0.4899 -1.2033  1.0762
 1549TIP3   OH226137   1.043   2.925  13.999 -0.6355 -0.4883  0.3173
 1549TIP3    H126138   1.096   2.983  14.053  1.2993 -1.5928 -0.3660
 1549TIP3    H226139   1.048   2.840  14.043 -1.7119 -0.6522  0.1496
 1550TIP3   OH226140   2.244   0.782   4.902  0.4196  0.0231  0.5106
 1550TIP3    H126141   2.228   0.703   4.851  0.0694 -1.5811  3.0421
 1550TIP3    H226142   2.240   0.853   4.837  0.0938 -1.9390 -1.6899
 1551TIP3   OH226143   6.753   4.281  14.171  0.2041 -0.8302  0.4805
 1551TIP3    H126144   6.830   4.283  14.227  0.9065 -1.4383 -0.4364
 1551TIP3    H226145   6.785   4.243  14.089 -0.8893 -0.3307 -0.1827
 1552TIP3   OH226146   4.147   5.016  11.422 -0.0509  0.1669 -0.2069
 1552TIP3    H126147   4.216   4.998  11.485  1.0606 -0.4211 -1.5739
 1552TIP3    H226148   4.067   4.982  11.464  0.9673 -1.9036  0.0833
 1553TIP3   OH226149   2.730   6.041   0.804  0.6473 -0.4257 -0.0661
 1553TIP3    H126150   2.720   5.946   0.798 -0.8426 -0.2086 -1.2165
 1553TIP3    H226151   2.777   6.065   0.724  2.1458 -0.3210  0.8226
 1554TIP3   OH226152   2.269   1.719   6.456  0.8546  0.1766  0.6941
 1554TIP3    H126153   2.275   1.671   6.539 -0.6980 -0.4433  0.4666
 1554TIP3    H226154   2.303   1.806   6.476 -1.6562  0.7856  2.6411
 1555TIP3   OH226155   5.190   6.005   5.764 -0.2836  0.4620  0.3282
 1555TIP3    H126156   5.132   6.037   5.695  0.3331  1.3025  0.1897
 1555TIP3    H226157   5.219   6.084   5.810 -0.6128 -0.0806  1.4906
 1556TIP3   OH226158   4.815   5.309   1.411  0.1287 -0.2788 -0.1168
 1556TIP3    H126159   4.909   5.325   1.399  0.2715  0.9729  2.3136
 1556TIP3    H226160   4.810   5.218   1.441  0.4785 -0.6328 -1.1191
 1557TIP3   OH226161   6.799   5.129   6.248  0.0754 -0.2578  0.5309
 1557TIP3    H126162   6.768   5.176   6.325  1.0283  0.5688  0.4132
 1557TIP3    H226163   6.730   5.143   6.183 -0.0227  0.3044  0.7507
 1558TIP3   OH226164   1.303   1.484  10.948  0.1114  0.1552 -0.5934
 1558TIP3    H126165   1.268   1.572  10.964 -1.0581 -0.3709 -0.1481
 1558TIP3    H226166   1.280   1.465  10.857 -0.1339  0.0986 -0.5220
 1559TIP3   OH226167   3.784   1.400  13.742 -0.3017 -0.6322 -0.2540
 1559TIP3    H126168   3.841   1.408  13.819  0.6192 -0.6491 -0.9286
 1559TIP3    H226169   3.744   1.486  13.733 -0.1697 -0.5355  0.0621
 1560TIP3   OH226170   2.735   1.010  12.061  0.7198  0.2812 -0.2224
 1560TIP3    H126171   2.828   0.992  12.075  0.0810 -2.0424  1.3594
 1560TIP3    H226172   2.705   0.941  12.003  0.1131  1.4119 -1.2707
 1561TIP3   OH226173   5.993   0.119   1.394 -0.3608  0.2542  0.6311
 1561TIP3    H126174   5.998   0.080   1.307 -1.0222  2.4175 -0.4212
 1561TIP3    H226175   6.016   0.048   1.454  0.5019 -1.1551 -1.3214
 1562TIP3   OH226176   0.321   1.319  14.075 -0.2963  0.2217  0.4637
 1562TIP3    H126177   0.310   1.379  14.002  2.1366 -0.1611 -0.2385
 1562TIP3    H226178   0.302   1.233  14.038 -1.2736  0.2465  0.8655
 1563TIP3   OH226179   4.676   4.379   0.707 -0.4419 -0.1308 -0.9643
 1563TIP3    H126180   4.741   4.326   0.662 -0.9158 -1.2046 -0.3931
 1563TIP3    H226181   4.604   4.386   0.645 -0.3038  0.0047 -1.1106
 1564TIP3   OH226182   1.594   0.148   5.778 -0.2576  0.5087  0.0601
 1564TIP3    H126183   1.516   0.129   5.830 -0.6285 -1.7757 -1.2514
 1564TIP3    H226184   1.665   0.099   5.822 -0.0962  0.4912 -0.2165
 1565TIP3   OH226185   1.995   3.060   4.843 -1.2049  0.3796  0.1986
 1565TIP3    H126186   2.052   3.010   4.784 -0.6556  0.3656  0.7460
 1565TIP3    H226187   1.970   3.137   4.791 -1.0924  0.1377 -0.2191
 1566TIP3   OH226188   3.083   1.335  14.621  0.0398  0.3575 -0.3255
 1566TIP3    H126189   3.035   1.389  14.558 -2.5504 -0.5027  0.8182
 1566TIP3    H226190   3.084   1.388  14.701 -2.5017 -1.1861  0.7974
 1567TIP3   OH226191   3.875   4.927  13.176  0.0485 -0.5283 -0.0843
 1567TIP3    H126192   3.799   4.869  13.171 -1.6660  1.4938  1.9065
 1567TIP3    H226193   3.902   4.923  13.268  0.3903  1.2060 -0.0955
 1568TIP3   OH226194   0.612   5.312  16.915  0.2351  0.1439 -0.0637
 1568TIP3    H126195   0.648   5.224  16.906  1.1078  0.3177  1.4859
 1568TIP3    H226196   0.689   5.369  16.916 -0.2606  0.8152  0.1053
 1569TIP3   OH226197   2.789   4.548  13.873 -0.2769  0.0738 -0.2766
 1569TIP3    H126198   2.766   4.458  13.849  0.8546 -0.7452  1.6390
 1569TIP3    H226199   2.734   4.567  13.949 -0.6343  1.0678 -0.7769
 1570TIP3   OH226200   2.180   2.632  17.223 -0.3274  1.0910  0.0175
 1570TIP3    H126201   2.109   2.690  17.194 -0.7785  0.5913  0.1158
 1570TIP3    H226202   2.260   2.684  17.210 -0.8049  2.1234  1.0732
 1571TIP3   OH226203   1.085   0.236  14.992 -0.2120 -0.1930  0.0427
 1571TIP3    H126204   1.037   0.194  15.063 -0.4078 -2.6070 -1.4616
 1571TIP3    H226205   1.064   0.329  15.001 -1.9291 -0.7136  1.8558
 1572TIP3   OH226206   3.597   1.280  15.844 -0.3273 -0.3797 -0.2807
 1572TIP3    H126207   3.666   1.216  15.827  0.2940  0.5090 -1.1276
 1572TIP3    H226208   3.610   1.348  15.778 -1.5550  0.1651  0.0240
 1573TIP3   OH226209   3.024   6.011   4.535  0.1393  0.2159  0.6696
 1573TIP3    H126210   3.111   5.989   4.501  0.0397 -1.0705  1.2231
 1573TIP3    H226211   3.007   6.099   4.501  1.4188  0.2596  0.0966
 1574TIP3   OH226212   2.268   2.701   0.961  0.2590 -0.1054  0.3319
 1574TIP3    H126213   2.323   2.635   0.920 -0.4181 -0.3024 -0.2635
 1574TIP3    H226214   2.279   2.687   1.055  3.2748  1.5226  0.2807
 1575TIP3   OH226215   1.769   1.267  12.400 -0.0948 -0.4142  0.5780
 1575TIP3    H126216   1.829   1.335  12.370  1.4737 -1.2524  1.7588
 1575TIP3    H226217   1.682   1.302  12.382  0.7301  0.9351 -0.9119
 1576TIP3   OH226218   1.078   4.040   6.151 -0.6249 -0.3932 -0.0470
 1576TIP3    H126219   1.048   4.128   6.176  0.2471 -0.4637  1.2780
 1576TIP3    H226220   0.999   3.986   6.154 -1.1211  0.2858 -0.6337
 1577TIP3   OH226221   6.019   4.644  13.197  0.0283  0.0390  0.4008
 1577TIP3    H126222   6.050   4.636  13.288 -0.2548 -0.8126  0.4271
 1577TIP3    H226223   5.965   4.723  13.197 -1.3297 -0.8574  1.3735
 1578TIP3   OH226224   5.541   4.649   4.499 -0.3527  0.3807 -0.2125
 1578TIP3    H126225   5.533   4.621   4.408  1.4922 -0.3730 -0.1677
 1578TIP3    H226226   5.629   4.620   4.525 -0.8286  0.6647  1.7738
 1579TIP3   OH226227   0.019   5.477  11.893 -0.4921 -0.3100  0.1242
 1579TIP3    H126228  -0.033   5.416  11.841  0.7175  1.5498 -3.4061
 1579TIP3    H226229   0.108   5.443  11.888 -0.6122 -1.1048  2.5800
 1580TIP3   OH226230   1.959   3.563  12.887 -0.3818 -0.3822  0.2521
 1580TIP3    H126231   2.024   3.574  12.818 -0.1397 -0.2207  0.5031
 1580TIP3    H226232   2.009   3.538  12.964 -0.8080 -1.9963  0.0187
 1581TIP3   OH226233   5.870   0.077  11.951  0.3280 -0.3451 -0.0380
 1581TIP3    H126234   5.963   0.086  11.975  0.4170  1.4264 -0.9559
 1581TIP3    H226235   5.831   0.031  12.024  1.5184  0.8195  1.3761
 1582TIP3   OH226236   5.974   1.919   1.496 -0.2414  0.4362  0.1531
 1582TIP3    H126237   6.009   1.874   1.419 -1.0329  0.0869 -0.0040
 1582TIP3    H226238   5.883   1.939   1.473 -0.2463  1.0402  0.6894
 1583TIP3   OH226239   5.054   0.883   0.298  0.3335  0.3282 -0.4458
 1583TIP3    H126240   4.985   0.888   0.231 -1.9573 -2.1481  1.6004
 1583TIP3    H226241   5.135   0.900   0.250 -1.1242 -2.3811 -4.1325
 1584TIP3   OH226242   5.056   0.740  13.953 -0.0667  0.0058  0.1461
 1584TIP3    H126243   5.018   0.826  13.974 -0.4464 -0.2809  0.6297
 1584TIP3    H226244   5.014   0.715  13.870 -1.5766 -0.6964  1.1092
 1585TIP3   OH226245   1.706   5.640  14.007  0.1279  0.1489 -0.0650
 1585TIP3    H126246   1.635   5.658  13.946  1.1836  1.1153 -1.0533
 1585TIP3    H226247   1.784   5.631  13.952  0.7939 -0.8146  0.9990
 1586TIP3   OH226248   2.843   6.422   3.341  0.3824  0.1859  0.3024
 1586TIP3    H126249   2.872   6.373   3.264 -0.2414 -0.0245  0.2005
 1586TIP3    H226250   2.779   6.365   3.383 -1.2105  1.3682 -0.4508
 1587TIP3   OH226251   6.449   2.054   4.096  0.3785  0.3824  0.1292
 1587TIP3    H126252   6.460   2.060   4.001  0.6402  1.9266  0.2510
 1587TIP3    H226253   6.442   1.960   4.113  2.3554 -0.0300 -1.1922
 1588TIP3   OH226254   1.353   5.204   0.081 -0.5539  0.2227 -0.0139
 1588TIP3    H126255   1.349   5.129   0.139 -1.5796 -1.0643 -1.7107
 1588TIP3    H226256   1.262   5.233   0.072 -0.1531  1.8134  0.7838
 1589TIP3   OH226257   1.046   1.878   5.724 -0.1484  0.7439  0.8614
 1589TIP3    H126258   1.069   1.790   5.692 -0.0255  1.0648  0.0644
 1589TIP3    H226259   0.952   1.885   5.710 -0.0442  1.0009  0.2770
 1590TIP3   OH226260   0.260   0.095   3.751 -0.0906 -0.3820  0.3116
 1590TIP3    H126261   0.347   0.062   3.773  0.1388 -0.4253 -0.6226
 1590TIP3    H226262   0.260   0.185   3.782  0.1945 -0.4712  0.5737
 1591TIP3   OH226263   0.859   0.484   0.557  0.0254  0.0690 -0.1171
 1591TIP3    H126264   0.922   0.415   0.536 -2.3434 -1.5812 -2.0521
 1591TIP3    H226265   0.897   0.563   0.518  1.3501 -0.7028 -0.4464
 1592TIP3   OH226266   0.257   4.472   3.953  0.5713  0.2353 -0.5370
 1592TIP3    H126267   0.322   4.531   3.990  1.0436 -1.1803  0.9752
 1592TIP3    H226268   0.306   4.418   3.890  0.2888  0.9642 -1.3907
 1593TIP3   OH226269   1.987   5.706  13.939 -0.0766  0.3345 -0.3637
 1593TIP3    H126270   1.980   5.797  13.912  0.6566  0.0553 -1.5314
 1593TIP3    H226271   2.025   5.709  14.026 -2.4806  1.2506  0.7074
 1594TIP3   OH226272   4.483   4.026  11.250  0.2848 -0.3121  0.3221
 1594TIP3    H126273   4.451   3.955  11.195 -1.5846  1.1674 -0.5382
 1594TIP3    H226274   4.414   4.040  11.315 -0.0705  1.6845 -0.4355
 1595TIP3   OH226275   0.538   4.942  12.316  0.1965 -0.5973  0.4455
 1595TIP3    H126276   0.580   4.965  12.399 -1.0593  0.0838  0.9009
 1595TIP3    H226277   0.488   4.863  12.337 -0.1446 -0.4060  0.3439
 1596TIP3   OH226278   3.306   2.592  13.826 -0.5585  0.0286 -0.1289
 1596TIP3    H126279   3.393   2.630  13.831  0.7484 -2.7216 -1.0775
 1596TIP3    H226280   3.293   2.572  13.733 -2.2763  0.5770 -0.0245
 1597TIP3   OH226281   4.925   5.291  16.156  0.0045 -0.0954 -0.0284
 1597TIP3    H126282   4.874   5.343  16.094 -0.8520  1.4192  1.8981
 1597TIP3    H226283   5.002   5.344  16.175 -1.5424  1.1468  2.9922
 1598TIP3   OH226284   4.352   5.356  12.719  0.3235 -0.1437  0.0736
 1598TIP3    H126285   4.300   5.297  12.665  0.6176  0.6523 -1.0974
 1598TIP3    H226286   4.391   5.299  12.786  1.2568 -1.4229 -1.5148
 1599TIP3   OH226287   5.985   5.434  15.687  0.4106 -0.8204  0.1812
 1599TIP3    H126288   5.979   5.414  15.593 -2.3521 -2.2070  0.6253
 1599TIP3    H226289   6.051   5.373  15.721  0.5516 -1.1182 -0.6159
 1600TIP3   OH226290   0.645   2.282  13.605  0.2635  0.1807  0.3685
 1600TIP3    H126291   0.555   2.315  13.606 -0.1332 -0.8681  0.0645
 1600TIP3    H226292   0.654   2.234  13.687  0.4362  0.0004  0.2444
 1601TIP3   OH226293   6.116   3.463  16.842 -0.2620 -0.2140  0.4727
 1601TIP3    H126294   6.061   3.408  16.898 -0.1265 -0.5678  0.2585
 1601TIP3    H226295   6.064   3.542  16.829 -1.8514 -1.5749 -1.8256
 1602TIP3   OH226296   1.824   6.523   5.284  0.2126  0.3011  0.1979
 1602TIP3    H126297   1.915   6.498   5.300  0.6139  1.2218 -0.6200
 1602TIP3    H226298   1.825   6.564   5.198 -1.1404 -0.4952 -0.2033
 1603TIP3   OH226299   1.815   6.582  14.472  0.1660  0.2922  0.0944
 1603TIP3    H126300   1.903   6.552  14.491 -0.0612  0.5103  1.5281
 1603TIP3    H226301   1.765   6.502  14.454  0.0715 -0.0360  1.7598
 1604TIP3   OH226302   0.611   3.266  11.931 -0.2059 -0.4076 -0.1686
 1604TIP3    H126303   0.610   3.188  11.987 -0.9801  0.4973  1.1221
 1604TIP3    H226304   0.518   3.284  11.916 -0.0169  0.0563 -0.7491
 1605TIP3   OH226305   0.590   4.790   1.885  0.3234 -0.4077  0.0940
 1605TIP3    H126306   0.635   4.808   1.803 -2.0809 -1.1788 -1.4445
 1605TIP3    H226307   0.609   4.866   1.940  0.2209  1.1192 -1.9283
 1606TIP3   OH226308   6.144   3.860   6.448  0.3229  0.9556 -0.1389
 1606TIP3    H126309   6.191   3.929   6.495 -1.5465  2.7552 -0.8379
 1606TIP3    H226310   6.065   3.844   6.500 -0.4276  1.0343 -1.2271
 1607TIP3   OH226311   5.936   4.362  15.221  0.3630  0.3978 -0.0756
 1607TIP3    H126312   5.928   4.424  15.149  1.8793 -0.8825 -1.4032
 1607TIP3    H226313   5.879   4.289  15.197 -2.2045  1.6646  1.9670
 1608TIP3   OH226314   3.647   3.950  14.321  0.2424  0.4142 -0.3878
 1608TIP3    H126315   3.576   3.947  14.257 -0.1867 -0.1485  0.1073
 1608TIP3    H226316   3.724   3.975  14.270 -0.1550  0.2554 -1.0736
 1609TIP3   OH226317   6.047   4.782   4.857 -0.2253 -0.4243 -0.3809
 1609TIP3    H126318   5.995   4.805   4.779 -0.9506  0.5626  0.3802
 1609TIP3    H226319   5.982   4.773   4.926  0.5170 -0.3265  0.3281
 1610TIP3   OH226320   0.964   1.654   6.081 -0.0284  0.1453  0.2822
 1610TIP3    H126321   0.946   1.744   6.109  0.0555  0.1075  0.4545
 1610TIP3    H226322   1.018   1.617   6.150 -1.1218 -0.4452  0.8245
 1611TIP3   OH226323   1.212   6.453   1.182  0.8372  0.1747  0.4489
 1611TIP3    H126324   1.295   6.501   1.173 -0.2302  1.9150 -0.4475
 1611TIP3    H226325   1.177   6.448   1.093 -0.9847  1.2725  1.0724
 1612TIP3   OH226326   1.070   2.697   2.383  0.3967  0.0780 -0.3111
 1612TIP3    H126327   1.095   2.607   2.402  0.0314  0.1781  0.6718
 1612TIP3    H226328   1.109   2.715   2.297  0.2256 -1.1082 -0.6549
 1613TIP3   OH226329   3.618   6.574   5.856  0.5112 -0.6775 -0.4314
 1613TIP3    H126330   3.706   6.611   5.856  0.7620 -1.2123 -2.1115
 1613TIP3    H226331   3.561   6.648   5.876  1.3929 -0.5173  1.6395
 1614TIP3   OH226332   3.944   0.473  14.639  0.0913 -0.0457 -0.6322
 1614TIP3    H126333   4.022   0.424  14.665  0.6011 -0.0250 -2.0664
 1614TIP3    H226334   3.977   0.545  14.587 -0.8135  0.6681 -0.2266
 1615TIP3   OH226335   1.502   1.380  12.379 -0.1793 -0.2864  0.0849
 1615TIP3    H126336   1.523   1.473  12.395 -0.0649 -0.1923 -0.5785
 1615TIP3    H226337   1.490   1.343  12.466  0.5265  0.1852  0.3915
 1616TIP3   OH226338   0.772   0.074  16.796 -0.2497  0.1207 -0.4988
 1616TIP3    H126339   0.814   0.126  16.727  1.8507 -1.2320 -0.2828
 1616TIP3    H226340   0.788  -0.017  16.770  0.2386 -0.4016  1.5852
 1617TIP3   OH226341   2.648   4.437   5.811 -0.4204 -0.7823  0.3979
 1617TIP3    H126342   2.555   4.448   5.831  0.3450  2.4374  2.5650
 1617TIP3    H226343   2.658   4.473   5.723 -1.1035 -0.4216  0.4667
 1618TIP3   OH226344   3.080   1.473  14.197 -0.2294  0.4763 -0.0367
 1618TIP3    H126345   3.124   1.438  14.275  0.3162  0.2107 -0.4604
 1618TIP3    H226346   3.054   1.396  14.147  0.5839  0.6485 -0.7546
 1619TIP3   OH226347   2.430   4.212   2.960  0.3842 -0.5941  0.1760
 1619TIP3    H126348   2.512   4.253   2.988  0.4497 -0.8376  0.3392
 1619TIP3    H226349   2.400   4.165   3.038  0.5589 -1.2687 -0.1610
 1620TIP3   OH226350   3.257   5.008   2.979 -0.1193  0.3749  0.4239
 1620TIP3    H126351   3.189   5.012   2.911 -0.4340  1.7447  0.7928
 1620TIP3    H226352   3.209   4.985   3.059  0.1901 -0.8374  0.2649
 1621TIP3   OH226353   0.196   4.948   4.359  0.8096 -0.1223  0.0913
 1621TIP3    H126354   0.268   5.006   4.382 -0.5150  1.3421  0.6842
 1621TIP3    H226355   0.147   4.937   4.441 -0.1968 -0.2869 -0.5243
 1622TIP3   OH226356   5.153   3.173  12.465  0.8700 -0.2839 -0.0229
 1622TIP3    H126357   5.200   3.252  12.438  0.8093 -0.4369 -0.5715
 1622TIP3    H226358   5.170   3.166  12.559  2.4694 -0.6785 -0.3220
 1623TIP3   OH226359   6.322   1.742   4.841 -0.2015 -0.6507  0.6320
 1623TIP3    H126360   6.320   1.756   4.747 -2.2320 -2.1904  0.4274
 1623TIP3    H226361   6.379   1.667   4.854  0.9620  0.2411  0.7336
 1624TIP3   OH226362   6.560   5.940  13.255  0.3409  0.7547 -0.6818
 1624TIP3    H126363   6.647   5.924  13.293 -0.1508  0.9627  0.5608
 1624TIP3    H226364   6.550   5.873  13.188  1.4970  0.7804 -0.8802
 1625TIP3   OH226365   6.263   1.690   0.370  0.2169  0.2592 -0.3760
 1625TIP3    H126366   6.197   1.747   0.331  0.6106  0.9627 -0.0128
 1625TIP3    H226367   6.290   1.631   0.299  0.8144  1.4183 -1.1177
 1626TIP3   OH226368   3.731   6.158  11.397 -0.2013  0.3050 -0.1433
 1626TIP3    H126369   3.707   6.237  11.446 -1.4929 -1.2532  1.8128
 1626TIP3    H226370   3.811   6.127  11.440 -0.8302 -0.5683  0.4024
 1627TIP3   OH226371   4.565   5.304   4.884 -0.0011 -0.2767 -0.4381
 1627TIP3    H126372   4.509   5.319   4.960 -0.1574 -0.5978 -0.4862
 1627TIP3    H226373   4.609   5.221   4.902 -1.5583 -1.3846 -1.5805
 1628TIP3   OH226374   4.766   1.607   4.738 -0.0599 -0.0370 -0.4636
 1628TIP3    H126375   4.770   1.584   4.831 -0.6089 -1.2813 -0.7325
 1628TIP3    H226376   4.835   1.671   4.726  0.5283 -0.4457  0.6551
 1629TIP3   OH226377   1.296   6.171  16.114  0.3384  0.1052  0.1590
 1629TIP3    H126378   1.232   6.104  16.139 -0.4645  1.1455  0.9187
 1629TIP3    H226379   1.281   6.184  16.021  0.2550 -0.5227  0.0819
 1630TIP3   OH226380   0.237   0.536   1.344 -0.2488  0.1742  0.2483
 1630TIP3    H126381   0.257   0.465   1.405 -0.4099  0.6226  0.8264
 1630TIP3    H226382   0.202   0.492   1.266  0.3842 -0.4279  0.2999
 1631TIP3   OH226383   2.186   6.060   1.128  0.3634  0.0116 -0.4350
 1631TIP3    H126384   2.241   6.133   1.097  1.1752 -0.8484 -1.0337
 1631TIP3    H226385   2.114   6.056   1.065  0.1924  0.4413 -0.2698
 1632TIP3   OH226386   3.108   0.573   1.278 -0.0870  0.1860  0.1113
 1632TIP3    H126387   3.143   0.502   1.224 -1.2372  0.3853 -0.9232
 1632TIP3    H226388   3.041   0.614   1.223  0.1843  1.7286  0.8992
 1633TIP3   OH226389   5.942   2.865  12.269  0.1999 -0.0150 -0.4226
 1633TIP3    H126390   5.884   2.887  12.195  0.6818 -1.3325 -1.1983
 1633TIP3    H226391   5.955   2.771  12.262  1.3718  0.0699  0.5511
 1634TIP3   OH226392   4.434   6.101   4.007 -0.5983  0.1022 -0.5347
 1634TIP3    H126393   4.515   6.066   3.971 -1.2410 -0.7818 -1.1471
 1634TIP3    H226394   4.451   6.110   4.100  0.8302  1.7080 -0.9243
 1635TIP3   OH226395   2.117   3.397  14.188  0.6492 -0.3612 -0.0031
 1635TIP3    H126396   2.030   3.369  14.218  1.0179  0.4978  1.9465
 1635TIP3    H226397   2.171   3.318  14.195  0.6623 -0.2466  1.4090
 1636TIP3   OH226398   1.321   5.877  16.328 -0.1632 -0.2244  0.6163
 1636TIP3    H126399   1.262   5.947  16.355 -0.3224  0.7482 -2.1378
 1636TIP3    H226400   1.265   5.799  16.323 -0.7516  0.2314  0.1388
 1637TIP3   OH226401   2.116   0.391  11.670  0.4445 -0.5898 -0.2540
 1637TIP3    H126402   2.105   0.298  11.693  3.0504 -1.4483 -2.2213
 1637TIP3    H226403   2.171   0.389  11.592  1.6016  2.7051  0.4429
 1638TIP3   OH226404   2.158   4.771   0.395 -0.2684  0.0987  0.4902
 1638TIP3    H126405   2.159   4.687   0.441  0.5725 -1.0485 -1.5716
 1638TIP3    H226406   2.069   4.805   0.410 -1.4647 -2.3667 -0.7706
 1639TIP3   OH226407   2.824   3.468   2.450 -0.1275 -0.5935 -0.8039
 1639TIP3    H126408   2.764   3.488   2.522 -0.4767 -1.6297 -0.7985
 1639TIP3    H226409   2.770   3.474   2.371  0.2864  0.6776 -0.9980
 1640TIP3   OH226410   3.322   4.058  15.940 -0.2177  0.5813  0.0807
 1640TIP3    H126411   3.384   4.001  15.985 -1.9038 -1.7518 -0.4446
 1640TIP3    H226412   3.352   4.059  15.849  1.9510  3.5748  0.7719
 1641TIP3   OH226413   3.235   5.071   3.914 -0.0007  0.1232 -0.4776
 1641TIP3    H126414   3.283   5.032   3.987  1.0933  1.5522 -0.4305
 1641TIP3    H226415   3.144   5.044   3.928  0.3842 -0.5412  0.7795
 1642TIP3   OH226416   2.727   6.456   1.455 -0.5021  0.0994 -0.1092
 1642TIP3    H126417   2.728   6.409   1.372 -0.9724 -0.2806  0.0973
 1642TIP3    H226418   2.793   6.411   1.509 -2.5506 -1.7936  0.8813
 1643TIP3   OH226419   2.189   2.546  11.972 -0.4359 -0.2344  0.5508
 1643TIP3    H126420   2.150   2.614  12.027 -0.2237  0.9391 -0.7373
 1643TIP3    H226421   2.114   2.498  11.937 -0.5780 -0.9136  1.7461
 1644TIP3   OH226422   0.907   4.444  16.042  0.1958 -0.4351  0.3048
 1644TIP3    H126423   0.917   4.467  16.135  0.9988 -2.6860  0.8038
 1644TIP3    H226424   0.835   4.499  16.012  1.0652  1.6094  1.8009
 1645TIP3   OH226425   0.070   3.430   4.104  0.1267  0.0183 -0.3770
 1645TIP3    H126426   0.112   3.405   4.186 -0.3720 -0.3934 -0.2439
 1645TIP3    H226427   0.138   3.418   4.038 -0.1417 -1.8710 -0.3367
 1646TIP3   OH226428   2.765   1.177   3.750  0.1133 -0.0832 -0.1588
 1646TIP3    H126429   2.845   1.150   3.707 -0.7289 -1.4701 -0.8883
 1646TIP3    H226430   2.707   1.203   3.678 -0.6356 -0.6083  0.2497
 1647TIP3   OH226431   5.506   4.452  13.581  0.3092  0.1395  0.6419
 1647TIP3    H126432   5.548   4.536  13.560 -1.0039  0.5300 -0.4872
 1647TIP3    H226433   5.418   4.476  13.609 -0.3457 -0.9214 -0.4880
 1648TIP3   OH226434   5.806   5.987  14.215  0.2798 -0.0376  0.0319
 1648TIP3    H126435   5.877   5.957  14.159 -0.5435 -3.0696  0.5221
 1648TIP3    H226436   5.745   6.030  14.155  1.4777  0.7102 -0.6956
 1649TIP3   OH226437   2.998   2.068  17.033  0.3167  0.7887  0.3849
 1649TIP3    H126438   2.953   1.986  17.055  0.0093  0.9104  0.2116
 1649TIP3    H226439   3.089   2.052  17.056  0.4963 -0.0669 -0.9119
 1650TIP3   OH226440   1.265   2.171  11.331  0.1341 -0.3370  0.5206
 1650TIP3    H126441   1.319   2.250  11.341  1.1930 -0.8921 -0.6906
 1650TIP3    H226442   1.328   2.101  11.315 -0.9219 -1.0425 -0.6167
 1651TIP3   OH226443   6.109   6.732  12.518  0.1452 -0.3782  0.7158
 1651TIP3    H126444   6.187   6.698  12.559 -0.1595  1.3139  2.7827
 1651TIP3    H226445   6.036   6.692  12.566 -0.2102  1.6142  1.9029
 1652TIP3   OH226446   1.789   5.639   1.110  0.3098  0.4272  0.2410
 1652TIP3    H126447   1.786   5.554   1.066 -1.3142  0.4206  0.3452
 1652TIP3    H226448   1.814   5.700   1.041  0.5561  0.0057 -0.0473
 1653TIP3   OH226449   3.905   1.417  16.434  0.6065 -0.2161 -0.4793
 1653TIP3    H126450   3.866   1.336  16.400  0.3204 -0.0443 -0.5556
 1653TIP3    H226451   3.974   1.439  16.372  0.3067 -0.0864 -0.7651
 1654TIP3   OH226452   4.661   2.179   3.551 -0.2693  0.8051 -0.3497
 1654TIP3    H126453   4.619   2.255   3.591 -0.5330  1.4423 -1.8148
 1654TIP3    H226454   4.754   2.190   3.569 -0.6360 -0.3928  2.5448
 1655TIP3   OH226455   1.783   0.415   6.276 -0.6526 -0.0040 -0.1628
 1655TIP3    H126456   1.838   0.414   6.355 -1.8328  1.1211  0.7053
 1655TIP3    H226457   1.786   0.326   6.243 -0.7041 -0.6719  1.5738
 1656TIP3   OH226458   0.569   6.362  12.371 -0.9149  0.6294 -0.4619
 1656TIP3    H126459   0.600   6.453  12.369 -2.1396  1.1060  1.2541
 1656TIP3    H226460   0.484   6.367  12.414 -1.2672 -1.2663 -0.9186
 1657TIP3   OH226461   2.488   5.312   6.391 -0.1054 -0.0544  0.5776
 1657TIP3    H126462   2.474   5.380   6.326 -2.4168 -1.4807 -0.4822
 1657TIP3    H226463   2.420   5.327   6.457 -0.2046 -0.9207  0.6771
 1658TIP3   OH226464   5.450   3.147   0.353 -0.1864 -0.4354 -0.5995
 1658TIP3    H126465   5.477   3.187   0.270  0.2294 -0.5876 -0.5400
 1658TIP3    H226466   5.355   3.140   0.347 -0.5750  2.9971  0.4596
 1659TIP3   OH226467   3.438   4.903   2.722 -0.0533 -0.3353 -0.1720
 1659TIP3    H126468   3.356   4.949   2.735  0.8508  1.1469  0.4075
 1659TIP3    H226469   3.427   4.819   2.768 -1.8996 -0.9546 -1.6892
 1660TIP3   OH226470   3.151   3.223   0.536  0.0352 -0.2523 -0.0221
 1660TIP3    H126471   3.074   3.280   0.539  0.2278  0.2215 -2.8281
 1660TIP3    H226472   3.225   3.283   0.541  0.2225 -0.3691 -1.1706
 1661TIP3   OH226473   1.811   6.080  14.026 -0.8547  0.3446 -0.2154
 1661TIP3    H126474   1.749   6.052  14.093 -0.1956 -1.3288 -0.2603
 1661TIP3    H226475   1.894   6.041  14.053 -0.0663  1.6127 -0.7549
 1662TIP3   OH226476   4.002   3.689  10.827  0.4475 -0.3627  0.6444
 1662TIP3    H126477   4.038   3.777  10.826  0.5551 -0.3916  1.7760
 1662TIP3    H226478   4.071   3.634  10.788  0.5129 -0.0091  0.2560
 1663TIP3   OH226479   6.758   2.139   5.302  0.4699 -0.0760 -0.4677
 1663TIP3    H126480   6.809   2.087   5.240  1.3711 -1.5499  1.4631
 1663TIP3    H226481   6.762   2.090   5.384 -1.7707  1.1880  0.4430
 1664TIP3   OH226482   1.559   5.387  16.778  0.2487  0.2196  0.5982
 1664TIP3    H126483   1.563   5.325  16.706 -1.4928 -0.1169  0.7672
 1664TIP3    H226484   1.570   5.473  16.737 -0.4072  0.0035 -0.0326
 1665TIP3   OH226485   3.126   4.937  14.931  0.0122 -0.1819  0.1819
 1665TIP3    H126486   3.149   4.966  15.020  2.1260  0.7130 -0.6303
 1665TIP3    H226487   3.059   4.999  14.903 -1.0925 -0.8131  1.3483
 1666TIP3   OH226488   2.201   4.092  11.365  0.3436 -0.3313 -0.3714
 1666TIP3    H126489   2.267   4.029  11.394 -0.1040  0.8938  3.7045
 1666TIP3    H226490   2.249   4.174  11.355 -0.0233 -0.1171 -0.3868
 1667TIP3   OH226491   2.483   1.879   5.709 -0.2995 -0.1904 -0.4417
 1667TIP3    H126492   2.558   1.938   5.699  0.6797 -1.5374 -1.2436
 1667TIP3    H226493   2.442   1.905   5.792 -0.0863  1.8126 -0.9479
 1668TIP3   OH226494   1.164   5.681  14.249  0.4047  0.4551  0.5917
 1668TIP3    H126495   1.208   5.681  14.334  2.2960 -0.1244 -0.3674
 1668TIP3    H226496   1.207   5.612  14.199 -0.7590  0.7122 -0.8207
 1669TIP3   OH226497   5.558   4.499  14.375  0.0625  0.4662 -0.6222
 1669TIP3    H126498   5.563   4.405  14.355 -1.3933  0.7135 -2.1963
 1669TIP3    H226499   5.500   4.504  14.450  1.7777 -0.0440  0.7888
 1670TIP3   OH226500   4.025   5.422  14.433  0.4247 -0.0658  0.9758
 1670TIP3    H126501   3.961   5.484  14.468 -2.4111 -2.6966  0.7383
 1670TIP3    H226502   4.051   5.459  14.348 -0.8623  1.0154  1.0358
 1671TIP3   OH226503   5.183   3.157  14.735 -0.2272  0.4296  0.5410
 1671TIP3    H126504   5.217   3.101  14.805  0.8844  0.7125  0.2369
 1671TIP3    H226505   5.110   3.107  14.698 -0.5625  0.1012  1.6340
 1672TIP3   OH226506   2.671   4.283  15.057  0.2180 -0.2018 -0.0479
 1672TIP3    H126507   2.765   4.302  15.062  0.5421 -1.1394 -1.8658
 1672TIP3    H226508   2.667   4.204  15.002 -1.7209  0.5581 -1.0079
 1673TIP3   OH226509   6.503   0.195  13.549 -0.2092 -0.0465  0.1617
 1673TIP3    H126510   6.451   0.137  13.494 -0.8593  0.5506  0.1527
 1673TIP3    H226511   6.545   0.136  13.612  0.7050 -0.7483 -1.0957
 1674TIP3   OH226512   3.524   3.959  13.438 -0.0780 -0.6954 -0.3539
 1674TIP3    H126513   3.440   3.975  13.397 -0.5909  0.8818  1.2314
 1674TIP3    H226514   3.515   3.873  13.478 -1.9997  0.6280  2.2362
 1675TIP3   OH226515   2.114   4.813   3.393 -0.2190  0.3418 -0.2438
 1675TIP3    H126516   2.044   4.834   3.332  0.1741 -0.0588 -0.8338
 1675TIP3    H226517   2.194   4.842   3.349  0.1566 -0.8049 -0.3227
 1676TIP3   OH226518   0.470   4.804   4.648 -0.1579  0.1462  0.6989
 1676TIP3    H126519   0.518   4.791   4.730  0.5023  0.4557  0.3675
 1676TIP3    H226520   0.432   4.891   4.655  2.0412  1.2222 -0.3833
 1677TIP3   OH226521   6.524   1.533   5.740  0.3697 -0.1399 -0.0448
 1677TIP3    H126522   6.556   1.531   5.830 -1.2104  1.1947  0.5766
 1677TIP3    H226523   6.582   1.594   5.695 -0.6530  1.5038  0.8275
 1678TIP3   OH226524   6.497   3.941   5.009 -0.0139 -0.2932 -0.2222
 1678TIP3    H126525   6.464   4.013   5.063 -0.0744  0.3453 -1.0978
 1678TIP3    H226526   6.517   3.871   5.072  4.1276  1.9611  1.1663
 1679TIP3   OH226527   2.482   6.562   1.564  0.2928  0.8666 -0.0776
 1679TIP3    H126528   2.564   6.518   1.542 -0.6799  0.2927 -2.8034
 1679TIP3    H226529   2.418   6.491   1.571 -0.1736  1.3894  1.0242
 1680TIP3   OH226530   0.829   1.132   1.386 -0.2268  0.1156 -0.3449
 1680TIP3    H126531   0.902   1.077   1.356  1.3532  1.6817  0.6060
 1680TIP3    H226532   0.801   1.179   1.307  0.4393  0.2531 -0.5032
 1681TIP3   OH226533   0.488   0.056  11.196  0.1276 -0.1724  0.6095
 1681TIP3    H126534   0.415   0.052  11.134  0.4220  0.9516  0.1744
 1681TIP3    H226535   0.564   0.024  11.148  0.2882  0.3791  0.4964
 1682TIP3   OH226536   2.118   1.069  10.526 -0.8232 -0.2519  1.1138
 1682TIP3    H126537   2.060   1.120  10.469 -0.8551  0.3271  1.6628
 1682TIP3    H226538   2.059   1.013  10.577 -0.8813  0.1705  1.5075
 1683TIP3   OH226539   5.612   5.270   4.831 -0.1109 -0.4283  0.8965
 1683TIP3    H126540   5.521   5.289   4.856 -0.1567 -1.0114  1.1910
 1683TIP3    H226541   5.626   5.180   4.860  0.6925 -0.2058  1.2103
 1684TIP3   OH226542   0.748   1.043   0.301  0.2470 -0.1880  0.0899
 1684TIP3    H126543   0.827   1.063   0.352  0.0149 -0.6758  0.6424
 1684TIP3    H226544   0.781   0.993   0.226  0.6194  0.7486 -0.3825
 1685TIP3   OH226545   1.495   3.551   2.363 -0.3019  0.4712 -0.6826
 1685TIP3    H126546   1.516   3.585   2.276 -0.5504  1.8106 -0.2219
 1685TIP3    H226547   1.502   3.626   2.421  3.3617 -1.1292  1.0715
 1686TIP3   OH226548   4.607   2.689  16.463 -0.4787 -0.4991 -0.4051
 1686TIP3    H126549   4.682   2.660  16.516  0.7690 -0.3388 -2.0712
 1686TIP3    H226550   4.559   2.747  16.521 -0.0400 -1.6193  1.1380
 1687TIP3   OH226551   2.004   6.559  14.014  0.6088  0.1657 -0.1493
 1687TIP3    H126552   1.980   6.651  14.028  0.1704  0.2149 -1.2203
 1687TIP3    H226553   2.098   6.556  14.035  0.3970  0.6380  0.8877
 1688TIP3   OH226554   6.269   1.853  14.716 -0.2000  0.2628 -0.2908
 1688TIP3    H126555   6.310   1.774  14.749  0.6391 -0.2475 -2.4481
 1688TIP3    H226556   6.298   1.923  14.775  0.2391 -0.7990  0.7552
 1689TIP3   OH226557   1.761   6.122  13.366 -0.2239  0.4905  0.3809
 1689TIP3    H126558   1.693   6.062  13.395  0.0928  0.9835  2.2123
 1689TIP3    H226559   1.820   6.069  13.312 -2.1860  0.1240 -1.4750
 1690TIP3   OH226560   3.475   4.364  14.359  0.4289 -0.1973 -0.3641
 1690TIP3    H126561   3.462   4.339  14.450  2.1111 -0.2305 -0.1171
 1690TIP3    H226562   3.395   4.337  14.314  0.5217 -2.2796  0.6721
 1691TIP3   OH226563   4.725   1.480  14.679  0.8225  0.0339  0.5612
 1691TIP3    H126564   4.782   1.411  14.644  0.0695  0.6531 -1.9103
 1691TIP3    H226565   4.661   1.433  14.733  1.0346 -1.0762 -0.1467
 1692TIP3   OH226566   6.051   6.561  14.184  0.0906  0.4357 -0.0228
 1692TIP3    H126567   6.131   6.543  14.133  0.5120 -0.4719  0.9376
 1692TIP3    H226568   5.981   6.523  14.132  0.2991  1.1179 -0.8116
 1693TIP3   OH226569   6.501   3.059  15.725 -0.0671 -0.2135  0.2946
 1693TIP3    H126570   6.522   3.106  15.806  0.4905  0.4088 -0.1971
 1693TIP3    H226571   6.531   3.118  15.655 -0.6813 -0.6736 -0.3659
 1694TIP3   OH226572   0.852   0.732  11.376 -0.2723 -0.5602 -0.2369
 1694TIP3    H126573   0.888   0.750  11.289  1.0731 -0.6339  0.2865
 1694TIP3    H226574   0.918   0.767  11.436 -1.4891  0.0378  0.7513
 1695TIP3   OH226575   2.645   1.457  12.156 -0.1708 -0.0809 -0.1485
 1695TIP3    H126576   2.571   1.481  12.213  0.7297 -0.5051  1.2092
 1695TIP3    H226577   2.630   1.508  12.076 -0.7897  1.4872  0.9298
 1696TIP3   OH226578   3.871   1.892  11.581 -0.4794  0.4365 -0.1430
 1696TIP3    H126579   3.927   1.915  11.507  0.6868  0.9727  0.8855
 1696TIP3    H226580   3.850   1.976  11.622 -2.5367  0.3090 -0.8389
 1697TIP3   OH226581   1.970   4.300  11.253  0.7835  0.1018  0.8648
 1697TIP3    H126582   1.950   4.328  11.163 -0.1172 -0.3133  0.9303
 1697TIP3    H226583   2.045   4.353  11.278 -0.8854  2.4813  0.9886
 1698TIP3   OH226584   4.682   2.567  14.024  0.7067  0.3605  0.0160
 1698TIP3    H126585   4.757   2.627  14.032  1.5383 -0.5137 -1.2074
 1698TIP3    H226586   4.615   2.619  13.979  1.1244  0.6482 -0.2772
 1699TIP3   OH226587   2.591   1.781  17.170  0.0924 -0.4361 -0.6626
 1699TIP3    H126588   2.551   1.756  17.086 -3.0723 -0.4769  0.7899
 1699TIP3    H226589   2.680   1.747  17.165  0.0982 -0.1489 -4.1414
 1700TIP3   OH226590   1.902   1.795   2.444 -0.2451 -0.4906  0.1221
 1700TIP3    H126591   1.911   1.796   2.349 -0.1020 -0.7209  0.1338
 1700TIP3    H226592   1.807   1.794   2.459 -0.3714  3.4502  0.0173
 1701TIP3   OH226593   5.658   1.905   3.797  0.1222  0.4920  0.3466
 1701TIP3    H126594   5.722   1.960   3.842  0.6449 -0.8811  1.3303
 1701TIP3    H226595   5.705   1.824   3.778 -0.4112  0.6475 -1.7645
 1702TIP3   OH226596   4.420   3.877   2.544  0.2159  0.8014 -0.0621
 1702TIP3    H126597   4.416   3.970   2.564  1.2480  0.9263 -0.4101
 1702TIP3    H226598   4.417   3.872   2.449  0.6255  0.5094 -0.0645
 1703TIP3   OH226599   0.083   3.867  12.550  0.1333 -0.0190 -0.3067
 1703TIP3    H126600   0.098   3.779  12.584 -2.2264 -0.4804 -0.3486
 1703TIP3    H226601   0.104   3.861  12.457  0.2747 -0.4691 -0.2470
 1704TIP3   OH226602   1.135   2.682   3.724  0.4551  0.0203 -0.3066
 1704TIP3    H126603   1.126   2.753   3.660 -0.3667 -1.1108 -1.4809
 1704TIP3    H226604   1.143   2.603   3.671  1.7694 -0.7377  0.9840
 1705TIP3   OH226605   5.030   5.401  11.706  0.1476  0.5261 -0.0263
 1705TIP3    H126606   5.004   5.432  11.793  1.5863 -0.7196  0.8617
 1705TIP3    H226607   5.108   5.348  11.721  1.0913  1.2296 -2.2190
 1706TIP3   OH226608   1.349   2.431   5.240 -0.1529  0.5437  0.2289
 1706TIP3    H126609   1.292   2.421   5.164  1.6026 -0.5055 -1.0103
 1706TIP3    H226610   1.388   2.345   5.253  2.7960  1.6947 -0.3543
 1707TIP3   OH226611   2.605   2.078   5.409 -0.3530  0.2829 -0.6217
 1707TIP3    H126612   2.653   2.029   5.341  0.7891 -0.7508  0.8806
 1707TIP3    H226613   2.663   2.076   5.485 -1.4559  1.7390  0.2844
 1708TIP3   OH226614   2.024   4.538  14.004  0.0098  0.4980 -0.2100
 1708TIP3    H126615   2.092   4.597  13.972  1.1813 -0.8494 -0.2563
 1708TIP3    H226616   2.002   4.571  14.091  1.9599 -0.0507  0.5095
 1709TIP3   OH226617   2.622   5.751  12.345  0.3185 -0.6974 -0.0824
 1709TIP3    H126618   2.643   5.774  12.435 -0.8716  0.0213  0.0268
 1709TIP3    H226619   2.673   5.812  12.292 -0.3856  0.1183  0.1520
 1710TIP3   OH226620   5.545   5.277   2.194  0.3892 -0.1196 -0.0533
 1710TIP3    H126621   5.460   5.263   2.236  0.6674 -0.8381  0.2717
 1710TIP3    H226622   5.527   5.268   2.100  0.1516 -0.5027  0.0275
 1711TIP3   OH226623   6.549   1.569  15.085  0.9311  0.4035  0.0235
 1711TIP3    H126624   6.483   1.534  15.145  2.6051 -2.0528  0.5367
 1711TIP3    H226625   6.570   1.656  15.120  0.4375 -0.1889  1.8379
 1712TIP3   OH226626   2.039   1.752   0.123  0.2881 -0.4416 -0.3660
 1712TIP3    H126627   1.973   1.690   0.154  0.2244 -1.0895 -1.7388
 1712TIP3    H226628   1.989   1.826   0.088  0.3570  0.2461  0.9667
 1713TIP3   OH226629   5.313   3.839  13.797 -0.1474  0.4680 -0.2783
 1713TIP3    H126630   5.266   3.756  13.801  0.6127 -0.0273 -1.3533
 1713TIP3    H226631   5.302   3.869  13.706 -0.3377  1.4896  0.0719
 1714TIP3   OH226632   4.628   0.803  12.665  0.0681 -0.3427 -0.1658
 1714TIP3    H126633   4.671   0.842  12.741  1.9198 -1.0363 -0.8355
 1714TIP3    H226634   4.606   0.877  12.609 -0.1525  0.0679  0.4631
 1715TIP3   OH226635   4.172   5.993   2.545  0.2443  0.0573 -0.3749
 1715TIP3    H126636   4.163   6.012   2.639  1.5506 -0.4892 -0.1232
 1715TIP3    H226637   4.114   6.056   2.502  0.6228  1.1964  0.7320
 1716TIP3   OH226638   3.184   4.582  15.574 -0.3260 -0.2380 -0.2412
 1716TIP3    H126639   3.230   4.666  15.567 -0.3853 -0.2516 -0.8040
 1716TIP3    H226640   3.199   4.540  15.489 -1.5682 -0.1520 -0.5054
 1717TIP3   OH226641   2.351   0.837   1.914  0.2674 -0.8159  0.1212
 1717TIP3    H126642   2.446   0.827   1.908  0.4130  0.7586 -0.5737
 1717TIP3    H226643   2.339   0.915   1.969 -0.5676  0.2001 -1.4504
 1718TIP3   OH226644   6.349   0.574  14.191  0.3761 -0.1946 -0.2608
 1718TIP3    H126645   6.383   0.499  14.241  1.0714  0.5721  0.4214
 1718TIP3    H226646   6.334   0.538  14.103  0.4739 -1.1958  0.1162
 1719TIP3   OH226647   0.614   5.092   0.531 -0.0129 -0.3485  0.2770
 1719TIP3    H126648   0.620   5.123   0.621  0.6270 -1.2008  0.5433
 1719TIP3    H226649   0.525   5.058   0.522 -0.2831  0.3402  0.3888
 1720TIP3   OH226650   1.321   3.067   5.501 -0.2352  0.2873 -0.3522
 1720TIP3    H126651   1.306   3.155   5.465 -0.2769  0.5100  0.2053
 1720TIP3    H226652   1.271   3.009   5.443 -0.4482  0.6589 -0.5490
 1721TIP3   OH226653   0.682   1.934  15.182  0.0599 -0.0725 -0.3696
 1721TIP3    H126654   0.615   2.002  15.188  0.4675  0.3070 -0.0858
 1721TIP3    H226655   0.730   1.954  15.102  0.7105  0.4672  0.1504
 1722TIP3   OH226656   1.873   0.899   1.638  0.5150  0.1573  0.3093
 1722TIP3    H126657   1.813   0.873   1.708 -0.2983 -0.0930 -0.4693
 1722TIP3    H226658   1.960   0.881   1.673  0.0197 -2.3149  0.3205
 1723TIP3   OH226659   6.575   5.408  15.810 -0.4031  0.3486 -0.1413
 1723TIP3    H126660   6.573   5.315  15.784 -0.6087  0.7904 -1.8125
 1723TIP3    H226661   6.516   5.451  15.747 -0.0164  1.6765  0.3864
 1724TIP3   OH226662   5.406   0.368  13.585  0.0522  0.2336  0.0356
 1724TIP3    H126663   5.341   0.346  13.652 -1.7829  0.5671 -1.6205
 1724TIP3    H226664   5.403   0.463  13.579 -0.9951  0.1202 -1.6659
 1725TIP3   OH226665   1.473   6.361   5.363 -0.8447 -0.4796 -0.1840
 1725TIP3    H126666   1.554   6.322   5.397 -0.9587  1.3581  2.3643
 1725TIP3    H226667   1.502   6.418   5.292  0.1311  0.2300  0.7707
 1726TIP3   OH226668   0.178   4.976  11.323  0.0205 -0.4722 -0.6801
 1726TIP3    H126669   0.219   4.929  11.249  1.9119 -0.5375  0.3743
 1726TIP3    H226670   0.205   5.067  11.311  0.6817 -0.5501  0.1318
 1727TIP3   OH226671   0.865   3.186   4.693 -0.2240  0.2589  0.3257
 1727TIP3    H126672   0.777   3.164   4.723  0.0190 -1.6765 -0.3142
 1727TIP3    H226673   0.851   3.236   4.613 -0.7798  2.3161  1.6570
 1728TIP3   OH226674   0.419   0.857   4.658  0.0298  0.4122  0.3190
 1728TIP3    H126675   0.373   0.802   4.722  0.5854  0.8805  1.1234
 1728TIP3    H226676   0.456   0.794   4.596  1.0096 -0.1653  1.4700
 1729TIP3   OH226677   6.050   5.066   5.482 -0.4623  0.6992  0.3399
 1729TIP3    H126678   6.096   5.005   5.425 -1.8424  0.3967 -0.4627
 1729TIP3    H226679   6.045   5.021   5.567 -1.7691 -0.4656 -0.3369
 1730TIP3   OH226680   4.669   6.009   6.275  0.0511  0.1210  0.0575
 1730TIP3    H126681   4.611   6.044   6.342 -0.6259 -0.2331 -0.3374
 1730TIP3    H226682   4.681   6.082   6.214 -0.0005  0.1897  0.1286
 1731TIP3   OH226683   1.552   3.436   5.381 -0.0835  0.1579  0.4172
 1731TIP3    H126684   1.592   3.387   5.310 -2.3327 -1.4257  0.1658
 1731TIP3    H226685   1.621   3.494   5.413  1.7699 -1.0899 -1.2170
 1732TIP3   OH226686   3.056   4.680   1.173  0.0884  0.0192 -0.3088
 1732TIP3    H126687   3.137   4.712   1.132  0.9587 -1.1358  0.4753
 1732TIP3    H226688   2.986   4.719   1.121  1.1545  0.5511 -1.3718
 1733TIP3   OH226689   4.990   2.901  12.621  0.6442  0.3661  0.4198
 1733TIP3    H126690   5.002   2.996  12.621  3.5081  0.0634 -0.6157
 1733TIP3    H226691   4.994   2.877  12.528 -0.3301 -0.7433  0.6530
 1734TIP3   OH226692   6.274   2.647   5.586  0.2763  0.6115  0.0423
 1734TIP3    H126693   6.226   2.701   5.649 -0.6965  1.0688 -1.0682
 1734TIP3    H226694   6.245   2.558   5.604  0.9376  0.5962  1.0546
 1735TIP3   OH226695   2.082   6.560   2.697  0.2151 -0.2884 -0.0435
 1735TIP3    H126696   2.023   6.491   2.726  0.0786 -0.3456 -0.4582
 1735TIP3    H226697   2.025   6.634   2.676  0.1619 -0.7990 -1.7811
 1736TIP3   OH226698   3.142   2.612  14.553 -1.0837  0.0584  0.1173
 1736TIP3    H126699   3.054   2.585  14.527 -1.2460  1.2173 -0.5856
 1736TIP3    H226700   3.194   2.603  14.473 -1.2030  2.0038 -0.2161
 1737TIP3   OH226701   4.064   5.024  15.028 -0.0294  0.1141  0.5980
 1737TIP3    H126702   4.016   5.103  15.052 -1.6157 -0.6443 -0.0245
 1737TIP3    H226703   4.151   5.036  15.066 -0.7563  1.4351  1.8600
 1738TIP3   OH226704   3.794   0.877   1.853 -0.2697 -0.3903  0.0516
 1738TIP3    H126705   3.725   0.854   1.915 -0.2277 -0.0458  0.2267
 1738TIP3    H226706   3.749   0.887   1.769 -1.1363  3.8727  0.8926
 1739TIP3   OH226707   1.191   3.014   0.912 -0.3893  0.2661  0.0656
 1739TIP3    H126708   1.232   2.954   0.973 -1.9785 -1.5971 -0.6522
 1739TIP3    H226709   1.159   3.086   0.967  0.1503 -0.3044  1.1304
 1740TIP3   OH226710   4.524   5.701   6.376  0.4247 -0.4680 -0.3212
 1740TIP3    H126711   4.570   5.623   6.345  0.6180 -1.4212  2.2507
 1740TIP3    H226712   4.453   5.714   6.312  3.0990 -0.0352 -3.3179
 1741TIP3   OH226713   6.302   0.482  12.968 -0.4430 -0.3829 -0.7628
 1741TIP3    H126714   6.375   0.439  12.923 -0.1606  0.3607 -1.0139
 1741TIP3    H226715   6.299   0.570  12.932 -0.1167  0.2850  0.7737
 1742TIP3   OH226716   6.199   6.494   4.300 -0.6379 -0.6058  0.0784
 1742TIP3    H126717   6.117   6.472   4.257 -1.6305  1.9857  0.5270
 1742TIP3    H226718   6.172   6.540   4.380  1.2286 -0.1665  0.4792
 1743TIP3   OH226719   5.588   2.616   6.029 -0.7012  0.0394  0.3710
 1743TIP3    H126720   5.503   2.582   6.055 -0.5509  0.6073  1.6024
 1743TIP3    H226721   5.613   2.676   6.099 -0.5848  2.0742 -1.3591
 1744TIP3   OH226722   2.693   4.621  14.895  0.3831  0.5238 -0.3571
 1744TIP3    H126723   2.777   4.614  14.939  0.7183  0.5832 -0.9839
 1744TIP3    H226724   2.629   4.592  14.960  1.1397 -2.2880 -0.8117
 1745TIP3   OH226725   4.975   1.559  13.620 -0.5007 -0.2120 -0.2004
 1745TIP3    H126726   4.966   1.627  13.687 -0.3988  0.0010 -0.4021
 1745TIP3    H226727   5.035   1.495  13.659 -0.7081 -0.2602  0.0479
 1746TIP3   OH226728   5.634   1.869   0.599 -0.5408  0.3239 -0.1103
 1746TIP3    H126729   5.613   1.776   0.595  2.4024 -0.4745  1.0764
 1746TIP3    H226730   5.709   1.879   0.539 -1.1554  2.0434 -0.6280
 1747TIP3   OH226731   1.422   4.155   0.937  0.3651 -0.6123 -0.2653
 1747TIP3    H126732   1.484   4.099   0.984  2.1946  0.6127 -1.1432
 1747TIP3    H226733   1.434   4.131   0.845 -0.8951 -0.7616 -0.3964
 1748TIP3   OH226734   3.517   1.890  10.545 -0.0905  0.2447 -0.0246
 1748TIP3    H126735   3.516   1.986  10.545 -0.7554  0.2738  2.2780
 1748TIP3    H226736   3.467   1.866  10.467  1.3367  1.7388 -1.4449
 1749TIP3   OH226737   4.383   2.373  11.037  0.0135 -0.7243 -0.4331
 1749TIP3    H126738   4.375   2.283  11.069 -0.1135  0.3362  2.6923
 1749TIP3    H226739   4.467   2.403  11.071 -0.7364  0.8880  0.0489
 1750TIP3   OH226740   1.013   4.255  13.084 -0.3395  0.2679 -0.5891
 1750TIP3    H126741   0.942   4.195  13.108  1.1940 -1.1589  0.5125
 1750TIP3    H226742   1.013   4.256  12.989 -1.3007 -0.3889 -0.5985
 1751TIP3   OH226743   5.628   2.344   4.204 -0.0092  0.2153 -0.3973
 1751TIP3    H126744   5.586   2.426   4.232  1.9465  1.5583 -1.2546
 1751TIP3    H226745   5.721   2.360   4.216  0.3699 -2.1981  0.1324
 1752TIP3   OH226746   6.136   4.482  13.732 -0.4294 -0.0894  0.5920
 1752TIP3    H126747   6.077   4.542  13.778 -0.2293  1.3642 -0.9934
 1752TIP3    H226748   6.224   4.518  13.746 -0.2099 -0.5300  0.3915
 1753TIP3   OH226749   5.172   5.884   5.012 -0.9465  0.1035  0.2739
 1753TIP3    H126750   5.160   5.794   4.981 -1.5412  0.4664 -0.5870
 1753TIP3    H226751   5.266   5.901   4.998 -0.8525 -0.3384  0.3348
 1754TIP3   OH226752   1.831   5.888  14.977  0.4772  0.2981 -0.2316
 1754TIP3    H126753   1.814   5.832  15.053 -1.6161 -0.8387 -1.4852
 1754TIP3    H226754   1.886   5.835  14.919  0.0277  0.2235 -0.5942
 1755TIP3   OH226755   1.053   6.125   3.684  0.3541  0.0273  0.6729
 1755TIP3    H126756   0.978   6.159   3.733 -0.5995 -0.5007 -0.4118
 1755TIP3    H226757   1.015   6.065   3.620  1.7108 -0.3147  0.1780
 1756TIP3   OH226758   2.086   1.631  14.904  0.1098 -0.4813 -0.2966
 1756TIP3    H126759   1.996   1.599  14.901 -0.3570  0.8548 -1.3716
 1756TIP3    H226760   2.078   1.725  14.885  1.8553 -0.6171 -1.7970
 1757TIP3   OH226761   0.067   3.893  11.709 -0.7040 -0.1995  0.1730
 1757TIP3    H126762   0.066   3.810  11.756  0.4846 -1.2811 -1.6655
 1757TIP3    H226763   0.126   3.948  11.760 -0.2731 -0.9919  0.5422
 1758TIP3   OH226764   0.451   2.974   0.017  0.4114 -0.8207 -0.2250
 1758TIP3    H126765   0.547   2.965   0.015  0.6471  0.1498  3.1657
 1758TIP3    H226766   0.421   2.902   0.072 -0.5684  0.1464  0.5374
 1759TIP3   OH226767   5.555   0.615   6.275 -0.2040 -0.2298  0.4353
 1759TIP3    H126768   5.626   0.638   6.334 -1.9048  2.8234  1.4186
 1759TIP3    H226769   5.476   0.615   6.330 -0.9776 -3.7496 -0.5815
 1760TIP3   OH226770   3.171   2.560  16.952 -0.2477 -0.0551  0.1785
 1760TIP3    H126771   3.128   2.587  16.871 -1.2335  0.6015  0.8881
 1760TIP3    H226772   3.160   2.635  17.010 -0.6833 -0.9911  1.3308
 1761TIP3   OH226773   1.067   0.858   4.383 -0.8051  0.1904 -0.1690
 1761TIP3    H126774   0.978   0.841   4.413 -0.7513 -0.0444 -0.1439
 1761TIP3    H226775   1.093   0.778   4.338 -0.1266 -0.2427  0.9667
 1762TIP3   OH226776   1.133   5.849   2.891  0.1307 -0.3768  0.2319
 1762TIP3    H126777   1.070   5.919   2.908  0.8257 -0.1586  2.0426
 1762TIP3    H226778   1.176   5.875   2.809 -0.8365  0.4155 -0.0311
 1763TIP3   OH226779   4.049   0.169   1.006  0.0237 -0.1673 -0.4644
 1763TIP3    H126780   4.094   0.090   1.038 -0.7773 -1.7317 -3.0336
 1763TIP3    H226781   3.998   0.138   0.931 -0.3201  2.8247 -1.5096
 1764TIP3   OH226782   5.255   2.761  13.498 -0.5704 -0.1312 -0.5786
 1764TIP3    H126783   5.330   2.820  13.492 -2.0030  1.7177 -0.7395
 1764TIP3    H226784   5.273   2.707  13.574 -0.4196  2.2818  1.1672
 1765TIP3   OH226785   2.849   1.816  11.184 -0.3908  0.0476  0.1726
 1765TIP3    H126786   2.894   1.899  11.165 -0.7792  0.1978 -0.1090
 1765TIP3    H226787   2.791   1.803  11.109 -1.0894  0.0435  0.7079
 1766TIP3   OH226788   0.371   6.757  14.730 -0.1101  0.5281 -0.4478
 1766TIP3    H126789   0.354   6.681  14.785 -2.6968  1.6017  0.3390
 1766TIP3    H226790   0.399   6.825  14.792 -2.1851  1.4930 -0.5335
 1767TIP3   OH226791   1.843   2.769   2.244  0.2247 -0.0299 -0.2524
 1767TIP3    H126792   1.930   2.730   2.245  0.9124  1.4549  1.7158
 1767TIP3    H226793   1.860   2.864   2.238 -1.1377  0.4586  2.7609
 1768TIP3   OH226794   0.285   4.311   6.171  0.2788  0.0879 -0.3075
 1768TIP3    H126795   0.195   4.339   6.189  0.3576 -0.0091  0.2411
 1768TIP3    H226796   0.334   4.393   6.164  0.1259  0.1452 -0.7379
 1769TIP3   OH226797   0.460   1.958   1.840  0.0070 -0.1216  0.1742
 1769TIP3    H126798   0.373   1.997   1.833 -1.2931 -2.1274  3.8868
 1769TIP3    H226799   0.449   1.869   1.807  0.4341 -0.6576  1.4605
 1770TIP3   OH226800   1.918   0.442   2.232 -0.3740 -0.1485  0.9786
 1770TIP3    H126801   1.986   0.446   2.299  0.6329 -0.5892 -0.0076
 1770TIP3    H226802   1.896   0.349   2.226 -1.9598  0.1318  2.1746
 1771TIP3   OH226803   4.027   3.974  11.197  0.4416  0.8597  0.6456
 1771TIP3    H126804   3.982   3.953  11.279 -0.5537  0.1602 -0.0624
 1771TIP3    H226805   4.079   4.052  11.217  2.3033 -0.8238  2.7001
 1772TIP3   OH226806   5.368   2.755   3.735 -0.4051 -0.1015  0.0761
 1772TIP3    H126807   5.297   2.693   3.727  1.7549 -2.6193 -0.1492
 1772TIP3    H226808   5.354   2.818   3.664 -2.5605 -0.3608  0.2605
 1773TIP3   OH226809   0.532   3.825  13.418  0.3193  0.1149  0.3387
 1773TIP3    H126810   0.546   3.843  13.511 -0.2691  1.2599  0.2204
 1773TIP3    H226811   0.470   3.893  13.390 -0.2430 -0.8039 -0.6660
 1774TIP3   OH226812   3.710   0.726  14.877 -0.4168  0.6405 -0.3664
 1774TIP3    H126813   3.702   0.658  14.943 -1.5750  0.2388 -0.9026
 1774TIP3    H226814   3.804   0.745  14.873  0.1817 -2.1625 -1.4149
 1775TIP3   OH226815   5.589   6.051  12.457  0.6451 -0.3613 -0.5083
 1775TIP3    H126816   5.597   6.121  12.522 -1.7107 -0.3788 -0.1441
 1775TIP3    H226817   5.550   5.978  12.504  1.1847 -1.2084 -1.3612
 1776TIP3   OH226818   3.989   4.054   4.231  0.0940  0.2463 -0.6236
 1776TIP3    H126819   3.985   4.148   4.214 -1.3211  0.2015 -0.6265
 1776TIP3    H226820   3.912   4.037   4.285  0.5398 -0.8581 -0.3261
 1777TIP3   OH226821   5.314   6.127  17.245  0.7413 -0.6860 -0.2746
 1777TIP3    H126822   5.333   6.049  17.298  0.7414  1.0295  2.3609
 1777TIP3    H226823   5.373   6.194  17.279  0.6783  0.5082 -2.4410
 1778TIP3   OH226824   0.666   1.963  13.544 -0.4973  0.4232 -0.7178
 1778TIP3    H126825   0.619   1.919  13.472  2.4675 -0.6042 -2.1267
 1778TIP3    H226826   0.690   2.048  13.508  1.2559 -0.2079 -1.1227
 1779TIP3   OH226827   2.368   4.560  15.779  0.2229 -0.2522  0.4493
 1779TIP3    H126828   2.285   4.602  15.799  1.0222  2.3969 -1.4443
 1779TIP3    H226829   2.422   4.574  15.857  1.2135  4.3623 -0.8889
 1780TIP3   OH226830   5.991   1.780   0.765  0.0029 -0.3319 -0.2540
 1780TIP3    H126831   5.917   1.725   0.743 -2.3453  2.8446 -0.6795
 1780TIP3    H226832   6.061   1.753   0.705 -1.6491 -1.5831 -1.6310
 1781TIP3   OH226833   5.609   4.171   3.070 -0.1919 -0.3194  0.4183
 1781TIP3    H126834   5.600   4.240   3.004 -0.4515 -0.5753  0.1799
 1781TIP3    H226835   5.579   4.092   3.025  2.3835 -1.0489 -0.1046
 1782TIP3   OH226836   6.426   3.816   1.325 -0.8365 -0.3229  0.0473
 1782TIP3    H126837   6.399   3.750   1.389 -0.3824 -0.6352 -0.0837
 1782TIP3    H226838   6.521   3.813   1.325 -0.8232 -0.0204 -0.3331
 1783TIP3   OH226839   3.081   1.462   1.357  0.2419  0.2838 -0.5259
 1783TIP3    H126840   3.159   1.513   1.377 -0.4893  1.2380 -0.0611
 1783TIP3    H226841   3.042   1.507   1.281 -0.4097  0.4404 -0.1051
 1784TIP3   OH226842   6.604   4.479  14.078  0.2561 -0.2221 -0.6575
 1784TIP3    H126843   6.556   4.442  14.004  1.2730 -1.0791 -0.9089
 1784TIP3    H226844   6.648   4.404  14.118  1.6139  0.5688 -0.6135
 1785TIP3   OH226845   1.699   1.914  16.436 -0.5572 -0.4977  0.1751
 1785TIP3    H126846   1.789   1.906  16.403 -0.8924  0.6619 -1.0825
 1785TIP3    H226847   1.681   2.008  16.434 -1.2170 -0.5643  2.0383
 1786TIP3   OH226848   6.538   2.120   3.804 -0.2037 -0.9337 -0.0943
 1786TIP3    H126849   6.446   2.096   3.791  0.5923 -3.3245 -1.7661
 1786TIP3    H226850   6.585   2.069   3.737  2.2882  0.5858  0.4536
 1787TIP3   OH226851   4.181   1.046  14.178  0.4664 -0.5387  0.4753
 1787TIP3    H126852   4.095   1.036  14.137  0.1868  0.7222  0.7457
 1787TIP3    H226853   4.215   1.128  14.143  0.6431  0.0601  2.0234
 1788TIP3   OH226854   1.881   1.902  15.215  0.0459 -0.5724  0.0858
 1788TIP3    H126855   1.958   1.855  15.249 -0.8110 -1.8443  0.3296
 1788TIP3    H226856   1.916   1.980  15.173  1.3286 -0.1281  1.9084
 1789TIP3   OH226857   4.724   5.455  11.634 -0.3089  0.2904  0.5662
 1789TIP3    H126858   4.682   5.435  11.550 -1.1048 -0.8330  1.2020
 1789TIP3    H226859   4.804   5.403  11.633  0.7044  1.8310 -0.3213
 1790TIP3   OH226860   3.074   1.097   0.623  0.0636 -0.1727  0.2333
 1790TIP3    H126861   3.091   1.181   0.579 -2.3648 -1.0769 -2.5542
 1790TIP3    H226862   3.160   1.067   0.651  1.3881  1.6341 -1.7530
 1791TIP3   OH226863   6.105   6.245   3.770 -0.5510 -0.3181  0.0213
 1791TIP3    H126864   6.118   6.157   3.736 -1.3974 -1.2669  2.0699
 1791TIP3    H226865   6.193   6.279   3.783 -0.2205 -0.6500 -1.2387
 1792TIP3   OH226866   3.092   4.848  13.050 -0.1712 -0.2861 -0.1747
 1792TIP3    H126867   3.078   4.928  13.100  0.9725 -0.1654 -0.0312
 1792TIP3    H226868   3.082   4.778  13.114 -2.1841 -0.3401 -0.4987
 1793TIP3   OH226869   2.678   0.389  15.857  0.5136 -0.3239 -0.0303
 1793TIP3    H126870   2.642   0.307  15.822 -0.6295 -0.4824  1.4920
 1793TIP3    H226871   2.757   0.404  15.804 -0.9390 -0.7635 -2.3779
 1794TIP3   OH226872   4.289   1.955   4.053  0.0717  0.4942 -0.0732
 1794TIP3    H126873   4.320   1.960   4.144 -1.3853 -0.0727  0.4618
 1794TIP3    H226874   4.212   1.898   4.057 -0.8230  1.5932 -1.4548
 1795TIP3   OH226875   0.977   4.494  11.102  0.0890  0.3666 -0.4438
 1795TIP3    H126876   0.912   4.423  11.102  0.2587  0.1757 -2.4930
 1795TIP3    H226877   1.059   4.452  11.077  0.6740  0.8983  0.5620
 1796TIP3   OH226878   1.367   2.597   4.669  0.5931  0.0572 -0.4167
 1796TIP3    H126879   1.410   2.592   4.755  2.1199  0.3203 -1.1456
 1796TIP3    H226880   1.379   2.688   4.641 -0.0331  0.0109 -0.8343
 1797TIP3   OH226881   6.539   4.688  13.568  0.0063 -0.1136  0.1387
 1797TIP3    H126882   6.601   4.646  13.508  1.2905  3.6662 -1.2901
 1797TIP3    H226883   6.453   4.670  13.530  0.5142 -1.3491 -0.4729
 1798TIP3   OH226884   0.485   4.806   3.472  0.8515 -0.1008 -0.3840
 1798TIP3    H126885   0.546   4.845   3.534  0.9208 -0.9058  0.0545
 1798TIP3    H226886   0.517   4.834   3.386  2.0773 -0.8392 -0.1881
 1799TIP3   OH226887   1.343   0.173   4.231 -0.0840 -0.5005  0.0599
 1799TIP3    H126888   1.395   0.253   4.226  0.1384 -0.6906 -0.6393
 1799TIP3    H226889   1.276   0.183   4.164 -0.4659 -0.6079  0.4228
 1800TIP3   OH226890   0.296   4.877  12.797 -0.6056 -0.3144  0.6716
 1800TIP3    H126891   0.266   4.789  12.774 -0.6952 -0.2592  0.5751
 1800TIP3    H226892   0.225   4.935  12.770  0.1048 -0.0607 -0.6688
 1801TIP3   OH226893   0.439   3.730   2.887  0.1755 -0.2357  0.4910
 1801TIP3    H126894   0.410   3.768   2.804  1.6915  0.8969  0.4536
 1801TIP3    H226895   0.477   3.804   2.935  2.2380 -1.4772  0.8471
 1802TIP3   OH226896   6.757   0.626   5.858  0.2218  0.5183  0.0032
 1802TIP3    H126897   6.716   0.545   5.827 -0.5085  1.0995 -0.5852
 1802TIP3    H226898   6.745   0.687   5.785 -0.8678  1.6892  1.1404
 1803TIP3   OH226899   0.827   1.380   2.524  0.6719 -0.9321  0.0452
 1803TIP3    H126900   0.894   1.379   2.593 -0.8634  1.1473  1.6413
 1803TIP3    H226901   0.807   1.288   2.509  0.1682 -1.4295  3.3064
 1804TIP3   OH226902   6.134   6.370  16.332  0.2778 -0.1754 -0.0752
 1804TIP3    H126903   6.079   6.346  16.407 -0.3844  1.2029 -0.1038
 1804TIP3    H226904   6.088   6.335  16.256  0.8445 -1.3927  0.1217
 1805TIP3   OH226905   3.752   4.535   0.208  0.3778  0.5892 -0.0223
 1805TIP3    H126906   3.723   4.540   0.117 -2.4022  2.0905  0.8583
 1805TIP3    H226907   3.771   4.625   0.232  1.9102  0.1008  0.6645
 1806TIP3   OH226908   0.970   6.387   5.541 -0.4203  0.6575  0.3251
 1806TIP3    H126909   1.031   6.432   5.599 -0.6389  0.7334  0.4973
 1806TIP3    H226910   0.970   6.297   5.573 -1.1584  0.8778  0.9594
 1807TIP3   OH226911   4.542   3.998   5.357 -0.1486  0.0983  0.0293
 1807TIP3    H126912   4.508   3.934   5.294  0.8664 -0.2567 -0.1696
 1807TIP3    H226913   4.489   3.985   5.435 -1.7211  0.8487 -0.8868
 1808TIP3   OH226914   1.707   1.293   0.450  0.7023 -0.1047  0.1637
 1808TIP3    H126915   1.743   1.211   0.484  1.6555  0.9018  1.6506
 1808TIP3    H226916   1.675   1.339   0.527  1.0317  1.3271 -0.5442
 1809TIP3   OH226917   1.942   1.506   4.608 -0.2253  0.2093 -0.1382
 1809TIP3    H126918   1.971   1.573   4.669 -0.4372 -1.7022  2.1375
 1809TIP3    H226919   2.021   1.480   4.561 -0.2374  2.3712 -1.3819
 1810TIP3   OH226920   6.141   4.971  11.865  0.1766 -0.3832  0.0019
 1810TIP3    H126921   6.199   5.014  11.802 -0.1782  1.4387  0.9005
 1810TIP3    H226922   6.074   4.928  11.810  1.9538 -1.9527 -0.9975
 1811TIP3   OH226923   5.987   5.633   2.076 -0.3984  0.1639 -0.0049
 1811TIP3    H126924   5.976   5.603   2.166 -0.5218 -0.2226 -0.1470
 1811TIP3    H226925   5.974   5.555   2.023 -0.6205  0.4492 -0.3740
 1812TIP3   OH226926   1.366   3.113  17.010 -0.4851  0.0406 -0.0751
 1812TIP3    H126927   1.436   3.128  17.074  0.1275 -0.3154 -0.6656
 1812TIP3    H226928   1.296   3.173  17.038 -0.0525  0.2134  0.6643
 1813TIP3   OH226929   0.864   0.889  11.721  0.4228 -0.2466  0.3406
 1813TIP3    H126930   0.838   0.797  11.724  1.3828 -0.5333 -0.1380
 1813TIP3    H226931   0.808   0.927  11.653  0.6267 -0.6666 -0.0646
 1814TIP3   OH226932   1.716   0.821  15.170 -0.6066 -0.2587  0.6166
 1814TIP3    H126933   1.754   0.796  15.085  0.4239 -0.1389  1.0388
 1814TIP3    H226934   1.733   0.747  15.227 -0.3110  0.1170  1.0230
 1815TIP3   OH226935   5.571   4.291   6.434 -0.7587  0.3827  0.2102
 1815TIP3    H126936   5.484   4.275   6.469 -0.6787 -0.2701  0.1197
 1815TIP3    H226937   5.629   4.286   6.510 -0.5941 -0.9625  0.0181
 1816TIP3   OH226938   5.975   0.671   1.315  0.2593  0.0310  0.0117
 1816TIP3    H126939   5.967   0.700   1.224 -1.0973  0.3866  0.2201
 1816TIP3    H226940   5.897   0.707   1.358  1.2907  0.5310  1.4982
 1817TIP3   OH226941   4.798   4.003   2.789  0.2181 -0.0652  0.2662
 1817TIP3    H126942   4.763   4.042   2.709  1.7118  0.0242 -0.3485
 1817TIP3    H226943   4.727   4.012   2.853 -0.8520  0.1774 -0.9416
 1818TIP3   OH226944   4.015   6.236   5.074  0.0952 -0.0322  0.3683
 1818TIP3    H126945   4.034   6.227   4.980 -1.9524  0.3408 -0.1085
 1818TIP3    H226946   3.985   6.149   5.100 -1.5763  0.4602  0.1247
 1819TIP3   OH226947   4.505   4.378  14.047  0.2410  0.4892 -0.0071
 1819TIP3    H126948   4.594   4.375  14.013  0.1567  0.7559 -0.2525
 1819TIP3    H226949   4.488   4.289  14.077  0.9827  0.7053  1.0547
 1820TIP3   OH226950   5.442   4.557   1.711  0.1920 -0.7380 -0.1172
 1820TIP3    H126951   5.454   4.622   1.642 -0.4013 -0.7501 -0.2334
 1820TIP3    H226952   5.529   4.520   1.724  0.2729 -0.8672 -0.9879
 1821TIP3   OH226953   6.582   4.991   0.917 -0.7447  0.0013  0.6422
 1821TIP3    H126954   6.633   5.040   0.853  0.2584  1.4424  2.4935
 1821TIP3    H226955   6.499   4.971   0.873  0.2726  0.1913 -1.3782
 1822TIP3   OH226956   1.933   0.455  17.268 -0.1771  0.2496 -0.9115
 1822TIP3    H126957   1.848   0.472  17.308  0.2322 -0.0804  0.1210
 1822TIP3    H226958   1.918   0.382  17.208 -0.6708  0.3581 -0.9187
 1823TIP3   OH226959   4.257   5.508  14.227  0.2095 -0.2186 -0.2072
 1823TIP3    H126960   4.313   5.464  14.290 -0.0263 -1.0523 -0.5629
 1823TIP3    H226961   4.205   5.437  14.188  0.5694  0.2357 -1.5523
 1824TIP3   OH226962   4.360   3.413   3.082  0.1685  0.0442 -0.3155
 1824TIP3    H126963   4.372   3.508   3.091  0.7065 -0.1785  1.5788
 1824TIP3    H226964   4.449   3.377   3.086 -0.1846 -0.6904  1.0283
 1825TIP3   OH226965   6.129   4.965  16.208 -0.3466  0.0709 -0.7431
 1825TIP3    H126966   6.202   4.938  16.263 -0.1304 -0.6094 -1.3622
 1825TIP3    H226967   6.084   5.033  16.259  1.9584  2.0263 -1.2671
 1826TIP3   OH226968   0.153   1.089  14.225  0.7729 -0.0611  0.1907
 1826TIP3    H126969   0.103   1.046  14.295 -0.2309  2.2675  0.9730
 1826TIP3    H226970   0.241   1.052  14.232  0.0978 -1.5224  1.2095
 1827TIP3   OH226971   1.972   0.294  15.908 -0.9315  0.2960  0.7177
 1827TIP3    H126972   2.020   0.214  15.888 -0.5125  0.3285  1.6146
 1827TIP3    H226973   2.021   0.336  15.978 -1.5937  0.9385  0.8100
 1828TIP3   OH226974   6.502   1.503  12.433 -0.3656 -0.7853  0.0287
 1828TIP3    H126975   6.580   1.478  12.484  0.0435  1.9434  0.7959
 1828TIP3    H226976   6.526   1.586  12.392 -3.5715  1.1797  1.9526
 1829TIP3   OH226977   1.631   4.369  13.007 -0.1980  0.4206  0.8266
 1829TIP3    H126978   1.550   4.420  12.997  0.6144  1.2791 -1.7448
 1829TIP3    H226979   1.675   4.410  13.081 -1.9955  0.0815  2.1210
 1830TIP3   OH226980   4.025   6.594  15.402 -0.4145 -0.5432  0.2035
 1830TIP3    H126981   4.007   6.516  15.350 -1.1234  0.0998 -0.5225
 1830TIP3    H226982   4.046   6.662  15.338  0.5591 -0.2188  0.8430
 1831TIP3   OH226983   1.338   4.425  12.053  0.4635  0.3837 -0.2005
 1831TIP3    H126984   1.266   4.392  12.108  0.3497  1.3041  0.2081
 1831TIP3    H226985   1.299   4.495  12.001  0.7965  0.1293 -0.7961
 1832TIP3   OH226986   5.936   4.782  15.787  0.3548  0.2454 -0.8705
 1832TIP3    H126987   5.937   4.735  15.704 -1.2482 -0.9610 -0.2408
 1832TIP3    H226988   6.013   4.750  15.834 -0.8205 -1.9574 -0.3692
 1833TIP3   OH226989   6.355   3.831  14.991  0.2022 -0.5427  0.2573
 1833TIP3    H126990   6.355   3.882  14.910 -0.7341 -2.0166 -0.6946
 1833TIP3    H226991   6.357   3.897  15.061 -1.6637  0.8183 -0.9337
 1834TIP3   OH226992   0.783   4.430   0.293  0.2594  0.4389 -0.1994
 1834TIP3    H126993   0.692   4.440   0.321  0.1841 -0.3047 -0.1543
 1834TIP3    H226994   0.831   4.418   0.374  0.3182  0.2740 -0.2586
 1835TIP3   OH226995   0.150   4.150   2.425  0.1949  0.1314  0.4520
 1835TIP3    H126996   0.182   4.062   2.403 -1.4132 -0.0765 -1.2287
 1835TIP3    H226997   0.229   4.204   2.430  1.0930 -1.1004 -0.0210
 1836TIP3   OH226998   3.176   1.267  14.353  0.0968  0.2714  0.4081
 1836TIP3    H126999   3.262   1.234  14.326 -0.2137 -0.2791  0.0874
 1836TIP3    H227000   3.177   1.261  14.448  0.7698  1.1464  0.4614
 1837TIP3   OH227001   0.702   2.448   3.194 -0.1915 -0.1802  0.3683
 1837TIP3    H127002   0.733   2.501   3.267  1.9963 -0.5005 -0.2826
 1837TIP3    H227003   0.716   2.502   3.116 -0.6780 -0.5895 -0.0148
 1838TIP3   OH227004   0.209   3.823  14.495  0.1665 -0.0981  0.2217
 1838TIP3    H127005   0.159   3.800  14.416 -1.2264  0.3551  0.9521
 1838TIP3    H227006   0.214   3.742  14.545 -0.6385  0.0756  0.5819
 1839TIP3   OH227007   4.032   2.083   4.478 -0.3679 -0.1725  0.0069
 1839TIP3    H127008   4.008   1.996   4.446  1.2977 -0.4306 -0.6028
 1839TIP3    H227009   4.072   2.126   4.403  0.4256  0.4679  0.7831
 1840TIP3   OH227010   4.566   2.954  11.931 -0.2297  0.3838  0.3981
 1840TIP3    H127011   4.617   2.874  11.939  0.4127  0.7000 -0.4699
 1840TIP3    H227012   4.599   2.995  11.851  0.6425  2.3450  1.7197
 1841TIP3   OH227013   0.782   2.029  14.067 -0.2332  0.3613  0.3332
 1841TIP3    H127014   0.730   2.010  13.988  0.3121  0.2488 -0.0002
 1841TIP3    H227015   0.742   2.108  14.103 -1.0467 -0.0885  0.4374
 1842TIP3   OH227016   3.574   4.008   5.463  0.5588 -0.8107  0.1134
 1842TIP3    H127017   3.533   4.056   5.392 -0.4670 -0.6725  0.7821
 1842TIP3    H227018   3.623   4.074   5.513 -5.1832  0.7764  4.2312
 1843TIP3   OH227019   0.169   5.764   5.603 -0.2953  0.0863 -0.0771
 1843TIP3    H127020   0.226   5.703   5.556  0.9481 -0.3037  1.8672
 1843TIP3    H227021   0.200   5.851   5.577 -0.4728 -0.1037 -0.9578
 1844TIP3   OH227022   1.352   5.873  14.758  0.3824  0.1885  0.1527
 1844TIP3    H127023   1.404   5.933  14.705 -0.7262 -2.0346 -3.6063
 1844TIP3    H227024   1.271   5.920  14.777  0.0335  0.3491 -1.7153
 1845TIP3   OH227025   3.305   2.445   2.153 -0.0384  0.2224  0.0852
 1845TIP3    H127026   3.343   2.359   2.135 -0.2641  0.1283  0.0546
 1845TIP3    H227027   3.211   2.433   2.137 -0.2776  0.0772  1.5741
 1846TIP3   OH227028   3.062   4.842  14.284  0.9675  0.0240 -0.0866
 1846TIP3    H127029   3.086   4.753  14.255  0.9548  0.0468 -0.1669
 1846TIP3    H227030   3.001   4.873  14.217 -0.1418 -0.4520  0.6921
 1847TIP3   OH227031   2.421   2.608  15.047 -0.3253  0.4293  0.3094
 1847TIP3    H127032   2.508   2.584  15.079 -0.5501  0.0715  0.6584
 1847TIP3    H227033   2.402   2.690  15.093  0.9919  1.9995 -1.8752
 1848TIP3   OH227034   4.461   1.972   0.157 -0.6015 -0.2201 -0.0001
 1848TIP3    H127035   4.456   1.981   0.252 -1.8793  0.4441 -0.1147
 1848TIP3    H227036   4.555   1.970   0.137 -0.3258  0.6779  1.1745
 1849TIP3   OH227037   1.002   0.030  13.575  0.4621 -0.1379  0.4129
 1849TIP3    H127038   1.039  -0.055  13.596 -0.5782 -0.6815  0.0818
 1849TIP3    H227039   1.068   0.093  13.604  0.8326 -1.0179  1.5121
 1850TIP3   OH227040   0.942   4.063  17.104 -0.3139 -0.4989 -0.0692
 1850TIP3    H127041   0.904   4.124  17.040  0.8826 -2.1855 -2.4819
 1850TIP3    H227042   0.869   4.008  17.131 -1.1609  1.2418  1.2542
 1851TIP3   OH227043   3.634   4.804  13.139 -0.0992  0.2590  0.3625
 1851TIP3    H127044   3.661   4.725  13.092 -1.2949 -0.4191  0.7986
 1851TIP3    H227045   3.538   4.802  13.136 -0.2104 -0.0962  3.3111
 1852TIP3   OH227046   6.182   2.602   2.023 -0.2250 -0.2481  0.7997
 1852TIP3    H127047   6.156   2.540   1.954 -0.4485 -0.3028  0.9327
 1852TIP3    H227048   6.123   2.583   2.095 -2.0083  1.8378 -0.0665
 1853TIP3   OH227049   1.586   1.754  12.700  0.5047  0.1010 -0.4081
 1853TIP3    H127050   1.680   1.768  12.687  0.9397 -2.1758  0.0381
 1853TIP3    H227051   1.574   1.760  12.795  0.6151 -1.7767 -0.2478
 1854TIP3   OH227052   5.075   5.264  10.787 -0.7299  0.3312  0.0298
 1854TIP3    H127053   5.083   5.228  10.698  0.2575  0.9190 -0.1309
 1854TIP3    H227054   4.982   5.256  10.807 -1.3556  2.0780 -1.8970
 1855TIP3   OH227055   4.842   6.378  11.308  0.0271 -0.1624  0.0008
 1855TIP3    H127056   4.757   6.337  11.321 -0.6474  1.4309  0.7367
 1855TIP3    H227057   4.822   6.469  11.287  1.5032 -0.1195 -1.3656
 1856TIP3   OH227058   0.273   3.507   1.136  0.2948 -0.4199  0.7106
 1856TIP3    H127059   0.180   3.484   1.134 -0.2350  1.4341  2.2801
 1856TIP3    H227060   0.315   3.434   1.183 -0.5148 -0.7718  0.8902
 1857TIP3   OH227061   0.929   5.354   1.719 -0.4310 -0.8844 -0.5836
 1857TIP3    H127062   0.917   5.273   1.769  0.1305 -0.7826 -0.2820
 1857TIP3    H227063   0.870   5.417   1.760 -1.6189 -1.4215 -1.4568
 1858TIP3   OH227064   6.739   4.114  13.050  0.2403  0.1049 -0.2067
 1858TIP3    H127065   6.760   4.042  13.109 -0.3406  0.0049 -0.1176
 1858TIP3    H227066   6.643   4.113  13.044  0.3293 -0.7986 -2.2412
 1859TIP3   OH227067   0.624   2.389   1.994  0.7661  0.5313  0.0986
 1859TIP3    H127068   0.564   2.464   1.996 -0.0683 -0.1322  0.5097
 1859TIP3    H227069   0.639   2.373   1.900 -1.1374 -0.3989 -0.0825
 1860TIP3   OH227070   2.244   1.514  14.007 -0.5004 -0.3253  0.4442
 1860TIP3    H127071   2.258   1.419  14.001 -1.0031 -0.2655 -2.1771
 1860TIP3    H227072   2.324   1.547  14.049 -0.6218 -1.9751  2.0097
 1861TIP3   OH227073   4.462   0.603  12.735 -0.6091  0.3340 -0.3242
 1861TIP3    H127074   4.508   0.684  12.716  0.2717 -0.0663  0.0934
 1861TIP3    H227075   4.369   0.627  12.733 -0.3421  1.4425  0.2535
 1862TIP3   OH227076   6.048   1.080  14.722  0.2020 -0.5619  0.4576
 1862TIP3    H127077   6.082   1.034  14.798  0.1864 -0.3427  0.5976
 1862TIP3    H227078   5.959   1.046  14.711 -0.6855  1.1878  2.0028
 1863TIP3   OH227079   2.925   0.517  12.405  0.0913  0.6977  0.6176
 1863TIP3    H127080   2.837   0.513  12.369  0.1446  1.1750  0.4207
 1863TIP3    H227081   2.972   0.576  12.345  1.0548 -1.0099 -0.3232
 1864TIP3   OH227082   0.547   3.388   5.301  0.4026  0.1322 -0.0727
 1864TIP3    H127083   0.581   3.474   5.276  0.6704  0.2724  0.7660
 1864TIP3    H227084   0.485   3.366   5.232  0.5113  0.8908 -0.4192
 1865TIP3   OH227085   1.601   5.780   2.794 -0.9461 -0.2149 -0.6426
 1865TIP3    H127086   1.600   5.808   2.702 -1.7959  1.0856 -0.2534
 1865TIP3    H227087   1.689   5.746   2.808 -0.6520  0.0434 -1.8042
 1866TIP3   OH227088   0.814   3.669   0.933  0.4625 -0.4333  0.0598
 1866TIP3    H127089   0.782   3.757   0.911 -1.2291 -0.6313  1.5758
 1866TIP3    H227090   0.901   3.684   0.970  0.3174  0.5886  0.0126
 1867TIP3   OH227091   3.143   4.204  10.914 -1.2274  0.1056  0.1737
 1867TIP3    H127092   3.169   4.135  10.852 -0.7242  0.0093  0.4870
 1867TIP3    H227093   3.100   4.156  10.985  2.8019 -0.3854  2.4391
 1868TIP3   OH227094   1.974   4.892  14.037 -0.5562  0.0438  0.1976
 1868TIP3    H127095   1.926   4.902  13.955 -1.7733 -1.9598  0.6339
 1868TIP3    H227096   1.913   4.923  14.104 -0.2767 -0.1032  0.5185
 1869TIP3   OH227097   0.183   6.035  12.843 -0.1261  0.0089  0.2103
 1869TIP3    H127098   0.249   6.070  12.783  0.5964  0.1005  1.0496
 1869TIP3    H227099   0.202   5.941  12.848 -1.8155 -0.4681 -1.7285
 1870TIP3   OH227100   5.323   6.194   2.833  0.6696  0.1866 -0.2083
 1870TIP3    H127101   5.316   6.215   2.927  1.0628 -0.8709  0.0608
 1870TIP3    H227102   5.417   6.183   2.819  0.7873  2.1207 -1.1298
 1871TIP3   OH227103   0.639   3.377   6.136  0.5593 -0.1474 -0.5027
 1871TIP3    H127104   0.723   3.405   6.170  1.1910 -0.4325 -1.7884
 1871TIP3    H227105   0.642   3.281   6.139 -0.0132 -0.1512  0.1283
 1872TIP3   OH227106   6.613   5.853   4.793 -0.1994  0.1718  0.2410
 1872TIP3    H127107   6.554   5.834   4.867 -1.0795  0.7764 -0.2903
 1872TIP3    H227108   6.580   5.936   4.758 -0.0263 -0.3120 -1.0698
 1873TIP3   OH227109   3.039   3.176  13.547  0.4870  0.5466 -0.4824
 1873TIP3    H127110   3.094   3.186  13.625 -0.2730 -0.1497  0.1685
 1873TIP3    H227111   2.997   3.091  13.559  1.2497 -0.0990 -2.2444
 1874TIP3   OH227112   1.490   1.030   0.617 -0.5304  0.4597  0.2908
 1874TIP3    H127113   1.521   0.971   0.549 -0.3000  0.8391  0.0645
 1874TIP3    H227114   1.442   0.973   0.678 -1.1311  0.1844 -0.4173
 1875TIP3   OH227115   1.493   1.433   3.049  0.1096  0.0238  0.7640
 1875TIP3    H127116   1.414   1.419   2.998  0.1923  1.6314  0.1653
 1875TIP3    H227117   1.547   1.356   3.031 -0.2831  0.0899 -0.7651
 1876TIP3   OH227118   2.226   4.333   2.153  0.4000  0.2817  0.0679
 1876TIP3    H127119   2.162   4.276   2.196 -1.0411  0.8004 -1.3057
 1876TIP3    H227120   2.296   4.344   2.217 -1.8719  1.4308  2.4354
 1877TIP3   OH227121   5.564   3.807   3.285 -0.0461  0.7687  0.1072
 1877TIP3    H127122   5.639   3.828   3.230  0.2148  1.6221  0.7819
 1877TIP3    H227123   5.602   3.773   3.366 -0.3791  1.3163  0.4964
 1878TIP3   OH227124   4.956   6.693  15.035  0.3068  0.5074  0.1960
 1878TIP3    H127125   5.039   6.718  15.075 -0.1131  1.0340  0.7527
 1878TIP3    H227126   4.917   6.631  15.097  0.1456  0.5098  0.0983
 1879TIP3   OH227127   3.105   4.294   1.066 -0.3123 -0.0706 -0.3582
 1879TIP3    H127128   3.075   4.211   1.102 -1.0899  0.5338  0.4258
 1879TIP3    H227129   3.024   4.340   1.043  0.1225  0.3215 -1.1080
 1880TIP3   OH227130   2.063   1.062  12.761  0.0258 -0.4690  0.3884
 1880TIP3    H127131   1.980   1.090  12.799 -0.2132  0.2311 -0.6111
 1880TIP3    H227132   2.039   1.027  12.675  0.9216  1.2681 -0.5959
 1881TIP3   OH227133   6.727   4.701  12.227 -0.5051  0.1671 -0.0337
 1881TIP3    H127134   6.644   4.695  12.274 -1.1933  0.3689 -1.2021
 1881TIP3    H227135   6.747   4.795  12.226  0.7322 -0.0378  1.9104
 1882TIP3   OH227136   1.469   2.548   4.941  0.5056  0.5289  0.5213
 1882TIP3    H127137   1.413   2.598   5.000  0.2886 -0.9669  1.5994
 1882TIP3    H227138   1.504   2.477   4.995 -0.1421 -1.2023 -1.2835
 1883TIP3   OH227139   5.132   5.548   1.276 -0.1329  0.2289  0.0811
 1883TIP3    H127140   5.136   5.476   1.339 -0.3859 -0.6683 -0.8997
 1883TIP3    H227141   5.198   5.610   1.306 -0.0302 -0.3316  1.0464
 1884TIP3   OH227142   2.642   2.241   0.713  0.2087  0.3368 -0.2061
 1884TIP3    H127143   2.679   2.303   0.650  2.4270 -0.9921 -0.2528
 1884TIP3    H227144   2.655   2.283   0.798 -1.0527  1.2658 -0.4513
 1885TIP3   OH227145   6.211   5.128  12.283  0.6600  0.1354 -0.0361
 1885TIP3    H127146   6.201   5.065  12.212 -0.1398  0.7250 -0.4586
 1885TIP3    H227147   6.273   5.087  12.344  3.2155  0.6668 -2.2130
 1886TIP3   OH227148   2.685   4.650  11.113  0.6222  0.2506  0.4936
 1886TIP3    H127149   2.650   4.591  11.046 -1.5358 -0.9608  2.6271
 1886TIP3    H227150   2.617   4.716  11.124  1.8009  1.5593  0.1758
 1887TIP3   OH227151   5.157   0.892  14.903  0.0264  0.3158 -0.0092
 1887TIP3    H127152   5.240   0.845  14.901 -0.6116 -0.8719  0.5929
 1887TIP3    H227153   5.104   0.845  14.968 -1.3413  0.6584 -0.8445
 1888TIP3   OH227154   4.466   4.997   2.715  0.7067 -0.3066 -0.1039
 1888TIP3    H127155   4.489   4.906   2.698  0.3846 -0.4755  0.3523
 1888TIP3    H227156   4.531   5.026   2.779  0.2634 -0.4799  0.4207
 1889TIP3   OH227157   1.162   2.918  16.674  0.1862  0.1119  0.8103
 1889TIP3    H127158   1.082   2.936  16.624  1.7550  1.0332 -1.4858
 1889TIP3    H227159   1.181   3.000  16.719  0.7497  0.4468 -0.0179
 1890TIP3   OH227160   5.022   3.161  15.559 -0.3580 -0.5028  0.7352
 1890TIP3    H127161   5.113   3.133  15.568 -0.9014 -2.0022  1.6919
 1890TIP3    H227162   5.014   3.187  15.467  0.9947 -0.5101  0.6070
 1891TIP3   OH227163   2.154   5.863   1.801  0.3715 -0.0548 -0.2297
 1891TIP3    H127164   2.128   5.791   1.743  0.3924 -0.8839  0.7707
 1891TIP3    H227165   2.190   5.819   1.879 -1.3438  0.9907  1.1913
 1892TIP3   OH227166   4.860   3.496   2.335  0.2060 -0.4929  0.0052
 1892TIP3    H127167   4.807   3.437   2.281  0.9123  1.3145 -2.7687
 1892TIP3    H227168   4.950   3.471   2.316  0.4453 -0.8106  1.5140
 1893TIP3   OH227169   6.610   6.147   1.329  0.4639  0.5114  0.5529
 1893TIP3    H127170   6.622   6.171   1.237  1.3793 -0.0149  0.5277
 1893TIP3    H227171   6.676   6.079   1.345  0.8583  1.1722  1.8115
 1894TIP3   OH227172   5.373   1.884  17.204  0.2650  0.1601  0.0059
 1894TIP3    H127173   5.386   1.812  17.266  0.7359  1.2300  1.1594
 1894TIP3    H227174   5.304   1.937  17.242  0.7648  0.9904 -0.2425
 1895TIP3   OH227175   1.521   0.556  15.420 -0.1572  0.0137  0.5509
 1895TIP3    H127176   1.449   0.604  15.461 -0.0089  0.3774  0.3882
 1895TIP3    H227177   1.482   0.472  15.396 -1.3436  1.2548 -2.1409
 1896TIP3   OH227178   4.153   0.473  10.889  0.1789  0.2623 -0.3012
 1896TIP3    H127179   4.058   0.478  10.874  0.3550 -0.6141 -1.7388
 1896TIP3    H227180   4.191   0.470  10.802  1.4912 -0.3002  0.2826
 1897TIP3   OH227181   5.696   3.609  13.905  0.5387 -0.6670 -0.1887
 1897TIP3    H127182   5.786   3.589  13.878  1.1510  1.5639  0.0857
 1897TIP3    H227183   5.661   3.664  13.835 -0.5068 -1.2748 -0.1444
 1898TIP3   OH227184   6.397   4.979  10.921  0.1080 -0.3316 -0.4398
 1898TIP3    H127185   6.386   5.072  10.903  2.2248  0.3845  1.8819
 1898TIP3    H227186   6.486   4.959  10.894  0.2550 -1.2961  0.7326
 1899TIP3   OH227187   4.460   6.073  11.793 -0.1731 -0.1573 -0.1238
 1899TIP3    H127188   4.375   6.117  11.784 -0.1887 -0.1387  0.1207
 1899TIP3    H227189   4.495   6.105  11.876 -0.3603 -0.9088  0.2480
 1900TIP3   OH227190   4.427   0.317   5.860 -0.5518 -0.7028  0.3315
 1900TIP3    H127191   4.478   0.375   5.804 -2.3740 -0.6072 -1.2958
 1900TIP3    H227192   4.409   0.241   5.805 -0.5787 -1.5711  1.5142
 1901TIP3   OH227193   5.031   5.020   3.379 -0.6395  0.3657 -0.2648
 1901TIP3    H127194   5.017   4.933   3.342  0.0535 -0.5709  1.5967
 1901TIP3    H227195   5.061   5.073   3.305 -1.0591 -0.9765 -1.4208
 1902TIP3   OH227196   1.609   5.079  15.233  0.1274 -0.0017 -0.4550
 1902TIP3    H127197   1.641   4.998  15.272 -0.3273 -0.2604 -0.6141
 1902TIP3    H227198   1.539   5.051  15.173 -0.5892  0.5682  0.0933
 1903TIP3   OH227199   3.623   5.681   4.222  0.6215  0.0660 -0.3350
 1903TIP3    H127200   3.578   5.620   4.165  1.5542 -0.4289 -0.5436
 1903TIP3    H227201   3.715   5.655   4.219  0.5642 -0.5422  2.0882
 1904TIP3   OH227202   0.906   3.089   5.840 -0.2456  0.0531  0.4359
 1904TIP3    H127203   0.977   3.058   5.784 -0.6382  0.8288 -0.5112
 1904TIP3    H227204   0.917   3.184   5.843 -1.4367  0.2201 -0.0127
 1905TIP3   OH227205   4.199   5.812  12.781 -0.0667  0.0236 -0.0407
 1905TIP3    H127206   4.163   5.770  12.704  1.9880 -0.5793 -0.6948
 1905TIP3    H227207   4.123   5.850  12.826 -1.4117 -0.7101 -1.6750
 1906TIP3   OH227208   5.732   1.537  15.285 -0.2063  0.1401 -0.6202
 1906TIP3    H127209   5.780   1.491  15.354 -2.1168  1.6036  1.7665
 1906TIP3    H227210   5.794   1.542  15.212  1.6979 -1.8637  0.7868
 1907TIP3   OH227211   6.776   6.774  16.709 -0.0628  0.3981 -0.0053
 1907TIP3    H127212   6.870   6.776  16.729  0.5660  0.1053 -2.7472
 1907TIP3    H227213   6.749   6.685  16.731  0.0762  0.7346  1.6142
 1908TIP3   OH227214   5.976   4.606   5.551  0.2346  0.2851 -0.1052
 1908TIP3    H127215   5.888   4.608   5.590  0.5628 -0.1428  0.6683
 1908TIP3    H227216   6.026   4.548   5.609  0.9786  0.3887 -0.6455
 1909TIP3   OH227217   2.561   3.816   6.098  0.6221  0.0340  0.5250
 1909TIP3    H127218   2.583   3.899   6.139 -0.0138  0.2971  0.3349
 1909TIP3    H227219   2.480   3.833   6.050  0.2689 -0.8015  0.8193
 1910TIP3   OH227220   2.708   1.152  15.909  0.2142  0.2014 -0.1813
 1910TIP3    H127221   2.753   1.109  15.981  0.8152  0.0676 -0.6366
 1910TIP3    H227222   2.771   1.214  15.874 -0.8033  1.7994  0.7693
 1911TIP3   OH227223   3.504   0.017   3.417 -0.4535  0.3997 -0.0895
 1911TIP3    H127224   3.483  -0.072   3.389  0.5611 -0.2358  1.1154
 1911TIP3    H227225   3.419   0.056   3.438 -0.7092 -1.2187  2.0595
 1912TIP3   OH227226   4.991   1.735  14.452 -0.3420 -0.4406  0.4705
 1912TIP3    H127227   5.035   1.696  14.527  0.0991  1.7588  1.3888
 1912TIP3    H227228   5.057   1.737  14.383 -0.2316 -0.8795  0.5610
 1913TIP3   OH227229   4.617   2.261  11.533 -0.6338  0.1032 -0.1466
 1913TIP3    H127230   4.670   2.214  11.598 -1.2443  0.5375  0.6700
 1913TIP3    H227231   4.678   2.323  11.493 -0.3250  0.0462  0.2294
 1914TIP3   OH227232   1.130   3.332   3.344  0.0832 -0.3355  0.7526
 1914TIP3    H127233   1.120   3.401   3.279  0.6524 -0.3698  0.6252
 1914TIP3    H227234   1.050   3.280   3.337  0.2329 -0.4521 -0.0526
 1915TIP3   OH227235   5.776   5.575   4.166  0.0476 -0.2562 -0.3650
 1915TIP3    H127236   5.717   5.506   4.135  1.0553 -0.2902 -2.2480
 1915TIP3    H227237   5.822   5.604   4.088  0.8070  1.4447  0.6925
 1916TIP3   OH227238   2.705   0.051  10.501 -0.4367 -0.5414  0.4247
 1916TIP3    H127239   2.707   0.021  10.410  0.4748  0.3706  0.1339
 1916TIP3    H227240   2.766   0.125  10.503  0.2450 -1.1310  1.9816
 1917TIP3   OH227241   3.716   3.509  15.245 -0.1528  0.3252  0.2466
 1917TIP3    H127242   3.658   3.436  15.225 -0.2222 -0.1311  2.0082
 1917TIP3    H227243   3.713   3.565  15.168 -0.6343 -1.1871 -0.8416
 1918TIP3   OH227244   1.365   3.056  16.127  0.1157  0.0349  0.5009
 1918TIP3    H127245   1.328   2.972  16.101  2.1313 -0.7166 -0.0564
 1918TIP3    H227246   1.386   3.100  16.045 -0.1254  0.7128  0.7986
 1919TIP3   OH227247   1.565   2.365   2.690 -0.2019 -0.0195 -0.0360
 1919TIP3    H127248   1.556   2.399   2.779  0.7890  1.3818 -0.4678
 1919TIP3    H227249   1.659   2.362   2.674 -0.3114 -1.8074 -0.4657
 1920TIP3   OH227250   3.619   0.307   0.346  0.6627 -0.2367  0.1180
 1920TIP3    H127251   3.677   0.353   0.285  1.1563 -0.6844  0.2466
 1920TIP3    H227252   3.675   0.286   0.420  0.3687 -0.8027  0.1789
 1921TIP3   OH227253   0.720   5.211   3.234 -0.1050  0.5665 -0.5441
 1921TIP3    H127254   0.761   5.235   3.317  0.1416 -0.1369 -0.4627
 1921TIP3    H227255   0.755   5.274   3.171  0.1540  0.7390 -0.2287
 1922TIP3   OH227256   6.527   3.443   5.291 -0.3463  0.7573 -0.1600
 1922TIP3    H127257   6.509   3.412   5.380 -3.2803 -2.2522 -1.6718
 1922TIP3    H227258   6.441   3.444   5.249  0.7722  3.7484 -2.4912
 1923TIP3   OH227259   1.715   0.114  15.174  0.1628  0.5657  0.3396
 1923TIP3    H127260   1.804   0.135  15.148  0.1028  0.5971  0.1584
 1923TIP3    H227261   1.705   0.153  15.261  1.2372 -1.7900  1.5784
 1924TIP3   OH227262   3.342   0.961  11.349  0.6055 -0.4159 -0.0493
 1924TIP3    H127263   3.283   1.023  11.391  1.1513  1.1714 -1.5555
 1924TIP3    H227264   3.409   0.943  11.414 -0.6938 -1.0538  1.1334
 1925TIP3   OH227265   4.419   1.569   2.405 -0.0381 -0.3196  0.5656
 1925TIP3    H127266   4.420   1.474   2.394  0.2516 -0.3043  0.4504
 1925TIP3    H227267   4.331   1.589   2.437 -0.7690 -0.4133 -1.3326
 1926TIP3   OH227268   0.566   0.932  12.739 -0.3636 -0.2770 -0.6023
 1926TIP3    H127269   0.498   0.866  12.727 -1.7022  0.9639 -0.0417
 1926TIP3    H227270   0.540   0.979  12.819  0.3820  1.1344 -1.1647
 1927TIP3   OH227271   1.687   0.881   3.094 -0.3902 -0.1110 -0.0444
 1927TIP3    H127272   1.611   0.931   3.065 -0.3257  0.0041 -0.0119
 1927TIP3    H227273   1.657   0.836   3.173  0.3290  1.8864  1.3947
 1928TIP3   OH227274   0.704   6.344  12.926 -0.4041 -0.4511  0.3493
 1928TIP3    H127275   0.719   6.250  12.933  0.2630 -0.2945  1.0086
 1928TIP3    H227276   0.725   6.365  12.835  0.7584 -0.7047  0.5570
 1929TIP3   OH227277   5.919   6.811  12.815 -0.2234 -0.5926 -0.0261
 1929TIP3    H127278   5.999   6.861  12.835 -0.7642  0.1974  0.1746
 1929TIP3    H227279   5.942   6.720  12.834  0.4852 -0.3126  0.4747
 1930TIP3   OH227280   4.693   1.715   5.168 -0.6780  0.0680  0.5577
 1930TIP3    H127281   4.602   1.742   5.158 -0.8177 -0.3950  0.5755
 1930TIP3    H227282   4.717   1.746   5.256 -1.5258 -1.8070  1.4800
 1931TIP3   OH227283   6.705   4.093  14.567 -0.1594 -1.0936 -0.2668
 1931TIP3    H127284   6.637   4.118  14.505  1.1075  0.0955 -1.2318
 1931TIP3    H227285   6.708   4.166  14.629  1.2156 -0.4133 -1.0944
 1932TIP3   OH227286   5.903   2.895   0.959 -0.1761 -0.0771 -0.5786
 1932TIP3    H127287   5.998   2.910   0.958 -0.1018 -0.6541 -2.5527
 1932TIP3    H227288   5.894   2.802   0.975 -0.4222  0.0151 -0.1837
 1933TIP3   OH227289   2.265   3.402   1.603  0.2611  0.4685  0.7483
 1933TIP3    H127290   2.184   3.409   1.654  0.7947  0.9202  1.5342
 1933TIP3    H227291   2.306   3.488   1.610 -0.1242  0.8460 -1.2495
 1934TIP3   OH227292   6.076   6.563   0.839  0.0822 -0.3011 -0.1789
 1934TIP3    H127293   6.160   6.590   0.874  0.5351 -1.7346 -0.0978
 1934TIP3    H227294   6.093   6.477   0.799 -1.4296 -0.8539  0.3089
 1935TIP3   OH227295   6.030   6.755   5.523 -0.5025 -0.1846 -0.4761
 1935TIP3    H127296   6.020   6.772   5.617  0.4179 -1.7383 -0.0803
 1935TIP3    H227297   5.951   6.791   5.483 -1.2203 -0.1416  0.9761
 1936TIP3   OH227298   3.807   6.715   4.509 -0.3234 -0.2253  0.3598
 1936TIP3    H127299   3.712   6.729   4.511 -0.4728 -1.1636 -0.0433
 1936TIP3    H227300   3.838   6.772   4.439 -0.6866 -0.4712 -0.0013
 1937TIP3   OH227301   2.270   4.919   5.444  0.0327 -0.0309 -0.1925
 1937TIP3    H127302   2.356   4.952   5.418  0.2887 -1.4514 -1.1663
 1937TIP3    H227303   2.228   4.994   5.486  2.3193  0.2878  1.6761
 1938TIP3   OH227304   0.868   3.657  15.948 -0.0586  0.3739 -0.1257
 1938TIP3    H127305   0.825   3.725  15.896  1.5680  1.2294 -0.3695
 1938TIP3    H227306   0.873   3.581  15.890 -0.1564  0.6496 -0.4968
 1939TIP3   OH227307   5.666   0.248  12.241  0.3116 -0.1260 -0.7533
 1939TIP3    H127308   5.609   0.307  12.190  0.4428 -0.3551 -1.1701
 1939TIP3    H227309   5.748   0.247  12.192  1.2140  1.4156  0.6760
 1940TIP3   OH227310   6.033   3.446   2.872 -0.2540  0.1719 -0.5255
 1940TIP3    H127311   6.057   3.386   2.943 -0.2525  1.0233  0.1905
 1940TIP3    H227312   5.976   3.393   2.816 -1.5072 -0.0568  0.9257
 1941TIP3   OH227313   4.325   2.949  12.551 -0.0974 -0.0910 -0.5223
 1941TIP3    H127314   4.399   2.997  12.514  1.0037  0.4324  2.2280
 1941TIP3    H227315   4.271   3.017  12.592 -0.7142 -0.7657 -0.2139
 1942TIP3   OH227316   5.492   0.958   6.322 -0.0688  0.7013  0.3060
 1942TIP3    H127317   5.539   0.929   6.244  0.2159 -0.1488  0.7775
 1942TIP3    H227318   5.514   1.051   6.331  0.3850  0.6534 -0.2778
 1943TIP3   OH227319   1.139   4.439  14.926 -0.4323  0.0165 -0.6788
 1943TIP3    H127320   1.117   4.505  14.991  1.0782 -0.8814  0.7923
 1943TIP3    H227321   1.164   4.488  14.848 -1.4163  1.1123 -0.3140
 1944TIP3   OH227322   1.238   6.254   4.019  0.0133 -0.2540  0.2236
 1944TIP3    H127323   1.276   6.336   4.050 -0.4433  0.1030 -0.1493
 1944TIP3    H227324   1.194   6.217   4.095  0.7561 -0.4689  0.5552
 1945TIP3   OH227325   2.468   0.340   4.007  0.0145  0.2848  0.2783
 1945TIP3    H127326   2.493   0.428   3.980 -0.5840  0.4417  0.2137
 1945TIP3    H227327   2.500   0.283   3.937 -0.3661  0.5495 -0.1162
 1946TIP3   OH227328   4.060   0.904  11.700  0.0853  0.5588  0.3112
 1946TIP3    H127329   4.051   0.999  11.711  0.1924  0.5358  0.5851
 1946TIP3    H227330   4.135   0.880  11.753 -0.1240  0.2749  0.4821
 1947TIP3   OH227331   4.649   0.342  11.427  0.3464  0.2192  0.8244
 1947TIP3    H127332   4.557   0.370  11.423  0.5488  0.7969 -0.3070
 1947TIP3    H227333   4.646   0.252  11.457 -0.6881 -0.1672 -0.3849
 1948TIP3   OH227334   1.506   1.270  12.652  0.4428  0.1109 -0.1137
 1948TIP3    H127335   1.492   1.175  12.648  1.4379 -0.0494  0.1437
 1948TIP3    H227336   1.471   1.296  12.737  1.6801 -0.2890  0.5290
 1949TIP3   OH227337   6.124   3.454   3.143  0.4895 -0.1784 -0.2518
 1949TIP3    H127338   6.212   3.424   3.168  0.8131 -1.8432 -3.1848
 1949TIP3    H227339   6.064   3.400   3.194  1.1376 -2.8528 -2.2396
 1950TIP3   OH227340   3.368   6.312  16.206 -0.1667  0.5430  0.0044
 1950TIP3    H127341   3.372   6.362  16.124  1.2368  0.1708 -0.1723
 1950TIP3    H227342   3.455   6.273  16.214 -0.8270 -0.7800  0.8362
 1951TIP3   OH227343   5.609   4.957   0.054 -0.3229  0.2008  0.1874
 1951TIP3    H127344   5.544   4.935  -0.012 -0.0917  0.8942 -0.2840
 1951TIP3    H227345   5.580   5.042   0.089  1.1453  1.2791 -1.1308
 1952TIP3   OH227346   3.964   2.315   3.688 -0.2001 -0.2636 -0.3361
 1952TIP3    H127347   3.946   2.239   3.632  1.8450 -1.2402  0.2880
 1952TIP3    H227348   3.977   2.278   3.775  1.0445  0.7688 -0.0657
 1953TIP3   OH227349   6.093   0.486   1.873 -0.2017 -0.1824  0.5579
 1953TIP3    H127350   6.039   0.409   1.892  1.0153 -0.6866  2.0673
 1953TIP3    H227351   6.063   0.552   1.936 -0.1862  0.0815  0.2907
 1954TIP3   OH227352   6.064   6.726  17.055 -0.2783  0.0412 -0.3053
 1954TIP3    H127353   6.103   6.781  16.986 -0.4963  0.0392 -0.4308
 1954TIP3    H227354   5.982   6.695  17.017  0.7428 -1.9171 -0.9753
 1955TIP3   OH227355   5.825   3.604  17.229 -0.3016  0.3864  0.1412
 1955TIP3    H127356   5.845   3.533  17.168  1.2184 -0.7076  1.8587
 1955TIP3    H227357   5.793   3.560  17.308 -0.7261  1.6843  0.7113
 1956TIP3   OH227358   1.730   5.733   4.501  0.2205 -0.2375  0.0083
 1956TIP3    H127359   1.694   5.657   4.456 -1.1530 -0.1063  0.8661
 1956TIP3    H227360   1.733   5.709   4.593  1.8052 -0.0224  0.0419
 1957TIP3   OH227361   0.664   4.646  11.241  0.2229  0.1490  0.3715
 1957TIP3    H127362   0.726   4.579  11.269 -1.2135 -0.3711  2.4127
 1957TIP3    H227363   0.658   4.635  11.146  3.9808  0.8934 -0.0220
 1958TIP3   OH227364   3.018   3.517   1.886  0.0633 -0.0698  0.0704
 1958TIP3    H127365   3.108   3.548   1.870 -0.0267  0.3443  0.3593
 1958TIP3    H227366   3.029   3.431   1.925  0.3434  0.1936  0.5738
 1959TIP3   OH227367   3.813   5.396   5.150  0.4976 -0.1065  0.0816
 1959TIP3    H127368   3.753   5.467   5.174 -0.2808 -0.4723 -0.7272
 1959TIP3    H227369   3.757   5.318   5.147  1.1089 -0.5337 -0.2057
 1960TIP3   OH227370   0.632   5.911   2.307 -0.5321 -0.1093  0.0709
 1960TIP3    H127371   0.671   5.903   2.394 -0.8588 -2.1130  0.0451
 1960TIP3    H227372   0.564   5.978   2.317  1.3795  1.7868  0.6478
 1961TIP3   OH227373   0.027   2.625  14.262 -0.1554 -0.0795  0.1079
 1961TIP3    H127374   0.028   2.624  14.358  2.1746  0.4238  0.1220
 1961TIP3    H227375  -0.029   2.699  14.240 -0.8325 -0.2894  1.0786
 1962TIP3   OH227376   0.333   3.134   3.683 -0.0512  0.1591  0.3199
 1962TIP3    H127377   0.429   3.138   3.678 -0.0596  1.4041  0.8372
 1962TIP3    H227378   0.304   3.154   3.594  0.1770 -1.2124 -0.0740
 1963TIP3   OH227379   6.161   5.409   5.976  0.3371  0.1168  0.1216
 1963TIP3    H127380   6.099   5.425   6.048  1.8874  0.5180  1.3988
 1963TIP3    H227381   6.227   5.351   6.014  1.0310  0.1230 -1.0627
 1964TIP3   OH227382   4.893   3.727   1.119 -0.5052  0.0773  0.2532
 1964TIP3    H127383   4.874   3.807   1.070 -2.1677 -2.1932 -2.9551
 1964TIP3    H227384   4.818   3.715   1.176 -0.6183  0.3910  0.1699
 1965TIP3   OH227385   6.450   2.379  11.040 -0.9350 -0.5468 -0.0887
 1965TIP3    H127386   6.510   2.422  10.979 -0.8269 -0.9799 -0.2845
 1965TIP3    H227387   6.383   2.446  11.058 -0.7264 -0.2698 -0.3376
 1966TIP3   OH227388   1.854   0.779   2.524  0.2662 -0.4784  0.4208
 1966TIP3    H127389   1.860   0.833   2.445  0.3324  0.7261  1.2290
 1966TIP3    H227390   1.761   0.779   2.546  0.5866  1.4848  1.8827
 1967TIP3   OH227391   4.262   2.615  17.116  0.4550  0.3451 -0.5420
 1967TIP3    H127392   4.320   2.570  17.177 -0.1306 -0.3056 -0.4514
 1967TIP3    H227393   4.234   2.693  17.163 -0.5971 -0.5381  0.3466
 1968TIP3   OH227394   2.299   3.494   0.972  0.7956 -0.1064 -0.8661
 1968TIP3    H127395   2.352   3.572   0.990  0.2517  0.0057  0.3065
 1968TIP3    H227396   2.307   3.441   1.051 -1.6327  0.3905 -0.2318
 1969TIP3   OH227397   2.485   5.342  16.523 -0.1406  0.2022  0.1559
 1969TIP3    H127398   2.399   5.360  16.486 -0.6058 -0.4130  0.9281
 1969TIP3    H227399   2.484   5.248  16.544 -0.1719  0.6886  2.4446
 1970TIP3   OH227400   4.536   6.450   6.291  0.7914  0.2429 -0.0545
 1970TIP3    H127401   4.521   6.529   6.342  1.9347  0.8467 -0.6475
 1970TIP3    H227402   4.631   6.435   6.298  0.7283 -0.5033 -0.7789
 1971TIP3   OH227403   3.526   1.067  12.127 -0.2721 -0.9242  0.2324
 1971TIP3    H127404   3.511   1.127  12.054 -1.2245 -0.6986  0.5967
 1971TIP3    H227405   3.615   1.035  12.115 -0.1734 -0.3354 -0.6242
 1972TIP3   OH227406   4.657   2.057  14.163  0.5656 -0.8358  0.0906
 1972TIP3    H127407   4.634   2.108  14.085  2.8439 -1.2149 -0.8629
 1972TIP3    H227408   4.585   2.072  14.224 -0.5912  0.5458 -1.5817
 1973TIP3   OH227409   2.317   3.348   1.214 -0.4192  0.2023 -0.2260
 1973TIP3    H127410   2.364   3.305   1.285 -0.6037 -0.5128 -0.5291
 1973TIP3    H227411   2.238   3.383   1.255 -1.0365 -1.1052 -0.2652
 1974TIP3   OH227412   6.791   3.603  12.203  0.1366  0.1928 -0.0509
 1974TIP3    H127413   6.772   3.512  12.180  1.3724  0.4128 -2.0338
 1974TIP3    H227414   6.706   3.648  12.197 -0.4318 -0.7770  0.7239
 1975TIP3   OH227415   0.106   0.253   4.791 -0.1144 -0.7279 -0.2096
 1975TIP3    H127416   0.154   0.333   4.769  0.1116 -0.6860  0.4213
 1975TIP3    H227417   0.073   0.221   4.707 -0.2625  0.0635 -0.4583
 1976TIP3   OH227418   4.267   0.892  16.506  0.2224  0.1786 -0.2145
 1976TIP3    H127419   4.254   0.826  16.438  1.1264  0.7266 -0.9368
 1976TIP3    H227420   4.246   0.975  16.463  0.2853  0.4741  0.3249
 1977TIP3   OH227421   0.640   2.589   2.877  0.3849 -0.3054  0.0308
 1977TIP3    H127422   0.657   2.681   2.856 -1.9170 -0.3157 -2.1733
 1977TIP3    H227423   0.573   2.592   2.945 -1.0643 -0.3080 -1.3544
 1978TIP3   OH227424   1.645   1.111  14.931  0.6865 -0.1104 -0.3518
 1978TIP3    H127425   1.712   1.177  14.915  1.0658 -0.4936 -0.3547
 1978TIP3    H227426   1.682   1.030  14.895  0.1230 -0.2725 -0.5712
 1979TIP3   OH227427   3.831   1.863   0.920 -0.1262  0.0937 -0.6594
 1979TIP3    H127428   3.892   1.891   0.851 -0.3449 -1.5699 -1.5606
 1979TIP3    H227429   3.772   1.803   0.876 -1.2927  0.2833  0.6387
 1980TIP3   OH227430   5.882   3.613  14.715 -0.3211 -1.0033  0.0524
 1980TIP3    H127431   5.865   3.542  14.777 -1.3472 -1.1183 -0.3587
 1980TIP3    H227432   5.811   3.607  14.652  0.2086 -0.3002 -0.6151
 1981TIP3   OH227433   3.276   3.247  10.798  0.2128  0.4104 -0.0670
 1981TIP3    H127434   3.285   3.341  10.808 -0.8970  0.5600 -0.4614
 1981TIP3    H227435   3.288   3.211  10.886  1.6374  0.8254 -0.0752
 1982TIP3   OH227436   0.245   4.879  13.734 -0.5220 -0.3877  0.1448
 1982TIP3    H127437   0.324   4.826  13.733 -0.4612 -0.2977 -0.1067
 1982TIP3    H227438   0.176   4.820  13.704 -0.2219  0.0138 -1.3977
 1983TIP3   OH227439   6.091   1.415  13.513  0.7889  0.1517  0.1370
 1983TIP3    H127440   6.149   1.366  13.454 -0.4426 -0.5236 -0.5350
 1983TIP3    H227441   6.116   1.387  13.601  0.4624 -1.3022 -0.2204
 1984TIP3   OH227442   0.194   2.455   1.444  0.3412  0.1082  0.3170
 1984TIP3    H127443   0.290   2.451   1.438  0.3888  0.7829  0.5821
 1984TIP3    H227444   0.177   2.535   1.493 -0.4190  1.3463 -1.8874
 1985TIP3   OH227445   3.675   3.830  11.564  0.2935  0.0061  0.0124
 1985TIP3    H127446   3.697   3.738  11.579 -0.6813 -0.1429  0.6092
 1985TIP3    H227447   3.589   3.827  11.521  1.1082  0.5813 -1.6749
 1986TIP3   OH227448   3.913   0.603  13.931  0.1914  0.2518 -0.3713
 1986TIP3    H127449   3.874   0.583  13.846 -1.9125  0.1611  0.5708
 1986TIP3    H227450   3.967   0.680  13.915  0.7536 -0.4707 -2.0284
 1987TIP3   OH227451   6.641   3.267  15.549 -0.4232  0.2059  0.1079
 1987TIP3    H127452   6.562   3.320  15.559 -1.0514 -0.8501  0.9725
 1987TIP3    H227453   6.702   3.322  15.501 -1.0425  1.7143  1.0208
 1988TIP3   OH227454   4.207   5.138   2.091  0.3978 -0.1922  0.6011
 1988TIP3    H127455   4.157   5.204   2.138 -0.1545  0.3808 -0.7485
 1988TIP3    H227456   4.143   5.069   2.071  0.0783  0.6128 -1.2683
 1989TIP3   OH227457   2.948   3.337  13.899 -0.2038  0.2808 -0.2910
 1989TIP3    H127458   2.932   3.430  13.915  1.4349  0.6095 -0.5579
 1989TIP3    H227459   3.030   3.318  13.945 -0.4144 -0.9796 -0.4279
 1990TIP3   OH227460   0.914   1.568   2.364  0.2711  0.6135 -0.3683
 1990TIP3    H127461   0.913   1.631   2.436  1.0631  1.0787 -0.7506
 1990TIP3    H227462   0.882   1.486   2.402  3.0067  0.1920  1.1500
 1991TIP3   OH227463   2.458   6.249  10.882  0.2806 -0.4275 -0.7277
 1991TIP3    H127464   2.428   6.340  10.880 -0.5289 -0.5916  2.0882
 1991TIP3    H227465   2.394   6.202  10.829 -2.0865 -0.0647  1.6998
 1992TIP3   OH227466   0.959   6.252   6.344  0.2863 -0.0276  0.0243
 1992TIP3    H127467   1.011   6.312   6.291 -1.1115  0.5673 -0.7168
 1992TIP3    H227468   0.997   6.257   6.431  1.4270  0.4301 -0.4949
 1993TIP3   OH227469   4.403   1.957  16.816 -0.2589  0.2716  0.5361
 1993TIP3    H127470   4.337   1.907  16.865 -1.7788  0.4284 -1.2839
 1993TIP3    H227471   4.386   2.048  16.841 -0.1882  0.2383  0.7073
 1994TIP3   OH227472   3.168   0.869  13.567  0.5461 -0.1660  0.1891
 1994TIP3    H127473   3.118   0.883  13.648  3.5349 -1.4556  2.3663
 1994TIP3    H227474   3.101   0.855  13.500 -2.0605  2.2778  2.1352
 1995TIP3   OH227475   2.389   2.538  12.356 -0.2442 -0.6402 -0.1012
 1995TIP3    H127476   2.445   2.476  12.309 -0.2290  1.2578 -2.6506
 1995TIP3    H227477   2.308   2.489  12.371  0.7317 -2.1717  0.3311
 1996TIP3   OH227478   4.094   5.005  11.150  0.5637  0.4601 -0.2007
 1996TIP3    H127479   4.135   5.000  11.237  0.8638 -2.0954 -0.4703
 1996TIP3    H227480   4.018   4.948  11.157  0.5215  0.3494 -1.6018
 1997TIP3   OH227481   4.508   0.864   3.504 -0.1965 -0.6384 -0.9260
 1997TIP3    H127482   4.569   0.867   3.577 -1.4052 -0.0541  0.0968
 1997TIP3    H227483   4.563   0.858   3.426  1.2487  2.2778 -0.1864
 1998TIP3   OH227484   2.084   2.777  12.083 -0.0746  0.1652 -0.0064
 1998TIP3    H127485   2.043   2.846  12.031 -0.6075 -0.2180 -0.1003
 1998TIP3    H227486   2.017   2.752  12.147  0.1806 -0.1373  0.1441
 1999TIP3   OH227487   5.903   5.653  10.877  0.3995 -0.2416 -0.1792
 1999TIP3    H127488   5.832   5.666  10.813 -0.6564  0.5283  1.1232
 1999TIP3    H227489   5.974   5.614  10.826  0.0023  1.4370 -2.0789
 2000TIP3   OH227490   2.605   2.995  13.667  0.0768  0.0097 -0.1419
 2000TIP3    H127491   2.668   3.007  13.738  0.8173 -2.3915 -0.3385
 2000TIP3    H227492   2.644   3.039  13.591 -0.4198  2.0216  0.7248
 2001TIP3   OH227493   3.957   4.036  13.106  0.1657 -0.4216 -0.1803
 2001TIP3    H127494   4.010   3.965  13.143  1.8570  1.0821  0.3368
 2001TIP3    H227495   3.881   3.991  13.067  0.7615 -2.4290  0.8892
 2002TIP3   OH227496   3.270   0.490  14.941  0.6013 -0.3434  0.4803
 2002TIP3    H127497   3.286   0.579  14.909  0.4561 -0.3995  0.2529
 2002TIP3    H227498   3.181   0.469  14.911  0.6794 -0.6076  0.4333
 2003TIP3   OH227499   6.240   0.150  14.584  0.3738 -0.3797 -0.2995
 2003TIP3    H127500   6.169   0.178  14.642  0.5171  2.6271 -1.4778
 2003TIP3    H227501   6.194   0.106  14.512 -0.0831 -0.8792  0.2904
 2004TIP3   OH227502   3.944   6.585  12.123 -0.1485  0.0932  0.0605
 2004TIP3    H127503   4.008   6.553  12.059 -1.4896  1.0443 -1.7908
 2004TIP3    H227504   3.981   6.668  12.155  0.8092 -0.6773  1.0030
 2005TIP3   OH227505   5.214   3.160   3.695 -0.0157  0.4204  0.8236
 2005TIP3    H127506   5.128   3.159   3.738 -0.0595  0.1625  0.7285
 2005TIP3    H227507   5.240   3.252   3.697 -0.7303  0.6505 -0.0083
 2006TIP3   OH227508   1.026   3.233  12.389  0.3811  0.0047  0.0665
 2006TIP3    H127509   1.008   3.172  12.317  0.7293  0.0724 -0.0827
 2006TIP3    H227510   0.984   3.194  12.465  2.0736 -1.3459  0.3593
 2007TIP3   OH227511   2.400   4.604   0.941 -0.0197  0.0451 -0.1105
 2007TIP3    H127512   2.441   4.518   0.947 -1.1057 -0.6981 -2.7303
 2007TIP3    H227513   2.474   4.666   0.943  0.7587 -0.9044  1.7996
 2008TIP3   OH227514   0.768   1.934   1.024  0.0136 -0.1565  0.1532
 2008TIP3    H127515   0.685   1.981   1.033 -0.6390 -0.8108 -2.0976
 2008TIP3    H227516   0.834   2.002   1.017 -0.5275  0.3887  0.3046
 2009TIP3   OH227517   4.723   0.108   6.110 -0.1944 -0.5077 -0.6590
 2009TIP3    H127518   4.811   0.083   6.085  0.3010  1.0703 -0.5464
 2009TIP3    H227519   4.695   0.039   6.171  0.2853 -1.9341 -2.0318
 2010TIP3   OH227520   0.648   3.154   4.238  0.5826  0.2182 -0.2990
 2010TIP3    H127521   0.575   3.197   4.193  0.0910 -1.4019 -1.0683
 2010TIP3    H227522   0.607   3.091   4.297  1.3588 -2.9990 -3.0258
 2011TIP3   OH227523   6.769   4.367  13.171  0.6104  0.2522 -0.2035
 2011TIP3    H127524   6.779   4.273  13.182  0.0224  0.1042 -0.9100
 2011TIP3    H227525   6.690   4.377  13.118  2.7275  0.9795 -3.3764
 2012TIP3   OH227526   1.888   0.730   6.477  0.0473  0.1575 -0.0014
 2012TIP3    H127527   1.889   0.823   6.500  0.4030 -0.1879  1.4359
 2012TIP3    H227528   1.841   0.727   6.393  0.6904  1.7062 -0.4447
 2013TIP3   OH227529   3.375   2.016   5.970  0.1955 -0.2942  0.2450
 2013TIP3    H127530   3.337   1.958   5.904 -0.5964  0.6052 -0.1092
 2013TIP3    H227531   3.409   2.090   5.920 -1.5669  1.0151  0.9373
 2014TIP3   OH227532   4.297   5.155  15.099  0.9056 -0.1690 -0.2026
 2014TIP3    H127533   4.336   5.222  15.155 -0.2045 -0.8404  1.4102
 2014TIP3    H227534   4.357   5.081  15.105  0.5304 -0.4168  0.5034
 2015TIP3   OH227535   3.747   0.896   3.961  0.0136 -0.4633  0.0044
 2015TIP3    H127536   3.661   0.898   4.003 -1.1865  1.0192 -2.3773
 2015TIP3    H227537   3.786   0.980   3.984  0.7001 -1.0026  0.8180
 2016TIP3   OH227538   0.109   3.923   5.345 -0.2300  0.7926 -0.2605
 2016TIP3    H127539   0.049   3.848   5.352  0.3143  0.1751 -1.9194
 2016TIP3    H227540   0.057   3.991   5.303 -0.4058  0.9833  0.2655
 2017TIP3   OH227541   2.837   4.779   2.027 -0.1823 -0.4308 -0.3822
 2017TIP3    H127542   2.924   4.742   2.047 -0.3708 -0.1765  0.9693
 2017TIP3    H227543   2.797   4.716   1.967  1.0552 -0.4022 -1.2581
 2018TIP3   OH227544   1.686   6.556  14.932  0.0177 -0.0998  0.2866
 2018TIP3    H127545   1.632   6.577  14.855  0.4922  2.3520  0.5647
 2018TIP3    H227546   1.656   6.617  14.999  0.4321 -1.4229  1.6857
 2019TIP3   OH227547   6.049   6.478   5.466  1.0591 -0.4924  0.3515
 2019TIP3    H127548   6.061   6.572   5.477 -1.0214 -0.3415  1.6294
 2019TIP3    H227549   6.138   6.442   5.463  1.8542  1.4836  0.1240
 2020TIP3   OH227550   1.994   1.904   6.364 -0.0511 -0.2072 -0.9330
 2020TIP3    H127551   2.048   1.948   6.429 -0.4149  0.6214 -1.1864
 2020TIP3    H227552   1.929   1.856   6.415  0.2787 -0.3643 -0.6613
 2021TIP3   OH227553   6.547   5.374   1.111  0.0032  0.0160  0.3054
 2021TIP3    H127554   6.527   5.455   1.157  2.4879  0.7816  0.1330
 2021TIP3    H227555   6.506   5.385   1.025  0.7253  1.3143  0.1083
 2022TIP3   OH227556   2.078   3.801  16.994  0.1835 -0.8731 -0.2913
 2022TIP3    H127557   2.048   3.712  16.976 -0.2662 -0.4309 -1.8412
 2022TIP3    H227558   2.169   3.791  17.022  0.0607 -1.8356 -0.2166
 2023TIP3   OH227559   5.629   3.252  14.491 -0.1421  0.7337 -0.0624
 2023TIP3    H127560   5.579   3.330  14.465  0.8735  0.7845 -1.9200
 2023TIP3    H227561   5.709   3.256  14.438  0.7668 -0.5891  1.1888
 2024TIP3   OH227562   3.454   4.648  14.248 -0.5292 -0.2912 -0.1766
 2024TIP3    H127563   3.419   4.707  14.315 -1.1349  0.9869 -1.5923
 2024TIP3    H227564   3.490   4.575  14.298  0.4752  1.3747  1.6208
 2025TIP3   OH227565   1.845   5.372  13.620 -0.5025 -0.3102  0.0969
 2025TIP3    H127566   1.884   5.460  13.614  0.4688 -0.7819 -0.6162
 2025TIP3    H227567   1.780   5.370  13.550 -2.9622  1.0243  2.2569
 2026TIP3   OH227568   5.046   6.287   0.182  0.0249  0.3093 -0.2739
 2026TIP3    H127569   5.122   6.345   0.168  1.3398 -1.6243 -1.3289
 2026TIP3    H227570   5.062   6.247   0.267  1.7841 -2.3900 -1.8114
 2027TIP3   OH227571   6.799   6.020  12.235 -0.6582 -0.2322  0.1477
 2027TIP3    H127572   6.866   5.964  12.196 -0.0243  0.8733 -0.3626
 2027TIP3    H227573   6.826   6.028  12.327 -0.6573 -0.6207  0.1839
 2028TIP3   OH227574   3.051   6.806   5.218 -0.8645  0.8260 -0.3699
 2028TIP3    H127575   3.084   6.733   5.270 -0.3024 -0.2859 -2.2732
 2028TIP3    H227576   2.956   6.799   5.226 -0.7907  0.5546  0.3512
 2029TIP3   OH227577   0.273   4.372  15.256 -0.2515  0.0415 -0.1771
 2029TIP3    H127578   0.257   4.280  15.239  0.0846 -0.1733  0.6432
 2029TIP3    H227579   0.308   4.406  15.174  1.4409 -0.9975  0.0924
 2030TIP3   OH227580   5.137   6.476   2.708 -0.1216 -0.2596 -0.4227
 2030TIP3    H127581   5.042   6.462   2.698 -0.4659  1.1670  0.6822
 2030TIP3    H227582   5.166   6.401   2.760 -0.3354 -1.5539 -2.0976
 2031TIP3   OH227583   3.788   0.294   0.904 -0.3548  0.3146  0.0586
 2031TIP3    H127584   3.720   0.277   0.839 -0.1681  0.0891 -0.0810
 2031TIP3    H227585   3.741   0.312   0.985 -0.6215  1.8402 -0.4234
 2032TIP3   OH227586   5.365   1.595  12.537 -0.1191 -0.2513 -0.7337
 2032TIP3    H127587   5.362   1.644  12.455 -1.5097 -0.6269 -0.9191
 2032TIP3    H227588   5.312   1.646  12.598 -0.4493 -0.8173 -0.5415
 2033TIP3   OH227589   4.296   2.910   3.088  0.4688  0.9812 -0.0285
 2033TIP3    H127590   4.311   2.820   3.114  2.7279  0.6153 -2.4034
 2033TIP3    H227591   4.268   2.954   3.169 -1.5267 -1.9613  0.9810
 2034TIP3   OH227592   4.779   0.168  13.091  0.5709 -0.0286 -0.5594
 2034TIP3    H127593   4.689   0.193  13.110 -0.5490 -3.0272 -1.6641
 2034TIP3    H227594   4.823   0.172  13.176  0.1789  4.1671 -0.4425
 2035TIP3   OH227595   2.341   2.711  11.107 -0.0782  0.6372 -0.1233
 2035TIP3    H127596   2.300   2.713  11.021 -0.2851  2.3220  0.0006
 2035TIP3    H227597   2.426   2.753  11.095 -0.2910  1.2901  0.5846
 2036TIP3   OH227598   0.897   1.831  16.518 -0.4958  0.3345 -0.7033
 2036TIP3    H127599   0.989   1.806  16.511 -0.8634 -0.6282 -2.4757
 2036TIP3    H227600   0.891   1.916  16.475 -0.4707  0.3274 -0.7181
 2037TIP3   OH227601   6.162   0.989  11.763 -0.3068  0.0225 -0.4449
 2037TIP3    H127602   6.197   1.065  11.810 -0.9097  1.1914 -1.8414
 2037TIP3    H227603   6.077   1.018  11.731  1.3381  0.3405 -4.8468
 2038TIP3   OH227604   6.284   4.887   5.622  0.5355 -0.6762  0.3407
 2038TIP3    H127605   6.266   4.901   5.529  0.7323  1.1267  0.5649
 2038TIP3    H227606   6.206   4.917   5.667  1.9040  2.0742  0.9767
 2039TIP3   OH227607   2.022   4.601  12.525 -0.3338 -0.1300 -0.0282
 2039TIP3    H127608   2.035   4.506  12.524  1.8934  0.1387  0.4159
 2039TIP3    H227609   2.091   4.635  12.467 -2.1920  1.1168 -1.5828
 2040TIP3   OH227610   4.018   1.357  14.162 -0.3023  0.5573 -0.6016
 2040TIP3    H127611   4.064   1.393  14.086  1.7135  1.5782  1.0562
 2040TIP3    H227612   3.929   1.339  14.130 -0.2920  3.5486 -2.4758
 2041TIP3   OH227613   4.818   2.545   3.188  0.0966 -0.2848  0.6534
 2041TIP3    H127614   4.769   2.575   3.111  0.0249  1.4360  1.3478
 2041TIP3    H227615   4.863   2.466   3.158 -0.3488  0.0642 -1.0010
 2042TIP3   OH227616   2.587   0.965  11.761  0.3590 -0.5715  0.1761
 2042TIP3    H127617   2.517   1.030  11.749 -0.2473 -0.8186  2.0873
 2042TIP3    H227618   2.542   0.889  11.798  1.5545 -0.9014  0.9685
 2043TIP3   OH227619   5.222   3.918  15.192  0.1423 -0.0744 -0.2340
 2043TIP3    H127620   5.221   3.824  15.211  1.6009 -0.2327 -0.8592
 2043TIP3    H227621   5.310   3.934  15.158  0.4321  1.8290  1.3648
 2044TIP3   OH227622   5.851   3.164   1.904  0.4976 -0.2441 -0.0416
 2044TIP3    H127623   5.867   3.146   1.811  1.9686  1.9842 -0.2383
 2044TIP3    H227624   5.767   3.211   1.905  1.7535  2.0591 -0.5175
 2045TIP3   OH227625   5.331   2.862  17.065 -0.2803 -0.1944  0.3347
 2045TIP3    H127626   5.328   2.853  17.160 -0.5796 -0.2001  0.3264
 2045TIP3    H227627   5.371   2.948  17.050 -0.0719 -0.2679  0.4609
 2046TIP3   OH227628   4.581   1.840  13.211 -0.4217 -1.1287  0.1831
 2046TIP3    H127629   4.518   1.846  13.282  0.2359  0.0621  0.6984
 2046TIP3    H227630   4.643   1.911  13.229  1.1722 -2.3981 -0.1861
 2047TIP3   OH227631   1.006   2.553  15.604  0.4798  0.6562  0.3303
 2047TIP3    H127632   1.085   2.544  15.550 -0.0261  0.1711 -0.3430
 2047TIP3    H227633   0.944   2.598  15.547 -0.6866 -1.5255 -0.1665
 2048TIP3   OH227634   5.468   1.731   4.354 -0.6035  0.1935 -0.0636
 2048TIP3    H127635   5.425   1.675   4.419 -0.6377 -1.5416 -1.5515
 2048TIP3    H227636   5.554   1.750   4.392 -1.0503  0.1551  0.9974
 2049TIP3   OH227637   1.102   6.620  16.460  0.1789  0.0281  0.0069
 2049TIP3    H127638   1.021   6.661  16.430 -0.9047 -2.2433 -0.3394
 2049TIP3    H227639   1.115   6.654  16.548 -0.3786  1.5272 -0.4815
 2050TIP3   OH227640   0.192   6.673  11.572 -0.1823 -0.1662 -0.0908
 2050TIP3    H127641   0.155   6.710  11.492  0.4685 -0.4777 -0.5352
 2050TIP3    H227642   0.120   6.622  11.609 -0.3973 -0.2669 -0.6364
 2051TIP3   OH227643   0.639   2.783   3.496 -0.0185 -0.4239 -0.2689
 2051TIP3    H127644   0.571   2.814   3.435  0.3186 -0.2525 -0.5591
 2051TIP3    H227645   0.721   2.812   3.457  0.1100  1.0917  1.0910
 2052TIP3   OH227646   4.081   1.419  13.916 -0.3204 -0.2686  0.2458
 2052TIP3    H127647   4.028   1.497  13.895 -0.1094 -0.1667  0.0949
 2052TIP3    H227648   4.148   1.416  13.848  1.5400  1.1492  1.9475
 2053TIP3   OH227649   3.710   4.792   3.170  0.1979 -0.1513  0.3749
 2053TIP3    H127650   3.640   4.802   3.235 -0.1706 -1.8171  0.2537
 2053TIP3    H227651   3.681   4.844   3.095  1.0126  2.4686  1.7998
 2054TIP3   OH227652   2.973   0.483   2.532  0.1903  0.3139  0.0361
 2054TIP3    H127653   3.065   0.468   2.512  0.3454  0.0651  0.8991
 2054TIP3    H227654   2.925   0.423   2.475  0.7272 -2.3439  2.2501
 2055TIP3   OH227655   2.209   0.142   4.220 -0.0931  0.6089 -0.1914
 2055TIP3    H127656   2.188   0.058   4.260 -2.9096  2.1724  1.8748
 2055TIP3    H227657   2.126   0.172   4.184  1.5406  1.1243 -3.7505
 2056TIP3   OH227658   4.246   1.179   5.251 -0.3310 -0.2093  0.1911
 2056TIP3    H127659   4.306   1.111   5.281  0.0590  0.2755  0.5353
 2056TIP3    H227660   4.242   1.240   5.325  1.3856  1.5016 -1.0763
 2057TIP3   OH227661   4.681   3.337   3.848  0.0059 -0.4065  0.8160
 2057TIP3    H127662   4.719   3.413   3.805  1.5707 -0.8676  1.3766
 2057TIP3    H227663   4.643   3.371   3.929 -1.1536  0.1139  0.0721
 2058TIP3   OH227664   4.805   1.737   3.628 -0.6246 -0.3788 -0.2268
 2058TIP3    H127665   4.809   1.707   3.538 -2.6044 -2.6742  0.3931
 2058TIP3    H227666   4.727   1.792   3.632  0.0148  0.5248 -0.1351
 2059TIP3   OH227667   3.651   4.370   4.269 -0.2392 -0.0504  0.2007
 2059TIP3    H127668   3.603   4.447   4.240  0.0195  0.3306  0.7611
 2059TIP3    H227669   3.600   4.337   4.343  0.4499  0.4657  0.9182
 2060TIP3   OH227670   3.851   4.599   4.429 -0.0400  0.1390 -0.0728
 2060TIP3    H127671   3.847   4.618   4.523  0.4141  1.6983 -0.3596
 2060TIP3    H227672   3.827   4.681   4.387 -0.3088 -0.5750 -1.3262
 2061TIP3   OH227673   3.496   6.000  10.948 -0.5443 -0.3898 -0.5531
 2061TIP3    H127674   3.495   6.094  10.928 -0.9844 -0.2243  0.1989
 2061TIP3    H227675   3.536   5.996  11.035 -3.2024 -0.6373  0.6771
 2062TIP3   OH227676   1.901   1.735   2.848  0.3001  0.1139  0.5156
 2062TIP3    H127677   1.969   1.720   2.784 -0.8315 -0.4387 -0.5843
 2062TIP3    H227678   1.824   1.689   2.813 -0.7486  1.0672  1.5106
 2063TIP3   OH227679   5.501   0.591  15.579 -0.2906 -0.6320  0.2714
 2063TIP3    H127680   5.481   0.651  15.650  0.2662 -1.2954  1.0052
 2063TIP3    H227681   5.427   0.532  15.575 -0.4048 -0.4821  0.1774
 2064TIP3   OH227682   2.128   2.030  11.706  0.2440  0.1579 -0.0850
 2064TIP3    H127683   2.152   2.054  11.616 -1.9352 -1.0170 -1.0296
 2064TIP3    H227684   2.034   2.048  11.711  0.3143  0.0632  1.9206
 2065TIP3   OH227685   2.357   6.332  11.434 -0.1307  0.3941 -0.4001
 2065TIP3    H127686   2.343   6.239  11.455 -1.5533  0.6289 -0.3041
 2065TIP3    H227687   2.392   6.370  11.515 -1.3967  0.3520  0.1741
 2066TIP3   OH227688   3.664   2.688   5.689  0.6370 -0.4299  0.2418
 2066TIP3    H127689   3.651   2.760   5.628  1.0460  1.5664  2.4255
 2066TIP3    H227690   3.727   2.631   5.645 -0.6146 -0.1346 -2.0463
 2067TIP3   OH227691   3.329   3.683   2.382  0.0873  0.0629  0.1381
 2067TIP3    H127692   3.236   3.681   2.401 -0.2855  1.2414 -1.4994
 2067TIP3    H227693   3.365   3.749   2.441 -0.1723 -0.0807  0.4594
 2068TIP3   OH227694   0.134   1.125  12.724 -0.1480  0.5376 -0.4100
 2068TIP3    H127695   0.136   1.029  12.729 -0.7865  0.4633 -1.4480
 2068TIP3    H227696   0.090   1.152  12.804  0.1785 -0.0265 -0.0339
 2069TIP3   OH227697   3.882   6.173  16.856 -0.3317  0.4383 -0.3389
 2069TIP3    H127698   3.957   6.116  16.875 -0.1406  1.0067  0.6378
 2069TIP3    H227699   3.919   6.248  16.812 -0.4696  0.2248 -0.8246
 2070TIP3   OH227700   5.930   1.106  12.113 -0.5803  0.1873  0.0727
 2070TIP3    H127701   6.000   1.042  12.123 -0.3036  0.8316  2.6221
 2070TIP3    H227702   5.855   1.055  12.083 -0.4056 -1.3959  2.2060
 2071TIP3   OH227703   6.069   2.239   0.910  0.1565  0.2948  0.7554
 2071TIP3    H127704   6.009   2.312   0.925 -0.9497 -0.5081  0.3045
 2071TIP3    H227705   6.013   2.161   0.906  1.0985 -0.3413 -0.8027
 2072TIP3   OH227706   4.690   2.667   7.114 -0.2226  0.0278  0.6614
 2072TIP3    H127707   4.685   2.589   7.059 -0.3027  2.2193 -2.5795
 2072TIP3    H227708   4.770   2.711   7.084 -2.2708  3.1569 -0.3858
 2073TIP3   OH227709   3.255   2.120   0.148  0.0961 -0.2539  0.1401
 2073TIP3    H127710   3.198   2.139   0.223  0.2923  1.5381 -0.1514
 2073TIP3    H227711   3.342   2.112   0.185  0.0746 -0.1590  0.2101
 2074TIP3   OH227712   6.125   5.957   1.136  0.0101  0.1549  0.0022
 2074TIP3    H127713   6.031   5.952   1.117  0.0695 -0.1931 -0.2214
 2074TIP3    H227714   6.167   5.925   1.056  0.3001 -0.2500  0.3124
 2075TIP3   OH227715   0.214   0.048  16.715  0.3242  0.0375  0.3356
 2075TIP3    H127716   0.225   0.117  16.650  0.5643 -1.9192 -1.7994
 2075TIP3    H227717   0.298   0.001  16.714  0.0387 -0.5225  1.4816
 2076TIP3   OH227718   2.268   5.898   2.080 -0.7429 -0.3899  0.0511
 2076TIP3    H127719   2.301   5.961   2.145  1.3816  1.1261 -2.3932
 2076TIP3    H227720   2.315   5.817   2.099  2.3284  0.9398 -1.5384
 2077TIP3   OH227721   2.356   3.896   1.054 -0.2369 -1.0593  0.1592
 2077TIP3    H127722   2.351   3.874   0.961 -0.7083 -1.9278  0.3925
 2077TIP3    H227723   2.415   3.831   1.092  0.8530 -0.0278  0.2687
 2078TIP3   OH227724   4.130   2.271  15.080  0.1569 -0.4799  0.0969
 2078TIP3    H127725   4.096   2.295  15.166 -0.1539 -0.7428  0.0470
 2078TIP3    H227726   4.134   2.354  15.032  1.1040 -0.2125  0.6321
 2079TIP3   OH227727   2.115   4.133   2.641 -0.4033 -0.1898  0.6586
 2079TIP3    H127728   2.037   4.180   2.611  0.3786 -0.1662 -1.4418
 2079TIP3    H227729   2.167   4.200   2.686 -1.6751 -0.2639  2.2824
 2080TIP3   OH227730   5.331   3.092  11.381  0.5801 -0.2127 -0.0554
 2080TIP3    H127731   5.278   3.107  11.459  1.7124 -2.5866  1.2342
 2080TIP3    H227732   5.421   3.107  11.410  1.0630 -1.7447 -0.7087
 2081TIP3   OH227733   2.608   4.063   4.666  0.0166 -0.1204  0.0076
 2081TIP3    H127734   2.601   4.106   4.581  0.5243  0.8734  0.4577
 2081TIP3    H227735   2.537   3.999   4.666  0.6539 -0.8474 -1.5717
 2082TIP3   OH227736   0.115   4.321  11.134 -0.3803  0.3655  0.2191
 2082TIP3    H127737   0.036   4.287  11.091  0.4662 -0.5311 -0.6513
 2082TIP3    H227738   0.162   4.366  11.064  0.3937 -0.0129  0.4985
 2083TIP3   OH227739   4.347   2.110  11.082 -0.2444  0.7475  0.6015
 2083TIP3    H127740   4.428   2.063  11.060 -0.3675  0.4221  0.8358
 2083TIP3    H227741   4.287   2.042  11.111 -1.1887  0.7859 -1.2232
 2084TIP3   OH227742   2.828   4.428   2.028  0.4628  0.1858 -0.3644
 2084TIP3    H127743   2.856   4.424   2.119 -1.9979 -1.6737  0.3572
 2084TIP3    H227744   2.890   4.372   1.981  0.2725 -0.8177  0.5719
 2085TIP3   OH227745   3.515   4.913   4.718 -0.6318 -0.3901 -0.1406
 2085TIP3    H127746   3.435   4.862   4.703 -0.2053 -1.3349  0.6917
 2085TIP3    H227747   3.516   4.927   4.813  0.2738 -0.5256 -0.1277
 2086TIP3   OH227748   2.381   4.897   5.806 -0.0995  0.0280  0.1878
 2086TIP3    H127749   2.400   4.987   5.780  0.0805  0.2128  0.9342
 2086TIP3    H227750   2.296   4.878   5.766  0.6645 -0.0651 -1.3906
 2087TIP3   OH227751   2.663   3.550   2.228  0.0515 -0.0333  0.0033
 2087TIP3    H127752   2.710   3.591   2.155  1.1441 -1.3184 -0.0433
 2087TIP3    H227753   2.653   3.620   2.292 -0.5495  1.0024 -1.2064
 2088TIP3   OH227754   6.665   6.333   5.726 -0.1690  0.6003  0.0156
 2088TIP3    H127755   6.715   6.317   5.806 -0.7917 -1.5239  0.0134
 2088TIP3    H227756   6.728   6.371   5.666  0.9244 -0.0727  0.7158
 2089TIP3   OH227757   5.476   5.557  15.879  0.3677 -0.2364  0.0924
 2089TIP3    H127758   5.564   5.547  15.844  0.2542  1.1644 -0.6494
 2089TIP3    H227759   5.472   5.497  15.953  2.1272  0.1008  0.4821
 2090TIP3   OH227760   3.050   3.670   4.301  0.5608  0.5343 -0.1648
 2090TIP3    H127761   2.971   3.704   4.343  0.9979 -0.8425  1.8349
 2090TIP3    H227762   3.046   3.575   4.314  2.1972  0.3733 -0.6364
 2091TIP3   OH227763   3.269   3.204  11.631  0.2819 -0.1248 -0.2226
 2091TIP3    H127764   3.202   3.152  11.586 -0.0100  0.9344 -1.0438
 2091TIP3    H227765   3.315   3.141  11.686 -0.7286 -1.0632 -0.4168
 2092TIP3   OH227766   5.738   2.476   0.926 -0.2874  0.3158 -0.0307
 2092TIP3    H127767   5.649   2.470   0.892 -1.5532 -0.3709  3.1906
 2092TIP3    H227768   5.741   2.412   0.997  3.2608 -0.7213 -1.0252
 2093TIP3   OH227769   6.481   4.420   5.382  0.4481 -0.0789 -0.2104
 2093TIP3    H127770   6.409   4.359   5.401  0.8845  0.3674  3.1383
 2093TIP3    H227771   6.442   4.507   5.389  0.6145  0.1003 -1.4941
 2094TIP3   OH227772   2.010   0.597   5.176  0.2128 -0.2986 -0.0710
 2094TIP3    H127773   1.971   0.590   5.263  3.6904  1.3222  1.7343
 2094TIP3    H227774   2.031   0.690   5.166  1.8676 -0.8037 -1.7201
 2095TIP3   OH227775   1.573   6.041  11.527  0.3378 -0.0482  0.1340
 2095TIP3    H127776   1.483   6.018  11.506 -0.0998  0.2219  1.6762
 2095TIP3    H227777   1.587   6.126  11.487  0.0006 -0.2146 -0.3397
 2096TIP3   OH227778   2.420   1.732  16.416  0.2380 -0.5722 -0.2097
 2096TIP3    H127779   2.420   1.648  16.371  1.4148 -0.2743 -0.8047
 2096TIP3    H227780   2.367   1.719  16.494  2.5778 -2.5950  1.0812
 2097TIP3   OH227781   0.725   0.901   5.886  0.2066  0.0823  0.8389
 2097TIP3    H127782   0.747   0.809   5.900  2.2211  0.3903 -0.0276
 2097TIP3    H227783   0.630   0.906   5.897 -0.2105 -2.4739 -1.0876
 2098TIP3   OH227784   2.278   5.385   5.824  0.0319 -0.0958 -0.0531
 2098TIP3    H127785   2.312   5.469   5.793 -0.3679  0.3767  0.7696
 2098TIP3    H227786   2.243   5.404   5.911 -0.6388 -0.9759 -0.1208
 2099TIP3   OH227787   1.250   5.389  11.818 -0.0253  0.0742 -0.1733
 2099TIP3    H127788   1.261   5.351  11.731 -2.0798  0.9541 -0.8660
 2099TIP3    H227789   1.220   5.316  11.873 -1.3062  0.0707 -0.8520
 2100TIP3   OH227790   1.055   0.254  16.943  0.0675  0.4809 -0.5894
 2100TIP3    H127791   1.095   0.316  17.003  1.3754  0.3659 -1.3310
 2100TIP3    H227792   1.127   0.197  16.915 -0.8770 -0.6002 -0.8658
 2101TIP3   OH227793   2.883   2.894  11.340 -0.0187 -0.2619 -0.4479
 2101TIP3    H127794   2.962   2.895  11.285 -1.3756 -0.2958 -2.4334
 2101TIP3    H227795   2.830   2.823  11.304 -1.8987  1.1644 -0.5147
 2102TIP3   OH227796   3.455   4.000   0.807  0.1015  0.4756 -0.0554
 2102TIP3    H127797   3.464   3.908   0.780 -0.7859  0.7925 -1.4780
 2102TIP3    H227798   3.449   3.996   0.902  2.6048 -0.7383  0.1184
 2103TIP3   OH227799   0.158   3.548  14.566  0.0510 -0.2503  0.2280
 2103TIP3    H127800   0.181   3.461  14.598  1.3908 -0.5741 -1.5435
 2103TIP3    H227801   0.066   3.558  14.590  0.7649 -0.7333  3.4777
 2104TIP3   OH227802   1.414   2.280  12.531 -0.1492  0.1271  0.3951
 2104TIP3    H127803   1.435   2.265  12.439  1.0614  0.5340  0.5958
 2104TIP3    H227804   1.417   2.375  12.541  3.1934 -0.0337  1.6207
 2105TIP3   OH227805   3.222   2.867  12.188  0.4101 -0.3146 -0.2806
 2105TIP3    H127806   3.226   2.781  12.146 -0.5548  0.3423 -1.7792
 2105TIP3    H227807   3.131   2.894  12.177  0.8390  1.1477 -0.3429
 2106TIP3   OH227808   4.138   2.002  16.191 -0.2967 -0.4654 -0.2939
 2106TIP3    H127809   4.173   2.070  16.133  0.1186 -1.2535 -0.9859
 2106TIP3    H227810   4.200   1.997  16.263 -0.3790 -0.0421 -0.1957
 2107TIP3   OH227811   2.730   2.705   4.447  0.0592 -0.2695 -0.3683
 2107TIP3    H127812   2.728   2.636   4.513 -1.4450  0.2081  0.0873
 2107TIP3    H227813   2.667   2.677   4.381  0.4061  0.0389 -0.8382
 2108TIP3   OH227814   3.690   1.859  11.307 -0.0787 -0.2602  0.4638
 2108TIP3    H127815   3.671   1.920  11.378  0.1392  0.1560  0.1616
 2108TIP3    H227816   3.735   1.911  11.241  0.6334 -0.8769  0.4526
 2109TIP3   OH227817   3.248   0.125   6.342  0.0239 -0.5390 -0.1538
 2109TIP3    H127818   3.180   0.062   6.315 -1.0884  1.0669 -1.1302
 2109TIP3    H227819   3.315   0.070   6.384 -1.5585 -2.2337  0.2468
 2110TIP3   OH227820   2.786   4.807   0.720 -0.2749  0.0309  0.2354
 2110TIP3    H127821   2.721   4.876   0.735 -1.0682 -0.8424  0.8928
 2110TIP3    H227822   2.792   4.799   0.625  0.8410  1.9515  0.1320
 2111TIP3   OH227823   5.462   6.451   3.275  0.1309  0.1542 -0.6308
 2111TIP3    H127824   5.371   6.422   3.280 -0.4992  2.4112  1.6894
 2111TIP3    H227825   5.460   6.525   3.214  0.0867  1.2742  0.7028
 2112TIP3   OH227826   0.644   5.982   1.506 -0.2688 -0.1337 -0.0040
 2112TIP3    H127827   0.711   5.918   1.530 -0.9880 -0.4653  1.1620
 2112TIP3    H227828   0.595   5.941   1.435 -0.6162 -0.8116  0.6230
 2113TIP3   OH227829   1.495   4.555   4.726  0.8474  0.0751 -0.3719
 2113TIP3    H127830   1.540   4.606   4.794  1.6195 -1.3285  0.2005
 2113TIP3    H227831   1.440   4.619   4.681  2.1056  1.5054  0.0482
 2114TIP3   OH227832   3.074   1.375   4.207 -0.9523 -0.4654 -0.3290
 2114TIP3    H127833   3.058   1.466   4.233 -0.3351 -0.2697 -0.6443
 2114TIP3    H227834   2.996   1.328   4.238 -0.6027 -0.0945  1.1465
 2115TIP3   OH227835   3.999   0.919   3.430 -0.5496 -0.1118 -0.0056
 2115TIP3    H127836   3.923   0.885   3.382 -0.6454 -2.4966  1.7678
 2115TIP3    H227837   4.074   0.875   3.390 -0.3855 -0.1560  0.3585
 2116TIP3   OH227838   3.447   6.475  13.134  0.1944 -0.5137 -0.3475
 2116TIP3    H127839   3.428   6.396  13.183  2.4418  0.7467  2.6687
 2116TIP3    H227840   3.388   6.541  13.169 -0.1859 -0.2950 -1.3631
 2117TIP3   OH227841   6.103   6.097  13.688 -0.1888  0.8398 -0.8054
 2117TIP3    H127842   6.136   6.009  13.668 -3.0304 -0.4725 -0.0961
 2117TIP3    H227843   6.049   6.120  13.613 -0.3097  1.5033 -0.5156
 2118TIP3   OH227844   3.691   1.215   1.602  0.5080  0.0288  0.2316
 2118TIP3    H127845   3.764   1.167   1.563  1.2441  1.5272 -0.2984
 2118TIP3    H227846   3.678   1.291   1.544 -2.9301 -1.3487 -0.9245
 2119TIP3   OH227847   3.147   0.328   1.501  0.6555  0.2883  0.0226
 2119TIP3    H127848   3.147   0.232   1.492  1.5899  0.3668 -0.8925
 2119TIP3    H227849   3.171   0.359   1.414 -0.9059  1.3898 -0.0258
 2120TIP3   OH227850   5.933   1.788  14.751 -0.7266 -0.0380  0.2702
 2120TIP3    H127851   5.885   1.871  14.750  0.3755  0.6226  0.2458
 2120TIP3    H227852   5.969   1.783  14.840  2.1097  1.2640 -0.7165
 2121TIP3   OH227853   4.065   0.353   5.692  0.9085  0.1991  0.4771
 2121TIP3    H127854   4.129   0.381   5.757  2.0233  0.2292 -0.6202
 2121TIP3    H227855   4.059   0.426   5.630  0.4190 -0.1291  0.1295
 2122TIP3   OH227856   0.569   1.148   3.491 -0.5712 -0.3041 -0.2757
 2122TIP3    H127857   0.493   1.094   3.468 -0.7994 -0.8857  1.8098
 2122TIP3    H227858   0.626   1.089   3.541 -0.3535  1.1178  1.1701
 2123TIP3   OH227859   6.643   1.265   0.120  0.5577  0.2077 -0.2772
 2123TIP3    H127860   6.657   1.321   0.044  1.1273  0.0184 -0.3214
 2123TIP3    H227861   6.679   1.180   0.093  1.3562  0.3108  0.4259
 2124TIP3   OH227862   0.939   0.242   0.875 -0.0974 -0.0713  0.2323
 2124TIP3    H127863   0.855   0.199   0.892  1.5720 -2.9451  1.5055
 2124TIP3    H227864   0.974   0.197   0.798  0.6555  0.5773  0.1883
 2125TIP3   OH227865   0.498   6.667   0.560 -0.1212 -0.1480 -0.0158
 2125TIP3    H127866   0.524   6.605   0.628  0.5416 -1.4512 -1.4299
 2125TIP3    H227867   0.402   6.668   0.563 -0.0737  0.4789  1.5191
 2126TIP3   OH227868   5.645   2.842  16.534 -0.7056 -0.1685  0.3251
 2126TIP3    H127869   5.649   2.938  16.542 -0.4583 -0.1699  0.2385
 2126TIP3    H227870   5.733   2.817  16.504 -0.2956 -0.5689  1.8536
 2127TIP3   OH227871   5.485   6.285  14.779 -0.1012 -0.1358  0.0105
 2127TIP3    H127872   5.514   6.373  14.803 -2.5772  0.9136 -0.7502
 2127TIP3    H227873   5.517   6.272  14.690 -1.5213  0.8488 -0.6604
 2128TIP3   OH227874   4.082   3.535   3.202 -0.5849  0.2617  0.4110
 2128TIP3    H127875   4.092   3.458   3.146 -0.9703  0.0138  0.6818
 2128TIP3    H227876   4.164   3.541   3.251 -0.3531  0.3224  0.0169
 2129TIP3   OH227877   2.714   5.057   5.992 -0.4041  0.5088 -0.5918
 2129TIP3    H127878   2.668   4.972   5.995  2.5337 -1.1866 -1.3232
 2129TIP3    H227879   2.726   5.073   5.898  0.1916  1.0923 -0.4141
 2130TIP3   OH227880   4.598   6.656  16.268  0.0196 -0.0952 -0.7928
 2130TIP3    H127881   4.539   6.716  16.222  0.3044  0.0274 -0.9997
 2130TIP3    H227882   4.672   6.645  16.209  0.2997 -0.0863 -0.4431
 2131TIP3   OH227883   2.502   6.800   0.880 -0.3312  0.0051 -0.1959
 2131TIP3    H127884   2.429   6.843   0.836  0.0252 -0.0443 -0.8470
 2131TIP3    H227885   2.558   6.770   0.808 -0.4574 -1.3292  0.2537
 2132TIP3   OH227886   4.473   3.287  14.631 -0.5645 -0.0081 -0.4170
 2132TIP3    H127887   4.502   3.375  14.610  0.7892 -0.4766 -0.5691
 2132TIP3    H227888   4.503   3.272  14.720 -3.0468  0.6120  0.5675
 2133TIP3   OH227889   6.783   1.591   4.932 -0.4007 -0.2278  0.7501
 2133TIP3    H127890   6.774   1.505   4.974  1.7104 -0.3109  1.0650
 2133TIP3    H227891   6.719   1.589   4.861  0.8902 -2.7981 -0.4278
 2134TIP3   OH227892   2.277   1.479   5.233  0.3748  0.6135  0.2706
 2134TIP3    H127893   2.278   1.512   5.323  1.3583  0.8134  0.1970
 2134TIP3    H227894   2.364   1.501   5.199  0.6273 -1.0117 -0.1596
 2135TIP3   OH227895   2.253   0.539  11.008 -0.0367  0.8738 -0.3104
 2135TIP3    H127896   2.179   0.585  11.048 -0.6141  1.0852 -1.6106
 2135TIP3    H227897   2.227   0.524  10.917 -0.3567 -3.0680  0.3542
 2136TIP3   OH227898   1.041   3.314  13.450  0.4957  0.2547  0.5508
 2136TIP3    H127899   1.054   3.323  13.356 -1.1264 -0.7949  0.2125
 2136TIP3    H227900   1.042   3.404  13.483  0.9303  0.6283 -0.4731
 2137TIP3   OH227901   5.223   2.463   1.116 -0.4836  0.3952 -0.1180
 2137TIP3    H127902   5.225   2.458   1.211  0.2837 -2.9124 -0.2471
 2137TIP3    H227903   5.130   2.474   1.094 -0.8168 -0.2037  0.9626
 2138TIP3   OH227904   1.098   2.761   0.503 -0.3477 -0.5201  0.1385
 2138TIP3    H127905   1.093   2.705   0.580 -0.4307 -1.0550 -0.2460
 2138TIP3    H227906   1.105   2.850   0.537  1.8781 -0.9230  0.7876
 2139TIP3   OH227907   4.349   5.682   3.953  0.2282 -0.1140  0.1733
 2139TIP3    H127908   4.317   5.690   4.043  0.1191 -1.1310  0.2241
 2139TIP3    H227909   4.303   5.606   3.917  0.3964  0.1846 -0.6904
 2140TIP3   OH227910   2.479   5.977   3.429  0.1112  0.0073 -0.0733
 2140TIP3    H127911   2.423   6.018   3.494  1.2535  1.3392  0.0952
 2140TIP3    H227912   2.430   5.984   3.347 -0.3021  0.4593  0.2102
 2141TIP3   OH227913   2.952   2.148   6.328  0.3034  0.4925 -0.0562
 2141TIP3    H127914   2.991   2.085   6.267  1.4052  1.1271 -0.0257
 2141TIP3    H227915   3.026   2.182   6.378 -0.3647  1.3062  0.3924
 2142TIP3   OH227916   5.396   6.372  12.703 -0.1656 -0.5602  0.0383
 2142TIP3    H127917   5.333   6.444  12.696  0.4638  0.0407  0.6060
 2142TIP3    H227918   5.368   6.325  12.781 -0.5515 -0.9215 -0.3095
 2143TIP3   OH227919   2.426   0.510   3.406 -0.0092 -0.5494 -0.3083
 2143TIP3    H127920   2.380   0.467   3.478 -0.7951 -1.2499 -1.2262
 2143TIP3    H227921   2.380   0.482   3.327  1.2932 -0.3693 -1.1479
 2144TIP3   OH227922   0.359   6.200  14.677 -0.1783 -0.3659  0.0003
 2144TIP3    H127923   0.451   6.171  14.677 -0.2213 -0.5061 -0.2892
 2144TIP3    H227924   0.330   6.188  14.767 -0.1123 -0.9647 -0.0560
 2145TIP3   OH227925   5.121   2.977   6.683  0.3567 -0.0115  0.1811
 2145TIP3    H127926   5.081   2.892   6.668 -0.5288  0.7014 -1.6533
 2145TIP3    H227927   5.053   3.029   6.726  1.0674 -0.3761  1.7687
 2146TIP3   OH227928   0.593   6.357  14.174  0.0007  0.0228 -0.2770
 2146TIP3    H127929   0.676   6.396  14.202 -0.3985 -0.0720  1.0821
 2146TIP3    H227930   0.617   6.271  14.139  0.7056  0.8197 -1.8504
 2147TIP3   OH227931   3.165   1.622   5.427  0.3526  0.5125  0.1097
 2147TIP3    H127932   3.187   1.682   5.356 -2.2993  2.9389  1.2291
 2147TIP3    H227933   3.134   1.679   5.497 -2.1150 -2.1563  1.2745
 2148TIP3   OH227934   1.917   1.714   0.668 -0.1408  0.6145 -0.1495
 2148TIP3    H127935   1.844   1.679   0.718  0.2575  0.2963  0.2117
 2148TIP3    H227936   1.915   1.808   0.685 -1.0294  0.7388 -0.8882
 2149TIP3   OH227937   4.346   3.575   4.538  0.1233 -0.1691 -0.5018
 2149TIP3    H127938   4.363   3.487   4.506  1.8846 -0.0876  0.1667
 2149TIP3    H227939   4.415   3.592   4.602 -1.1650  1.0779  0.5910
 2150TIP3   OH227940   6.256   2.760   1.507  0.3534  0.3855  0.6985
 2150TIP3    H127941   6.211   2.676   1.515 -0.7327  0.7769 -1.1143
 2150TIP3    H227942   6.266   2.790   1.598 -0.0268 -1.2809  1.3089
 2151TIP3   OH227943   5.428   0.484   1.553  0.1487 -0.0329  0.2651
 2151TIP3    H127944   5.389   0.418   1.496  0.7569 -1.1982  1.1736
 2151TIP3    H227945   5.361   0.552   1.560 -0.8895 -1.0178  0.1093
 2152TIP3   OH227946   1.737   2.464   5.077 -0.0464 -0.0423  0.0864
 2152TIP3    H127947   1.709   2.379   5.112 -1.2200  0.5810  0.6983
 2152TIP3    H227948   1.826   2.449   5.045 -0.0331 -1.3608  0.7136
 2153TIP3   OH227949   0.466   3.436  17.166 -0.5791 -0.2109 -0.2945
 2153TIP3    H127950   0.529   3.401  17.103 -2.0174 -0.9239 -1.3583
 2153TIP3    H227951   0.468   3.374  17.239  0.8071  0.4142  0.2311
 2154TIP3   OH227952   3.932   0.127  11.972  0.2449  0.2925  0.7162
 2154TIP3    H127953   3.964   0.125  12.062  1.5344  2.2585  0.3444
 2154TIP3    H227954   3.837   0.121  11.980  0.4371 -1.5801  2.0681
 2155TIP3   OH227955   5.753   3.998  10.989 -0.6644  0.0824 -0.0482
 2155TIP3    H127956   5.783   3.928  11.047  0.5521 -1.3292 -2.2961
 2155TIP3    H227957   5.825   4.062  10.989 -0.5549 -0.0401 -0.1843
 2156TIP3   OH227958   3.159   5.438   0.423 -0.3085  0.1996 -0.2576
 2156TIP3    H127959   3.245   5.396   0.430 -0.4861 -0.1141  0.0645
 2156TIP3    H227960   3.176   5.520   0.376  0.8457  1.9826  3.0819
 2157TIP3   OH227961   3.121   4.999  15.319 -0.3904  0.3598  0.2038
 2157TIP3    H127962   3.118   4.904  15.328  0.0979  0.1475 -1.6354
 2157TIP3    H227963   3.053   5.020  15.255  0.3163  1.1129 -0.3220
 2158TIP3   OH227964   5.320   5.666   5.336  0.2444  0.2207 -0.2788
 2158TIP3    H127965   5.278   5.753   5.336 -0.0314  0.0852 -1.1331
 2158TIP3    H227966   5.385   5.672   5.407 -0.8787  0.5882  0.7477
 2159TIP3   OH227967   4.488   5.708   0.268  0.3750 -0.4061  0.2659
 2159TIP3    H127968   4.460   5.648   0.199 -0.4988 -0.4673  0.6690
 2159TIP3    H227969   4.462   5.795   0.237  0.3236 -0.3926  0.3462
 2160TIP3   OH227970   0.287   2.324  14.272  0.0067  0.5544  0.2402
 2160TIP3    H127971   0.219   2.341  14.207 -0.2524 -0.5854  0.1977
 2160TIP3    H227972   0.268   2.385  14.343 -0.8260  0.5208  0.0530
 2161TIP3   OH227973   4.937   6.229   5.090  0.2836 -0.7025 -0.0534
 2161TIP3    H127974   5.021   6.201   5.124  0.1226 -1.3412 -0.1813
 2161TIP3    H227975   4.945   6.218   4.995  1.2209  2.3714 -0.3771
 2162TIP3   OH227976   1.467   2.769  17.107 -0.3000  0.2333  0.0160
 2162TIP3    H127977   1.502   2.682  17.088 -1.7678  0.2341 -2.9146
 2162TIP3    H227978   1.393   2.753  17.166 -0.0211 -0.4235  0.1885
 2163TIP3   OH227979   6.626   0.665   3.244 -0.4831 -0.1302 -0.2678
 2163TIP3    H127980   6.659   0.617   3.168 -2.0038 -0.8662 -0.4877
 2163TIP3    H227981   6.660   0.617   3.320 -0.6892 -0.6249 -0.4876
 2164TIP3   OH227982   5.985   0.597   2.087  0.3023  0.3247 -0.4101
 2164TIP3    H127983   5.903   0.608   2.039  0.1981 -0.0814 -0.3337
 2164TIP3    H227984   6.000   0.681   2.131  0.3724  0.6803 -1.1168
 2165TIP3   OH227985   5.272   5.227   5.447  0.0731  0.3926  0.3241
 2165TIP3    H127986   5.195   5.228   5.390  0.7697  0.6273 -0.6351
 2165TIP3    H227987   5.258   5.153   5.506 -0.3545 -0.2724 -0.6059
 2166TIP3   OH227988   0.367   2.991   2.164  0.7914  0.3555  0.7422
 2166TIP3    H127989   0.461   2.978   2.168  0.5291 -2.5558 -1.1618
 2166TIP3    H227990   0.331   2.920   2.218 -0.3784  0.0199 -0.4608
 2167TIP3   OH227991   4.218   0.344   2.994  0.0561 -0.4810 -0.0745
 2167TIP3    H127992   4.296   0.367   3.044  1.8434 -3.1694 -1.5472
 2167TIP3    H227993   4.224   0.397   2.915 -0.4957  0.5039  0.5230
 2168TIP3   OH227994   6.806   4.104  15.289  0.1859  0.0387 -0.1378
 2168TIP3    H127995   6.750   4.029  15.308 -1.0629  0.7316 -1.0081
 2168TIP3    H227996   6.839   4.132  15.374 -1.4478  0.1214  0.4805
 2169TIP3   OH227997   2.148   0.440  16.725  0.0971  0.2872 -0.0111
 2169TIP3    H127998   2.064   0.458  16.683 -0.0756 -0.0740  0.1699
 2169TIP3    H227999   2.208   0.423  16.652 -0.2144 -0.3889 -0.1152
 2170TIP3   OH228000   0.232   0.504   5.720 -0.1133  0.0221  0.2472
 2170TIP3    H128001   0.240   0.446   5.644  3.0741  0.0954  0.4662
 2170TIP3    H228002   0.194   0.449   5.789 -0.2061 -0.8643 -0.5140
 2171TIP3   OH228003   4.019   2.701   1.141 -0.2749  0.5073  0.0926
 2171TIP3    H128004   4.083   2.629   1.143  0.0253  0.7612 -0.3587
 2171TIP3    H228005   4.071   2.780   1.154 -0.5583  0.6788  0.1811
 2172TIP3   OH228006   5.731   4.042   5.642  0.2525  0.5022 -0.3486
 2172TIP3    H128007   5.703   4.053   5.733  1.4671  0.1346  0.0775
 2172TIP3    H228008   5.669   3.979   5.605 -0.6729  1.1814  0.0111
 2173TIP3   OH228009   4.760   2.693  15.336 -0.2610 -0.1446 -0.0145
 2173TIP3    H128010   4.801   2.682  15.250  1.5318 -0.8267  0.8918
 2173TIP3    H228011   4.781   2.783  15.361 -0.5219 -0.0438 -0.1569
 2174TIP3   OH228012   5.741   1.244   0.622  0.0743 -0.9034  0.3350
 2174TIP3    H128013   5.830   1.243   0.656 -0.3245  0.3846  1.4540
 2174TIP3    H228014   5.686   1.259   0.698 -0.9910 -0.1552 -0.5586
 2175TIP3   OH228015   6.080   1.760  11.105 -0.0560  0.0689  0.0085
 2175TIP3    H128016   6.007   1.718  11.152  0.1425  0.1820  0.4157
 2175TIP3    H228017   6.146   1.692  11.098  0.5127  0.4892  1.2132
 2176TIP3   OH228018   1.607   6.618  10.407  0.4624 -0.0860 -0.2839
 2176TIP3    H128019   1.607   6.711  10.426  0.6818 -0.4027  1.3882
 2176TIP3    H228020   1.690   6.586  10.443 -0.9564 -1.4262  1.9017
 2177TIP3   OH228021   0.644   6.301   1.926 -0.5966  1.0339 -0.3048
 2177TIP3    H128022   0.641   6.239   1.854 -0.0885  1.1097 -0.3919
 2177TIP3    H228023   0.630   6.247   2.005  1.3724  0.5639 -0.2415
 2178TIP3   OH228024   6.068   4.834   1.155  0.1111  0.4948  0.4214
 2178TIP3    H128025   6.152   4.872   1.129 -0.2953  1.4169  0.4102
 2178TIP3    H228026   6.008   4.909   1.156 -0.6873 -0.1428  0.5099
 2179TIP3   OH228027   1.880   5.494   3.816  0.0494 -0.7033 -0.3683
 2179TIP3    H128028   1.956   5.451   3.775  0.4757 -0.1635 -0.1475
 2179TIP3    H228029   1.804   5.452   3.776  0.4602 -2.1594  0.3476
 2180TIP3   OH228030   1.917   0.922  10.655  0.5364  0.4487  0.3273
 2180TIP3    H128031   1.860   0.945  10.728  0.3757  0.8437  0.0778
 2180TIP3    H228032   1.951   0.835  10.678  0.3637  0.5039  0.7936
 2181TIP3   OH228033   6.003   0.648  12.849  0.0279 -0.6935  0.0087
 2181TIP3    H128034   6.024   0.555  12.858  0.7367 -0.5380  0.0002
 2181TIP3    H228035   6.038   0.689  12.928  2.3678  0.0018 -1.3335
 2182TIP3   OH228036   0.949   0.555  10.935 -0.4539  0.6266 -0.0386
 2182TIP3    H128037   0.868   0.598  10.962 -0.9651 -0.1460 -0.3231
 2182TIP3    H228038   0.935   0.531  10.843 -0.1505 -0.0764  0.0932
 2183TIP3   OH228039   1.776   3.080   4.141 -0.2355 -0.1198  0.1404
 2183TIP3    H128040   1.787   3.051   4.050 -1.0165  0.0884 -0.0250
 2183TIP3    H228041   1.779   3.000   4.192  1.4502 -0.1322  0.0622
 2184TIP3   OH228042   6.113   3.476   0.105 -0.1536 -0.7383  0.3141
 2184TIP3    H128043   6.205   3.456   0.087  0.1332 -0.4201  1.3512
 2184TIP3    H228044   6.107   3.473   0.200 -0.7349  1.2912  0.3558
 2185TIP3   OH228045   0.016   4.686  15.064  0.2817  0.5314 -0.1395
 2185TIP3    H128046   0.083   4.735  15.017  0.7310  0.4005  0.3540
 2185TIP3    H228047  -0.018   4.624  15.000  0.9083  0.3333 -0.2817
 2186TIP3   OH228048   4.857   6.519   5.060  0.0839 -0.2193  0.2984
 2186TIP3    H128049   4.898   6.445   5.105 -2.1509 -1.5501  0.1800
 2186TIP3    H228050   4.899   6.520   4.973  1.2546 -0.3418  0.8518
 2187TIP3   OH228051   0.216   2.104  16.670 -0.5369  0.1121  0.2470
 2187TIP3    H128052   0.158   2.043  16.715 -2.5376  2.2136  0.5901
 2187TIP3    H228053   0.224   2.178  16.730  1.4155  0.4581 -0.3980
 2188TIP3   OH228054   3.888   1.576   5.434 -0.3286 -0.1283 -0.3233
 2188TIP3    H128055   3.895   1.504   5.372 -1.8812 -0.7200  0.1662
 2188TIP3    H228056   3.808   1.622   5.408  0.5283  1.2848 -0.4930
 2189TIP3   OH228057   4.629   1.377  16.191  0.2116 -0.3396 -0.0330
 2189TIP3    H128058   4.620   1.427  16.272  0.1066 -1.3075  0.5598
 2189TIP3    H228059   4.558   1.409  16.135 -1.5053 -1.6517  1.3217
 2190TIP3   OH228060   1.167   3.686   1.302  0.9723 -0.0730 -0.5951
 2190TIP3    H128061   1.225   3.743   1.252  1.8450 -0.7759 -0.4105
 2190TIP3    H228062   1.188   3.704   1.394 -0.0355  0.6165 -0.4970
 2191TIP3   OH228063   4.403   2.137  14.239  0.6043  0.1189  0.2337
 2191TIP3    H128064   4.351   2.099  14.310  1.4370 -0.4869  0.5338
 2191TIP3    H228065   4.364   2.222  14.223 -1.9212 -1.2407 -1.1057
 2192TIP3   OH228066   4.144   1.107  12.542 -0.2983  0.1985 -0.7015
 2192TIP3    H128067   4.080   1.174  12.519 -0.6326  0.2732  0.3840
 2192TIP3    H228068   4.206   1.152  12.600 -1.0718 -0.6463  0.8207
 2193TIP3   OH228069   1.752   3.922   5.298 -0.3929  0.0441  0.3961
 2193TIP3    H128070   1.681   3.985   5.283 -1.1322 -0.7665  0.4470
 2193TIP3    H228071   1.798   3.917   5.215 -0.0405  1.0011  0.5250
 2194TIP3   OH228072   0.268   6.661  16.219  0.3165  0.0386 -0.2206
 2194TIP3    H128073   0.205   6.595  16.190 -0.3809  0.8557 -0.6025
 2194TIP3    H228074   0.215   6.726  16.264  0.9641  0.4727 -0.0786
 2195TIP3   OH228075   1.945   5.269   0.032 -0.7117 -0.3022  0.0739
 2195TIP3    H128076   1.987   5.211  -0.032  2.1035 -0.3463  1.8578
 2195TIP3    H228077   1.888   5.212   0.083 -2.1443 -0.4564 -1.6198
 2196TIP3   OH228078   2.938   3.315   5.514 -0.0937 -0.4127 -0.1210
 2196TIP3    H128079   2.955   3.405   5.486 -0.4270 -0.4090 -0.3203
 2196TIP3    H228080   2.983   3.260   5.450 -0.4914 -0.3964 -0.4223
 2197TIP3   OH228081   0.819   6.218  11.790  0.5110 -0.1311  0.3043
 2197TIP3    H128082   0.853   6.223  11.701  1.5165  0.9763  0.7346
 2197TIP3    H228083   0.795   6.126  11.801 -1.0841  0.0263 -1.6169
 2198TIP3   OH228084   6.737   0.722   0.589  0.1792 -0.1018  0.5860
 2198TIP3    H128085   6.748   0.645   0.534 -1.2536 -0.2831  0.5396
 2198TIP3    H228086   6.776   0.794   0.539  2.5976 -0.9584  1.1233
 2199TIP3   OH228087   1.082   5.895   4.408  0.5055  0.6406  0.2490
 2199TIP3    H128088   1.164   5.846   4.396  0.5547  0.8151 -0.1452
 2199TIP3    H228089   1.023   5.833   4.452  0.9509  0.6203  0.8135
 2200TIP3   OH228090   1.309   6.331   1.457  0.3195 -0.4896 -0.2609
 2200TIP3    H128091   1.397   6.369   1.467 -0.0544  0.2614  0.2378
 2200TIP3    H228092   1.279   6.361   1.372  0.6224 -0.9085 -0.5177
 2201TIP3   OH228093   0.662   1.215   3.085  0.5699  0.1207  0.0048
 2201TIP3    H128094   0.640   1.279   3.016 -1.2658  0.4860  0.8749
 2201TIP3    H228095   0.704   1.267   3.153 -2.2668  0.7517  1.3672
 2202TIP3   OH228096   3.428   2.432  14.786 -0.2231  0.0159  0.8369
 2202TIP3    H128097   3.456   2.346  14.815 -0.5981 -0.1098  0.8297
 2202TIP3    H228098   3.449   2.490  14.859  0.2923 -0.0318  0.7265
 2203TIP3   OH228099   3.227   4.607  14.096  0.1247  0.0741 -0.0714
 2203TIP3    H128100   3.308   4.622  14.146  1.1463 -0.5821 -1.4930
 2203TIP3    H228101   3.233   4.515  14.069 -1.1535 -0.0042 -0.1271
 2204TIP3   OH228102   6.587   2.320   4.809 -0.4401  0.5068  0.1621
 2204TIP3    H128103   6.642   2.249   4.777  0.7014  0.6726  1.6820
 2204TIP3    H228104   6.538   2.349   4.733  0.9336 -0.2363 -1.0318
 2205TIP3   OH228105   3.819   6.692  14.653 -0.0192  1.1282 -0.0066
 2205TIP3    H128106   3.837   6.749  14.727  1.4887  1.4098 -0.5610
 2205TIP3    H228107   3.888   6.713  14.590 -0.8048  0.3239 -1.1531
 2206TIP3   OH228108   4.378   3.665   4.087  0.4722 -0.3650  0.3029
 2206TIP3    H128109   4.361   3.574   4.111  0.8287  0.2084  2.8277
 2206TIP3    H228110   4.392   3.710   4.170 -0.4330  2.1593 -0.8641
 2207TIP3   OH228111   6.332   1.372  11.726 -0.7051 -0.5601 -0.3093
 2207TIP3    H128112   6.270   1.444  11.712 -1.5860 -1.6039 -2.0275
 2207TIP3    H228113   6.410   1.399  11.678  0.3950  0.9879  2.2759
 2208TIP3   OH228114   2.880   5.417   1.000  0.4931 -0.5296 -0.2110
 2208TIP3    H128115   2.974   5.436   1.009  0.4573 -0.8067  0.8598
 2208TIP3    H228116   2.837   5.479   1.059 -0.1829  1.0856 -2.3416
 2209TIP3   OH228117   4.950   0.172   1.656  0.3480 -0.8377 -0.5865
 2209TIP3    H128118   4.904   0.154   1.738  1.6060  1.1840  0.6142
 2209TIP3    H228119   5.025   0.112   1.657  0.2769 -0.9234 -0.3131
 2210TIP3   OH228120   2.151   5.768   0.710 -0.3320 -0.3749  0.1659
 2210TIP3    H128121   2.093   5.706   0.755  0.3045 -1.2766 -0.2408
 2210TIP3    H228122   2.181   5.720   0.633 -0.2238  0.6296 -0.4131
 2211TIP3   OH228123   5.951   1.729   6.616 -0.2210  0.5857 -0.2188
 2211TIP3    H128124   5.981   1.744   6.526 -2.5549 -1.9005 -1.4759
 2211TIP3    H228125   5.992   1.647   6.642  1.4082  1.8899  1.4983
 2212TIP3   OH228126   1.251   5.728   4.900  0.2297  0.0972 -0.0385
 2212TIP3    H128127   1.302   5.704   4.978 -1.4724 -0.7654  0.8191
 2212TIP3    H228128   1.270   5.821   4.888 -0.4931  0.5686  2.1996
 2213TIP3   OH228129   1.760   3.996   0.544  0.0466  0.7379 -0.1881
 2213TIP3    H128130   1.819   3.930   0.509 -0.6024 -0.5401  1.0588
 2213TIP3    H228131   1.715   4.032   0.467  1.2859  0.6123 -0.9821
 2214TIP3   OH228132   4.827   1.487   4.415 -0.5770  0.3038  0.3460
 2214TIP3    H128133   4.766   1.561   4.419  0.7595  1.4961 -0.9000
 2214TIP3    H228134   4.913   1.527   4.406  0.1493 -1.4181 -0.5206
 2215TIP3   OH228135   5.101   6.473  11.571 -0.4628  0.3692 -0.3972
 2215TIP3    H128136   5.162   6.522  11.516 -0.7212 -1.0321 -2.0027
 2215TIP3    H228137   5.020   6.524  11.569  0.2414  1.5405  0.6406
 2216TIP3   OH228138   2.102   1.153  11.076 -0.1624  0.3588 -0.3352
 2216TIP3    H128139   2.141   1.068  11.057 -1.6199 -0.6044  0.9097
 2216TIP3    H228140   2.132   1.174  11.165 -0.2701  0.8826 -0.4184
 2217TIP3   OH228141   1.607   5.872  12.155  0.5556  0.1696  0.3056
 2217TIP3    H128142   1.683   5.918  12.192  0.9354 -0.6994  0.6211
 2217TIP3    H228143   1.644   5.812  12.090  0.2527 -1.1121  1.3052
 2218TIP3   OH228144   3.417   2.713   1.143  0.2128 -0.1315 -0.0467
 2218TIP3    H128145   3.363   2.691   1.066 -2.7412  1.8387  1.3377
 2218TIP3    H228146   3.414   2.635   1.198 -0.1829 -0.4981 -0.5826
 2219TIP3   OH228147   0.066   0.477   2.696  0.0838  0.5285 -0.2630
 2219TIP3    H128148   0.060   0.538   2.770 -1.4712 -0.9623  0.8925
 2219TIP3    H228149   0.112   0.401   2.731 -0.8400 -0.2747 -0.7377
 2220TIP3   OH228150   3.041   0.336   0.801 -0.2253 -0.2826  0.5147
 2220TIP3    H128151   2.961   0.296   0.837 -0.4505 -0.6695 -0.4064
 2220TIP3    H228152   3.049   0.298   0.714  0.9465 -0.2017  0.5871
 2221TIP3   OH228153   1.929   3.407   0.392 -0.8877  0.1046  0.2078
 2221TIP3    H128154   1.882   3.376   0.314  0.2691 -1.8563  0.2646
 2221TIP3    H228155   2.021   3.387   0.374 -0.4719  0.7675  1.5535
 2222TIP3   OH228156   5.583   3.807   1.945  0.1840  0.1290 -0.8946
 2222TIP3    H128157   5.506   3.846   1.985  0.8771  0.9381 -0.3423
 2222TIP3    H228158   5.649   3.806   2.014 -0.0276 -2.6919 -0.6704
 2223TIP3   OH228159   5.129   1.594  14.657  0.2176  0.3619 -0.4282
 2223TIP3    H128160   5.096   1.646  14.730 -3.1050  1.1947 -2.4303
 2223TIP3    H228161   5.079   1.513  14.659 -1.0834  1.0441 -2.6496
 2224TIP3   OH228162   4.079   0.299   1.480 -0.2280 -0.0123 -0.4086
 2224TIP3    H128163   4.101   0.246   1.403  0.1203  0.5695 -0.7127
 2224TIP3    H228164   4.160   0.301   1.532 -0.4495 -0.3664 -0.0505
 2225TIP3   OH228165   5.096   0.722   1.074 -0.0075 -0.1669 -0.1218
 2225TIP3    H128166   5.013   0.759   1.104 -0.3190 -1.0356  0.1167
 2225TIP3    H228167   5.116   0.654   1.138  0.5876 -0.3635 -0.5108
 2226TIP3   OH228168   6.162   3.212   5.318 -0.2709  0.1854 -0.2635
 2226TIP3    H128169   6.241   3.157   5.320  0.4792  1.1990 -1.9611
 2226TIP3    H228170   6.194   3.299   5.293 -1.8823  0.6854 -0.5900
 2227TIP3   OH228171   4.401   1.718   5.106 -0.6687  0.0151 -0.0512
 2227TIP3    H128172   4.382   1.653   5.174 -0.6926  0.9513  0.8565
 2227TIP3    H228173   4.340   1.790   5.125 -0.1557  0.6017 -0.6095
 2228TIP3   OH228174   0.957   6.090  14.207  0.2507 -0.0203  0.2531
 2228TIP3    H128175   0.889   6.087  14.275 -0.5741  0.5850 -0.5280
 2228TIP3    H228176   1.039   6.089  14.256 -0.3143 -0.5058  1.2264
 2229TIP3   OH228177   4.535   2.330   5.682 -0.4195 -0.5617  0.4524
 2229TIP3    H128178   4.628   2.311   5.695  0.2651  1.3276 -1.4393
 2229TIP3    H228179   4.517   2.302   5.592 -1.5509 -0.4076  0.6244
 2230TIP3   OH228180   6.122   0.685  15.487 -0.5075 -0.2654  0.1962
 2230TIP3    H128181   6.163   0.620  15.545 -1.3911  0.3292  1.5185
 2230TIP3    H228182   6.188   0.753  15.477 -0.2373 -0.5135  0.2628
 2231TIP3   OH228183   1.746   1.943   0.979 -0.0438  0.1904  0.0498
 2231TIP3    H128184   1.656   1.911   0.987  0.5714 -2.0620 -1.4781
 2231TIP3    H228185   1.788   1.919   1.062 -0.1219 -1.2539 -0.3180
 2232TIP3   OH228186   6.383   2.551  14.621  0.5149 -0.3736 -0.1131
 2232TIP3    H128187   6.428   2.633  14.643  4.0415 -2.2599  0.0398
 2232TIP3    H228188   6.297   2.560  14.663  0.6534  3.3529 -0.4022
 2233TIP3   OH228189   2.143   3.297   2.713 -0.4736  0.0269 -0.0602
 2233TIP3    H128190   2.068   3.342   2.751 -1.1943 -0.1810 -1.2002
 2233TIP3    H228191   2.207   3.293   2.783 -0.4553  2.6831  0.1374
 2234TIP3   OH228192   3.782   3.334  16.796  0.4122 -0.2926 -0.6560
 2234TIP3    H128193   3.745   3.245  16.797  0.1202 -0.1733 -0.7820
 2234TIP3    H228194   3.738   3.379  16.868  0.2679 -0.1337 -0.8446
 2235TIP3   OH228195   5.966   6.018  12.496 -0.4219  0.1086 -0.2492
 2235TIP3    H128196   6.058   6.027  12.469 -0.0128 -1.0984  0.7116
 2235TIP3    H228197   5.921   5.987  12.418  0.1288 -0.0719 -0.4953
 2236TIP3   OH228198   3.052   4.254  12.213 -0.0765 -0.1653  0.4491
 2236TIP3    H128199   3.011   4.310  12.147  0.1203  0.4268  0.8167
 2236TIP3    H228200   3.144   4.281  12.213  0.2808 -1.3798 -0.2645
 2237TIP3   OH228201   1.415   6.696   4.675 -0.3230  0.4864  0.2646
 2237TIP3    H128202   1.478   6.762   4.648 -0.5508  0.5909 -0.0197
 2237TIP3    H228203   1.392   6.650   4.594 -0.3473  0.2182  0.4222
 2238TIP3   OH228204   4.656   1.160  12.224 -0.2850 -0.1539 -0.0760
 2238TIP3    H128205   4.584   1.133  12.281 -0.2726 -0.8773 -0.4060
 2238TIP3    H228206   4.735   1.134  12.272 -0.2001  1.5508  0.7567
 2239TIP3   OH228207   4.051   2.750  14.981  0.0554  0.1544  0.2839
 2239TIP3    H128208   4.021   2.676  14.927  1.2513  0.7902 -1.3214
 2239TIP3    H228209   4.079   2.816  14.917  1.8711  0.7915  1.6842
 2240TIP3   OH228210   1.483   1.035  12.906 -0.2259  0.3816 -0.2436
 2240TIP3    H128211   1.568   1.061  12.943  0.0181 -0.4966 -0.1869
 2240TIP3    H228212   1.492   0.942  12.888 -0.3719  0.7679 -2.4569
 2241TIP3   OH228213   6.664   1.441  17.174 -0.0158 -0.0711  0.0601
 2241TIP3    H128214   6.733   1.425  17.109  0.5347  1.1186  0.3438
 2241TIP3    H228215   6.630   1.527  17.152 -1.1540 -0.4781  0.1739
 2242TIP3   OH228216   4.444   6.525  14.928  0.4113 -0.8343 -0.1784
 2242TIP3    H128217   4.354   6.499  14.905  0.3161 -0.1909 -0.5610
 2242TIP3    H228218   4.454   6.612  14.889  0.7518 -0.3367  0.9935
 2243TIP3   OH228219   4.781   2.103   1.603  0.4101 -0.2729  0.3265
 2243TIP3    H128220   4.722   2.118   1.529  0.8542  2.1326  0.4501
 2243TIP3    H228221   4.742   2.029   1.650 -0.4125 -1.1905 -1.7255
 2244TIP3   OH228222   3.327   2.094   2.619  0.5106 -0.0568  0.3635
 2244TIP3    H128223   3.249   2.068   2.669 -0.0340 -1.7616 -1.3109
 2244TIP3    H228224   3.298   2.167   2.564 -0.4028 -1.7261 -1.4488
 2245TIP3   OH228225   1.184   5.007   1.993 -0.0338 -0.0200  0.7658
 2245TIP3    H128226   1.206   5.099   2.007 -0.7624  0.2684  0.0726
 2245TIP3    H228227   1.180   4.998   1.898 -2.1774 -0.2269  0.8615
 2246TIP3   OH228228   2.942   3.344  11.464  0.8262  0.1610  0.3392
 2246TIP3    H128229   2.853   3.337  11.498  1.4972 -0.9051  1.9400
 2246TIP3    H228230   2.952   3.436  11.440 -0.3718  0.4781  1.0631
 2247TIP3   OH228231   0.773   2.516  12.357  0.3255 -0.0333 -0.1386
 2247TIP3    H128232   0.818   2.599  12.343 -1.8668  0.9912 -1.2868
 2247TIP3    H228233   0.712   2.509  12.284 -1.3259 -1.4281  1.3238
 2248TIP3   OH228234   4.338   1.117   6.046 -0.5544  0.2115  0.3949
 2248TIP3    H128235   4.420   1.163   6.029 -0.2645  0.1317  1.5500
 2248TIP3    H228236   4.362   1.049   6.109 -1.8546  1.3364  2.1436
 2249TIP3   OH228237   3.811   4.448  11.791  0.6069 -0.1219 -0.3368
 2249TIP3    H128238   3.731   4.430  11.742  0.6865  0.7199 -0.7867
 2249TIP3    H228239   3.838   4.536  11.762  1.5233 -0.2733  0.0319
 2250TIP3   OH228240   1.033   5.803   5.460  0.2898  0.8508 -0.4240
 2250TIP3    H128241   1.122   5.792   5.491 -0.6104  1.3175  2.5250
 2250TIP3    H228242   1.025   5.897   5.442 -0.6610  1.4794  2.9764
 2251TIP3   OH228243   4.496   6.598  13.433  0.1185  0.2781 -0.1375
 2251TIP3    H128244   4.493   6.668  13.367 -0.8497  0.6987  0.3440
 2251TIP3    H228245   4.589   6.586  13.451  0.3269  0.9878 -0.7130
 2252TIP3   OH228246   2.583   1.591   2.320  0.2113 -0.0255  0.1968
 2252TIP3    H128247   2.571   1.674   2.365  1.8906 -0.4459  1.5112
 2252TIP3    H228248   2.598   1.614   2.229 -0.2428  1.0618  0.3986
 2253TIP3   OH228249   5.875   3.285  14.349 -0.4392  0.2343  0.3211
 2253TIP3    H128250   5.924   3.224  14.293 -1.2376 -0.7679  0.6952
 2253TIP3    H228251   5.932   3.362  14.356  0.5807 -0.4597 -0.1817
 2254TIP3   OH228252   3.758   3.055   3.703 -0.2639 -0.0389  0.4798
 2254TIP3    H128253   3.669   3.091   3.704 -0.5141 -0.6114 -0.3956
 2254TIP3    H228254   3.769   3.021   3.614  1.1961  0.9165  0.2758
 2255TIP3   OH228255   2.599   4.780  11.458 -0.0032 -0.4296 -0.0674
 2255TIP3    H128256   2.527   4.842  11.463  0.0606 -0.4854  1.7620
 2255TIP3    H228257   2.647   4.805  11.379 -0.5485  1.2192  0.1122
 2256TIP3   OH228258   6.505   3.640  15.913 -0.0277  1.0985 -0.3279
 2256TIP3    H128259   6.599   3.658  15.914  0.1325  0.2965 -0.9818
 2256TIP3    H228260   6.480   3.638  16.006  0.3029  2.8357 -0.1816
 2257TIP3   OH228261   2.938   6.442   1.738  0.1654 -0.1630 -0.0904
 2257TIP3    H128262   2.998   6.408   1.672  0.5088 -1.4874  0.8753
 2257TIP3    H228263   2.993   6.457   1.815 -0.3828  0.5441  0.1708
 2258TIP3   OH228264   0.371   3.999  11.661  0.0689  0.0200  0.0746
 2258TIP3    H128265   0.356   4.039  11.747  1.5342  1.2375 -0.2258
 2258TIP3    H228266   0.325   3.915  11.666 -1.6613  0.9993  1.2888
 2259TIP3   OH228267   3.729   0.804  13.312 -0.1219 -0.2822  0.0328
 2259TIP3    H128268   3.701   0.879  13.259  1.0212 -0.7957 -1.3245
 2259TIP3    H228269   3.705   0.728  13.259  1.0757 -0.7991  0.2218
 2260TIP3   OH228270   1.734   2.645  16.321 -0.0880  0.3412 -0.3515
 2260TIP3    H128271   1.652   2.691  16.336  0.5038  2.4231 -3.0713
 2260TIP3    H228272   1.770   2.631  16.409 -2.8126  0.3610  0.8062
 2261TIP3   OH228273   6.339   3.248   5.665 -0.3310  0.2760  0.4206
 2261TIP3    H128274   6.296   3.168   5.634  0.8725  0.0342 -0.6742
 2261TIP3    H228275   6.275   3.318   5.650 -1.6591 -0.5436  2.0091
 2262TIP3   OH228276   1.261   3.942  16.485 -0.1150  0.5081 -0.1706
 2262TIP3    H128277   1.195   3.998  16.527  0.8072 -0.2019  2.3310
 2262TIP3    H228278   1.343   3.991  16.494  0.5598 -0.8330  1.3506
 2263TIP3   OH228279   2.431   0.980  14.942  0.2768  0.4031  0.0563
 2263TIP3    H128280   2.420   1.035  15.020  0.3423 -1.3459  1.3551
 2263TIP3    H228281   2.344   0.944  14.925  0.8412 -1.6552  1.2464
 2264TIP3   OH228282   1.849   0.703  14.948 -0.5652 -0.4540  0.0677
 2264TIP3    H128283   1.853   0.673  14.857  1.9360  1.3311 -0.4582
 2264TIP3    H228284   1.940   0.709  14.976 -1.1721  1.9964  1.6990
 2265TIP3   OH228285   2.297   2.877   1.694 -0.5439 -0.0755 -0.0213
 2265TIP3    H128286   2.231   2.923   1.745 -2.5292  0.1354 -2.6499
 2265TIP3    H228287   2.271   2.785   1.697 -0.7185 -0.0530 -0.6945
 2266TIP3   OH228288   6.514   3.262  13.207  0.0519 -0.6780  0.2025
 2266TIP3    H128289   6.439   3.226  13.254 -1.5429  0.3736 -1.4525
 2266TIP3    H228290   6.524   3.204  13.131  0.4669 -0.4121  0.0576
 2267TIP3   OH228291   5.588   3.335  13.744  0.4170 -0.4756  0.1131
 2267TIP3    H128292   5.493   3.342  13.752  0.5133 -1.1904  2.0346
 2267TIP3    H228293   5.613   3.411  13.692 -0.9723  0.9557  1.4834
 2268TIP3   OH228294   4.192   4.549  15.617 -0.0109  0.5650 -0.2983
 2268TIP3    H128295   4.266   4.499  15.652  0.1501  0.4883 -0.7523
 2268TIP3    H228296   4.216   4.569  15.527 -0.3946  0.8353 -0.3439
 2269TIP3   OH228297   3.859   5.533  14.768 -0.2421  0.4009 -0.6942
 2269TIP3    H128298   3.937   5.574  14.806 -1.1018  1.3328  0.0898
 2269TIP3    H228299   3.798   5.526  14.841 -0.6895 -0.8570 -1.1759
 2270TIP3   OH228300   4.947   6.132  12.724  0.1152 -0.3352 -0.7134
 2270TIP3    H128301   4.937   6.156  12.816 -0.6962  1.5382 -1.2819
 2270TIP3    H228302   5.041   6.136  12.707  0.0889  1.2522 -0.4783
 2271TIP3   OH228303   2.292   0.008  15.132  0.3811  0.4430 -0.1246
 2271TIP3    H128304   2.348  -0.057  15.090 -0.6305  0.0043 -0.8074
 2271TIP3    H228305   2.252  -0.037  15.205 -1.2446 -0.0745 -1.3017
 2272TIP3   OH228306   5.191   0.061  16.195 -0.4845  0.5289  0.2363
 2272TIP3    H128307   5.138  -0.015  16.170  0.0449  0.8285 -1.9101
 2272TIP3    H228308   5.279   0.026  16.207 -0.6542  0.4596  1.3250
 2273TIP3   OH228309   0.773   1.889   2.054  0.3229  0.3847 -0.1755
 2273TIP3    H128310   0.815   1.931   2.129 -0.2155  0.6738 -0.0314
 2273TIP3    H228311   0.682   1.919   2.058  0.4045  0.8010 -1.2312
 2274TIP3   OH228312   3.421   6.223  12.042  0.1861  0.3747 -0.0321
 2274TIP3    H128313   3.355   6.264  12.098 -0.3950  1.3454 -1.3788
 2274TIP3    H228314   3.440   6.139  12.084 -3.2416 -0.7532 -0.5524
 2275TIP3   OH228315   5.253   6.441  14.089 -0.4953 -0.1431 -0.0948
 2275TIP3    H128316   5.338   6.464  14.051 -0.3423  0.0659  0.3627
 2275TIP3    H228317   5.240   6.350  14.065 -0.3283 -0.0587 -0.5085
 2276TIP3   OH228318   5.278   5.642   3.095  0.0521 -0.3753 -0.2284
 2276TIP3    H128319   5.370   5.667   3.106  0.0027  1.0222 -2.6371
 2276TIP3    H228320   5.230   5.725   3.100 -0.6535 -0.5664 -2.9096
 2277TIP3   OH228321   2.756   3.881   3.975 -0.3339  0.2916 -0.2682
 2277TIP3    H128322   2.688   3.931   3.929 -1.5365  0.2097  1.3690
 2277TIP3    H228323   2.834   3.936   3.968 -1.3621  1.9210  0.5617
 2278TIP3   OH228324   6.407   3.443   4.511  0.1358  0.9742  0.2158
 2278TIP3    H128325   6.404   3.352   4.540  0.9817  0.1524 -2.2055
 2278TIP3    H228326   6.499   3.468   4.519  0.3449  0.8075 -1.4739
 2279TIP3   OH228327   3.347   3.523   2.158  0.2745  0.2785 -0.5723
 2279TIP3    H128328   3.422   3.464   2.162 -0.8385 -1.1553 -0.4778
 2279TIP3    H228329   3.356   3.579   2.235  0.9086 -0.2884 -0.2326
 2280TIP3   OH228330   5.390   6.718   5.670 -0.2963  0.4245 -1.0663
 2280TIP3    H128331   5.445   6.752   5.740 -1.1660  1.0825 -0.6976
 2280TIP3    H228332   5.427   6.754   5.590  0.6368 -0.2429 -0.9456
 2281TIP3   OH228333   4.357   4.753  16.357  0.0315  0.2097  0.2084
 2281TIP3    H128334   4.303   4.763  16.436 -1.7204 -0.0696 -0.9342
 2281TIP3    H228335   4.431   4.811  16.372 -1.6021  2.1948  0.9222
 2282TIP3   OH228336   5.061   4.478  11.254 -0.0994  0.0116  0.1014
 2282TIP3    H128337   5.012   4.485  11.336  0.8196 -1.1149  0.7745
 2282TIP3    H228338   5.137   4.535  11.266 -1.1787  1.7034 -0.9134
 2283TIP3   OH228339   3.380   4.456   3.489 -0.6511  0.2598  0.3747
 2283TIP3    H128340   3.290   4.487   3.488 -0.6334  0.4331  2.8417
 2283TIP3    H228341   3.432   4.536   3.496 -0.2951  0.1422 -0.7661
 2284TIP3   OH228342   0.308   6.385  11.659  0.3446 -0.5293  0.3649
 2284TIP3    H128343   0.373   6.456  11.651 -0.9901  0.6665 -0.1063
 2284TIP3    H228344   0.241   6.407  11.594 -0.1865 -2.1352  0.3559
 2285TIP3   OH228345   4.797   6.530  15.743 -0.0605  0.2559  0.3597
 2285TIP3    H128346   4.770   6.456  15.797  1.2198 -0.5892 -0.1385
 2285TIP3    H228347   4.878   6.501  15.700 -0.2223  1.4796 -0.8152
 2286TIP3   OH228348   0.839   4.001   0.576  0.1790 -0.2238 -0.1069
 2286TIP3    H128349   0.894   3.923   0.588 -0.1273 -0.0909  2.3100
 2286TIP3    H228350   0.892   4.058   0.520  0.6431 -1.9061 -1.4568
 2287TIP3   OH228351   3.027   0.878  14.603 -0.2425 -0.0700  0.1376
 2287TIP3    H128352   3.085   0.862  14.528 -0.6348 -0.2063 -0.1440
 2287TIP3    H228353   2.998   0.969  14.592 -2.1390 -0.8052 -1.1836
 2288TIP3   OH228354   1.960   0.191  13.336  0.3285  0.5958 -0.4925
 2288TIP3    H128355   1.999   0.272  13.303  0.4328  0.6067 -0.3418
 2288TIP3    H228356   2.024   0.157  13.398  0.1399  0.5657 -0.3128
 2289TIP3   OH228357   1.072   0.410   1.961 -0.5275 -0.1411  0.1558
 2289TIP3    H128358   1.078   0.506   1.952  1.0726 -0.0419  1.8856
 2289TIP3    H228359   1.073   0.378   1.871  0.8212  1.4090 -0.4247
 2290TIP3   OH228360   1.406   4.859   0.179 -0.4518 -0.1027  0.2473
 2290TIP3    H128361   1.426   4.774   0.218  0.0731 -0.1873 -0.1994
 2290TIP3    H228362   1.344   4.900   0.240 -0.2784 -0.5756  0.7399
 2291TIP3   OH228363   4.403   1.406   0.940  0.3850 -0.2830  0.5424
 2291TIP3    H128364   4.430   1.337   0.879 -0.7192 -0.3522  0.1385
 2291TIP3    H228365   4.480   1.463   0.946  1.0520 -1.1314  0.3142
 2292TIP3   OH228366   6.161   3.157  11.247  0.9292 -0.6009  0.2503
 2292TIP3    H128367   6.172   3.115  11.162 -0.8724  1.1577 -0.9051
 2292TIP3    H228368   6.192   3.247  11.233 -0.2374 -0.0351  1.1713
 2293TIP3   OH228369   1.057   5.308  13.793 -0.3389  0.1729  0.0373
 2293TIP3    H128370   1.077   5.346  13.708 -0.3686  0.5267  0.1881
 2293TIP3    H228371   1.135   5.326  13.846 -0.5795  0.5262  0.2749
 2294TIP3   OH228372   4.191   6.585   5.433 -0.5290 -0.4372  0.0289
 2294TIP3    H128373   4.146   6.545   5.507 -3.0224  1.1337 -0.5669
 2294TIP3    H228374   4.144   6.667   5.417  2.3193  1.1114 -0.9183
 2295TIP3   OH228375   4.806   1.747  15.553 -0.3750 -0.1386 -0.2912
 2295TIP3    H128376   4.805   1.677  15.488  0.4044  0.8646 -1.4095
 2295TIP3    H228377   4.766   1.822  15.508 -1.2706  0.1299  0.9069
 2296TIP3   OH228378   2.514   0.355   3.722 -0.3983 -0.0729  0.1193
 2296TIP3    H128379   2.453   0.321   3.657  0.0158  0.9161 -0.8091
 2296TIP3    H228380   2.511   0.450   3.711  0.7807  0.0293  0.5245
 2297TIP3   OH228381   1.988   3.831   1.638  0.1953  0.1134 -0.2507
 2297TIP3    H128382   1.898   3.816   1.667  1.4957 -2.2476  2.8429
 2297TIP3    H228383   2.024   3.890   1.705  1.3227  0.0303 -0.7885
 2298TIP3   OH228384   2.040   6.697  16.881 -0.3146  0.2764 -0.1287
 2298TIP3    H128385   2.049   6.695  16.786 -0.3283 -2.3957 -0.1149
 2298TIP3    H228386   2.115   6.747  16.912 -0.4138  1.3227 -1.5554
 2299TIP3   OH228387   3.074   3.834   2.147  0.0047  0.0264  0.2255
 2299TIP3    H128388   3.166   3.814   2.161 -0.0455  0.0717  0.6219
 2299TIP3    H228389   3.046   3.879   2.227 -0.1995  0.5725 -0.1485
 2300TIP3   OH228390   5.397   4.692   5.836  0.8038 -0.0849 -0.1556
 2300TIP3    H128391   5.457   4.751   5.791  2.4470 -1.9253 -0.4395
 2300TIP3    H228392   5.412   4.709   5.929  0.4717  0.6951 -0.2346
 2301TIP3   OH228393   0.728   4.663  10.967  0.5602 -0.3678 -0.5141
 2301TIP3    H128394   0.701   4.703  10.884 -0.9578 -1.1404 -0.4222
 2301TIP3    H228395   0.730   4.569  10.949  2.9290 -0.3502 -0.4038
 2302TIP3   OH228396   1.534   6.371   0.541 -0.2187 -0.4695  0.2388
 2302TIP3    H128397   1.516   6.456   0.499 -0.2930 -0.1754  0.8633
 2302TIP3    H228398   1.624   6.350   0.515 -0.1194 -0.0925  0.2744
 2303TIP3   OH228399   2.612   6.074   3.984  0.1109 -0.0758 -0.2250
 2303TIP3    H128400   2.525   6.112   3.998  1.0451  2.2149 -0.4168
 2303TIP3    H228401   2.612   5.993   4.036 -2.3097 -0.3878 -0.6635
 2304TIP3   OH228402   1.572   0.191  11.394  0.4045 -0.5069 -0.8611
 2304TIP3    H128403   1.609   0.136  11.462 -1.5829 -2.6529 -1.4469
 2304TIP3    H228404   1.640   0.255  11.374  1.4042 -0.5347  2.3379
 2305TIP3   OH228405   5.877   5.803   0.654  0.2297  0.1308 -0.0720
 2305TIP3    H128406   5.896   5.798   0.560  0.6086 -1.1344  0.0667
 2305TIP3    H228407   5.811   5.872   0.661 -0.4991 -0.4212 -1.3735
 2306TIP3   OH228408   0.620   4.886   4.100  0.1058 -0.5067  0.2442
 2306TIP3    H128409   0.666   4.908   4.019  0.0940 -2.5143 -0.3488
 2306TIP3    H228410   0.537   4.934   4.094  0.0765 -0.6839 -0.9744
 2307TIP3   OH228411   2.263   6.359   1.356  0.0459 -0.0917 -0.0123
 2307TIP3    H128412   2.318   6.324   1.286 -0.6895  1.3280 -1.3055
 2307TIP3    H228413   2.182   6.308   1.350 -0.1076  0.1936 -0.3366
 2308TIP3   OH228414   6.681   6.648   3.230  0.6348  0.1620  0.3793
 2308TIP3    H128415   6.663   6.566   3.275  0.6245 -0.5408 -0.8860
 2308TIP3    H228416   6.767   6.675   3.263  1.0433 -0.8205  0.1446
 2309TIP3   OH228417   1.900   3.224   4.400 -0.7879 -0.3239  0.2210
 2309TIP3    H128418   1.857   3.150   4.443 -4.3505  0.3459 -1.9571
 2309TIP3    H228419   1.978   3.186   4.359 -0.8262 -2.2159  1.8162
 2310TIP3   OH228420   5.672   2.165  17.288 -0.1042 -0.1843  0.1344
 2310TIP3    H128421   5.633   2.112  17.218  1.0645 -0.4432 -0.3359
 2310TIP3    H228422   5.617   2.243  17.293 -0.6380 -0.5106 -0.5672
 2311TIP3   OH228423   0.421   5.617  16.651  0.3239  0.3072  0.6636
 2311TIP3    H128424   0.447   5.695  16.603 -3.4185  1.7902  0.8877
 2311TIP3    H228425   0.432   5.545  16.589 -1.2850  1.7587 -1.3605
 2312TIP3   OH228426   3.459   3.342  11.957  0.0837 -0.3552  0.2261
 2312TIP3    H128427   3.452   3.415  11.895  1.6793 -1.8972 -1.8190
 2312TIP3    H228428   3.373   3.339  11.999 -1.0782  0.7091 -1.9479
 2313TIP3   OH228429   0.053   1.845  12.415  0.5220 -0.8593 -0.3281
 2313TIP3    H128430   0.046   1.877  12.505 -1.0972 -1.3515 -0.2597
 2313TIP3    H228431   0.139   1.875  12.386  1.7194 -1.9610  1.8833
 2314TIP3   OH228432   3.598   1.095   4.673 -0.5056 -0.0671  0.3308
 2314TIP3    H128433   3.601   1.147   4.592 -1.1850 -0.7952 -0.1714
 2314TIP3    H228434   3.666   1.028   4.660 -1.3787 -0.8714 -0.1198
 2315TIP3   OH228435   3.272   6.288   3.268 -0.6272  0.2563  0.0388
 2315TIP3    H128436   3.274   6.376   3.307 -1.0674 -0.0918  0.8724
 2315TIP3    H228437   3.334   6.238   3.321 -1.2689 -0.2395  0.3230
 2316TIP3   OH228438   0.362   2.844  10.939  0.0051 -0.2267  0.4499
 2316TIP3    H128439   0.281   2.880  10.902 -0.0936 -0.8438  0.0697
 2316TIP3    H228440   0.407   2.920  10.976 -1.4132 -0.0769  1.9252
 2317TIP3   OH228441   1.062   1.092   3.516 -0.5181 -0.0538  0.3875
 2317TIP3    H128442   1.100   1.004   3.514 -0.3419 -0.0018  1.3466
 2317TIP3    H228443   1.112   1.139   3.583 -1.0216  0.5885  0.3227
 2318TIP3   OH228444   4.536   0.954   1.896 -0.2595  0.4531 -0.6421
 2318TIP3    H128445   4.625   0.930   1.869 -0.1183  1.7798 -1.3739
 2318TIP3    H228446   4.481   0.931   1.821 -0.1959  1.9500 -1.1415
 2319TIP3   OH228447   3.148   2.042   6.157  0.6574 -0.3905 -0.0978
 2319TIP3    H128448   3.199   2.090   6.092  0.7181  1.9277  1.5870
 2319TIP3    H228449   3.209   1.976   6.190  1.3594 -0.0849 -0.7613
 2320TIP3   OH228450   3.874   2.452   4.384  0.8589  0.0323  0.3675
 2320TIP3    H128451   3.799   2.412   4.339  0.7395 -0.5246  1.0563
 2320TIP3    H228452   3.909   2.514   4.320  0.5297 -0.5561 -0.3960
 2321TIP3   OH228453   3.147   3.116  13.810 -0.2097  0.0758  0.3803
 2321TIP3    H128454   3.070   3.104  13.865  1.5439 -0.1706  2.8646
 2321TIP3    H228455   3.182   3.028  13.797 -1.1219  0.0256 -1.9505
 2322TIP3   OH228456   3.170   4.836   0.486  0.3668  1.1537  0.0038
 2322TIP3    H128457   3.136   4.901   0.425 -1.3798  2.2454  2.0597
 2322TIP3    H228458   3.170   4.880   0.571  0.8750 -0.9368  1.1295
 2323TIP3   OH228459   2.634   4.635   2.370  0.2034 -0.3590  0.9932
 2323TIP3    H128460   2.627   4.543   2.392 -0.8391 -0.7152 -0.8041
 2323TIP3    H228461   2.728   4.650   2.358  0.3370 -1.2520  0.9378
 2324TIP3   OH228462   1.189   6.373  12.527 -0.3263  0.2763  0.1469
 2324TIP3    H128463   1.115   6.430  12.548  1.4018  2.2982  0.8250
 2324TIP3    H228464   1.195   6.313  12.601 -1.2220  0.1650  0.1350
 2325TIP3   OH228465   2.046   5.487  10.531  0.2278 -0.5739  0.2161
 2325TIP3    H128466   2.048   5.489  10.435  1.1616  0.3937  0.2429
 2325TIP3    H228467   2.138   5.495  10.557  0.0319 -1.3703  1.1934
 2326TIP3   OH228468   5.791   2.538   5.874  0.1242  0.1188  0.0415
 2326TIP3    H128469   5.720   2.573   5.928 -0.6946 -0.7734 -0.4365
 2326TIP3    H228470   5.777   2.443   5.874  2.7122 -0.3090  1.8663
 2327TIP3   OH228471   3.135   0.324  16.216  0.1150  0.4364 -0.0308
 2327TIP3    H128472   3.051   0.283  16.237  0.6269  0.0117  1.2568
 2327TIP3    H228473   3.122   0.364  16.130 -1.2615 -0.0124 -0.0385
 2328TIP3   OH228474   3.450   4.302   4.455  0.3375  0.7742  0.3926
 2328TIP3    H128475   3.386   4.368   4.481  0.0948  1.2513 -1.3341
 2328TIP3    H228476   3.433   4.289   4.362  1.8198 -0.1390  0.2449
 2329TIP3   OH228477   4.542   3.867  12.583  0.6969  0.5356 -0.5520
 2329TIP3    H128478   4.465   3.919  12.604 -0.9839 -1.8812 -0.4616
 2329TIP3    H228479   4.607   3.892  12.649 -0.8705  0.8093  0.9240
 2330TIP3   OH228480   4.128   3.848  12.118 -0.3037  0.0260  0.6519
 2330TIP3    H128481   4.132   3.754  12.132  0.2087  0.4441  3.5971
 2330TIP3    H228482   4.035   3.868  12.110 -0.4081 -0.7158 -0.0156
 2331TIP3   OH228483   5.691   4.314   0.749  0.8382 -0.6989 -0.0263
 2331TIP3    H128484   5.706   4.382   0.814  1.3723  0.0238 -0.8792
 2331TIP3    H228485   5.602   4.283   0.765  0.3609  0.6591 -0.0432
 2332TIP3   OH228486   2.671   0.545  12.300  0.0845  0.3088 -0.1324
 2332TIP3    H128487   2.608   0.473  12.298 -2.5447  2.4901  1.8685
 2332TIP3    H228488   2.666   0.584  12.213  0.3999 -0.9739 -0.7314
 2333TIP3   OH228489   0.716   2.836   2.786 -0.0270  0.0104  0.0040
 2333TIP3    H128490   0.781   2.821   2.717  0.2226 -0.6217  0.3717
 2333TIP3    H228491   0.755   2.905   2.840  0.1469 -0.0697 -0.0182
 2334TIP3   OH228492   6.636   0.597  13.728 -0.8316  0.0499 -0.1588
 2334TIP3    H128493   6.583   0.605  13.649  2.4536 -0.8116 -2.5160
 2334TIP3    H228494   6.682   0.514  13.719  1.0290  0.8207  1.7538
 2335TIP3   OH228495   6.335   4.662  14.358 -0.1226  0.2240  0.4960
 2335TIP3    H128496   6.289   4.685  14.438 -0.4812  0.4846  0.2172
 2335TIP3    H228497   6.337   4.567  14.357 -2.9854  0.1389 -0.7923
 2336TIP3   OH228498   1.252   5.140  10.424 -0.0934 -0.0519 -0.0979
 2336TIP3    H128499   1.215   5.055  10.401  0.1834 -1.0599  2.9954
 2336TIP3    H228500   1.300   5.168  10.345 -0.3542 -2.6562 -1.2071
 2337TIP3   OH228501   4.993   5.956   3.793  0.3591  0.5780  0.0507
 2337TIP3    H128502   5.084   5.981   3.778  0.4968 -1.2331 -2.4709
 2337TIP3    H228503   4.994   5.912   3.878  1.8136  0.7104  0.1111
 2338TIP3   OH228504   5.230   3.340  11.299  0.3605 -0.8069 -0.4440
 2338TIP3    H128505   5.278   3.258  11.284  0.3009 -0.9914  0.3218
 2338TIP3    H228506   5.287   3.390  11.358  0.6448 -0.0630 -1.3319
 2339TIP3   OH228507   6.090   5.434   0.336  0.2424  0.6319  0.2130
 2339TIP3    H128508   6.085   5.341   0.359  1.5804  0.4396 -0.2605
 2339TIP3    H228509   6.066   5.479   0.417 -0.0959 -0.1129  0.5404
 2340TIP3   OH228510   3.785   4.399  15.509  0.3841 -0.7425  0.4447
 2340TIP3    H128511   3.860   4.340  15.519  1.5113  0.4402 -0.6818
 2340TIP3    H228512   3.709   4.342  15.514  1.4515 -2.3589 -0.8548
 2341TIP3   OH228513   1.631   3.019   3.170 -0.5583  0.3622 -0.5976
 2341TIP3    H128514   1.714   3.066   3.172 -1.2480  1.6630 -1.3680
 2341TIP3    H228515   1.588   3.042   3.253  0.8922 -2.3269  0.9584
 2342TIP3   OH228516   4.346   2.065  14.508 -0.2188  0.3467  0.4653
 2342TIP3    H128517   4.439   2.082  14.521 -0.7136  0.8883  3.7467
 2342TIP3    H228518   4.338   1.970  14.518  0.1332  0.1640 -0.9495
 2343TIP3   OH228519   5.156   0.356  14.466  0.1423  0.0767 -0.2916
 2343TIP3    H128520   5.094   0.287  14.441 -1.4369  1.2009  0.4393
 2343TIP3    H228521   5.145   0.365  14.561  1.3340  0.3818 -0.1804
 2344TIP3   OH228522   0.087   1.767  14.193 -0.1959  0.9877  0.1548
 2344TIP3    H128523   0.089   1.740  14.285 -1.2072 -1.6390 -0.5389
 2344TIP3    H228524   0.177   1.757  14.163 -0.0831  0.7305  0.5778
 2345TIP3   OH228525   6.491   5.243   3.654 -0.3253  0.1435 -0.1344
 2345TIP3    H128526   6.493   5.229   3.560  1.1462  1.7345 -0.3677
 2345TIP3    H228527   6.507   5.157   3.692 -0.8454 -0.4859 -1.3180
 2346TIP3   OH228528   1.172   4.664   1.512  0.2472  0.8892 -0.6213
 2346TIP3    H128529   1.127   4.667   1.596  1.6273 -1.2509  0.2440
 2346TIP3    H228530   1.103   4.647   1.448 -0.1558 -3.4714  0.7908
 2347TIP3   OH228531   6.789   1.674   3.534  0.9444  0.1346  0.0168
 2347TIP3    H128532   6.857   1.724   3.489  2.5155 -0.3269  1.8600
 2347TIP3    H228533   6.766   1.728   3.610  0.5266 -0.5649  0.3892
 2348TIP3   OH228534   3.206   2.916  14.194 -0.2179 -0.2274  0.3912
 2348TIP3    H128535   3.301   2.917  14.199 -0.2319  0.1313  0.5987
 2348TIP3    H228536   3.184   2.827  14.167  0.1740 -0.3192  0.3760
 2349TIP3   OH228537   0.237   1.042  16.387 -0.0436 -0.5186  0.4182
 2349TIP3    H128538   0.271   1.131  16.400 -0.8639  0.0229 -1.1303
 2349TIP3    H228539   0.262   1.019  16.298 -2.4665 -0.6607 -0.2685
 2350TIP3   OH228540   3.171   2.462  11.726 -0.6288 -0.0977  0.5667
 2350TIP3    H128541   3.228   2.422  11.792 -0.6233 -1.1237 -0.0449
 2350TIP3    H228542   3.129   2.535  11.772 -1.9092 -1.8261  2.2043
 2351TIP3   OH228543   3.158   4.277   0.051 -0.5210 -0.0538 -0.2989
 2351TIP3    H128544   3.113   4.286   0.135 -0.3175  1.3000 -0.3254
 2351TIP3    H228545   3.096   4.312  -0.013 -0.8065 -1.3803 -0.7629
 2352TIP3   OH228546   3.942   6.645  15.834  0.4840  0.0193  0.2344
 2352TIP3    H128547   3.934   6.740  15.842  0.5957 -0.0375  1.0138
 2352TIP3    H228548   3.907   6.626  15.747  0.9389  0.8287 -0.1386
 2353TIP3   OH228549   3.175   5.817  14.940  0.6182  0.0942  0.0528
 2353TIP3    H128550   3.165   5.872  15.017  0.7278 -0.6573  0.6042
 2353TIP3    H228551   3.172   5.878  14.866  1.8979  0.9705  0.7163
 2354TIP3   OH228552   4.689   3.697   1.308 -0.0993  0.6524  0.1492
 2354TIP3    H128553   4.649   3.769   1.355  0.5275  1.1045 -0.0052
 2354TIP3    H228554   4.674   3.620   1.363 -2.0420  0.6331 -0.3773
 2355TIP3   OH228555   0.506   0.056   2.126  0.0019  0.6021 -0.1399
 2355TIP3    H128556   0.582   0.109   2.151  0.1402  0.3500 -0.0130
 2355TIP3    H228557   0.536   0.007   2.049 -0.0680  0.5865 -0.1564
 2356TIP3   OH228558   3.698   1.104   5.202  0.2552 -0.9251  0.1398
 2356TIP3    H128559   3.635   1.113   5.130  0.4947  0.7129  0.1199
 2356TIP3    H228560   3.784   1.106   5.160  0.4024  0.2956  0.4803
 2357TIP3   OH228561   6.708   6.718  17.180 -0.2195 -0.0061 -0.0341
 2357TIP3    H128562   6.719   6.696  17.273  2.3369  0.1906 -0.2565
 2357TIP3    H228563   6.718   6.813  17.177  2.2606 -0.2494 -0.7997
 2358TIP3   OH228564   5.611   4.479   3.858 -0.3589 -0.0220  0.6708
 2358TIP3    H128565   5.672   4.453   3.927 -1.2034 -0.2146  1.3422
 2358TIP3    H228566   5.653   4.555   3.818  1.3104 -1.3661 -0.2138
 2359TIP3   OH228567   4.541   0.166  17.198 -0.2738  0.1707 -0.2627
 2359TIP3    H128568   4.606   0.200  17.136  1.1164  0.2485  1.1998
 2359TIP3    H228569   4.458   0.201  17.167  0.9147  3.8083  0.3407
 2360TIP3   OH228570   6.034   0.658   0.906  0.1342  0.0319 -0.1179
 2360TIP3    H128571   6.091   0.668   0.982  0.9001  1.4123 -0.8379
 2360TIP3    H228572   5.965   0.723   0.920 -1.2181 -1.5456  0.6865
 2361TIP3   OH228573   0.215   5.493   1.827 -0.1611  0.2779 -0.2137
 2361TIP3    H128574   0.214   5.485   1.731 -0.5888  0.6776 -0.2456
 2361TIP3    H228575   0.135   5.449   1.855 -0.2697  0.5638 -0.0751
 2362TIP3   OH228576   4.558   6.783   5.100  0.9428 -0.0292 -0.1916
 2362TIP3    H128577   4.481   6.727   5.109  2.5068 -2.2326 -0.0298
 2362TIP3    H228578   4.631   6.728   5.129  2.4887  2.2759  0.4348
 2363TIP3   OH228579   2.231   0.016   4.614  0.4051  0.2841  0.1297
 2363TIP3    H128580   2.326   0.007   4.613  0.3911  0.1936 -0.2424
 2363TIP3    H228581   2.216   0.104   4.649  0.6564  0.8137 -1.0840
 2364TIP3   OH228582   4.085   2.247  11.659 -0.0812  0.3528  0.4407
 2364TIP3    H128583   4.085   2.211  11.748 -0.5454  1.7491  1.0101
 2364TIP3    H228584   4.169   2.291  11.650  0.7877 -1.4205 -0.5096
 2365TIP3   OH228585   5.472   2.059   5.285 -0.1867  0.8272 -0.1827
 2365TIP3    H128586   5.501   2.026   5.200 -2.6373  0.6887 -1.0303
 2365TIP3    H228587   5.499   2.151   5.286  1.2608  0.4121 -0.4206
 2366TIP3   OH228588   1.200   3.781   0.164  1.0834  1.0909  0.3550
 2366TIP3    H128589   1.171   3.838   0.093  0.9221  0.5821  0.0120
 2366TIP3    H228590   1.288   3.752   0.137  1.2170  1.2812  0.5882
 2367TIP3   OH228591   5.220   1.756   6.067 -0.0850 -0.0749 -0.0356
 2367TIP3    H128592   5.185   1.673   6.101  0.4100 -0.9786 -1.6808
 2367TIP3    H228593   5.181   1.823   6.123 -0.3949 -1.4186  1.4127
 2368TIP3   OH228594   2.332   2.512   4.960 -0.4887 -0.0950  0.5051
 2368TIP3    H128595   2.336   2.435   5.017  0.1819  0.1946  0.8564
 2368TIP3    H228596   2.423   2.532   4.941 -0.7312 -1.0873 -1.9190
 2369TIP3   OH228597   6.437   1.013   2.975 -0.7631  0.5370 -0.0637
 2369TIP3    H128598   6.347   1.034   2.999 -1.3729 -0.3675 -1.4626
 2369TIP3    H228599   6.433   0.921   2.948  1.1012 -0.3213  2.3908
 2370TIP3   OH228600   6.382   4.733  11.586 -0.0523  0.6974  0.5154
 2370TIP3    H128601   6.308   4.741  11.527 -0.0569  0.6873  0.5195
 2370TIP3    H228602   6.443   4.801  11.558  1.7061 -1.8039 -2.0357
 2371TIP3   OH228603   6.739   3.575   1.326 -0.2348  0.6528 -0.5626
 2371TIP3    H128604   6.754   3.589   1.232  0.9785  2.3286 -0.1410
 2371TIP3    H228605   6.823   3.543   1.359 -0.1165  1.7731  0.2646
 2372TIP3   OH228606   6.406   2.473  13.008 -0.1727  0.4829  0.3807
 2372TIP3    H128607   6.471   2.405  13.026 -0.0111  0.9432  1.5685
 2372TIP3    H228608   6.408   2.482  12.912 -0.2148 -1.1872  0.1967
 2373TIP3   OH228609   0.161   2.408  13.934  0.5577 -0.2246 -0.3534
 2373TIP3    H128610   0.196   2.497  13.937  0.5905 -0.1743 -1.7379
 2373TIP3    H228611   0.108   2.406  13.854 -0.7558 -0.9780  0.5087
 2374TIP3   OH228612   4.136   4.328   3.498  0.6725  0.5276  0.2202
 2374TIP3    H128613   4.106   4.405   3.450 -0.1742  1.1856  1.7670
 2374TIP3    H228614   4.226   4.350   3.523  1.8284 -0.6092 -2.6475
 2375TIP3   OH228615   1.679   1.580   1.813  0.3761 -0.0293 -0.1884
 2375TIP3    H128616   1.739   1.638   1.766  2.3326 -1.9091 -0.0854
 2375TIP3    H228617   1.623   1.542   1.745  0.0269  0.8816 -0.4160
 2376TIP3   OH228618   5.712   3.923   5.346 -0.3150  0.3346 -0.6330
 2376TIP3    H128619   5.665   4.003   5.370 -2.6098 -1.1377 -0.0067
 2376TIP3    H228620   5.796   3.930   5.391 -0.3663  2.5030 -0.8061
 2377TIP3   OH228621   0.709   3.445  13.532  0.3257  0.6519  0.6580
 2377TIP3    H128622   0.785   3.501  13.519  0.4966  0.9800  2.8152
 2377TIP3    H228623   0.732   3.362  13.491  1.2014  1.2643 -0.0878
 2378TIP3   OH228624   0.747   3.942   4.693 -0.6775 -0.1129 -0.8799
 2378TIP3    H128625   0.742   4.038   4.695 -0.9116 -0.1254 -0.8370
 2378TIP3    H228626   0.697   3.917   4.615  1.3211 -0.0826 -2.1873
 2379TIP3   OH228627   0.678   0.392   0.756  0.0959 -0.1927 -0.6342
 2379TIP3    H128628   0.586   0.420   0.756 -0.0149 -0.4713 -2.5793
 2379TIP3    H228629   0.717   0.440   0.684  1.5244  0.0368  0.2916
 2380TIP3   OH228630   1.820   1.983   4.039  0.0584 -0.7362 -0.4134
 2380TIP3    H128631   1.801   1.894   4.071  0.6460 -0.7567 -0.1181
 2380TIP3    H228632   1.831   2.035   4.119  2.4787 -0.9895 -0.5571
 2381TIP3   OH228633   5.315   0.300  15.822 -0.3672 -0.1786 -0.1052
 2381TIP3    H128634   5.373   0.257  15.759 -1.0309 -2.3814  0.7521
 2381TIP3    H228635   5.227   0.277  15.791 -0.7803  1.7870 -0.4577
 2382TIP3   OH228636   5.476   5.121  15.297 -0.2066 -0.3536  0.1780
 2382TIP3    H128637   5.477   5.207  15.254  1.4195 -0.5663 -0.2477
 2382TIP3    H228638   5.551   5.123  15.356 -0.5936 -1.2110  0.7064
 2383TIP3   OH228639   6.539   5.946   5.498 -0.8177  0.0203 -0.1882
 2383TIP3    H128640   6.513   5.868   5.547  0.5632  0.3222  1.0700
 2383TIP3    H228641   6.626   5.925   5.463 -0.5221  0.9041 -0.0147
 2384TIP3   OH228642   2.620   6.334   4.550  0.2085 -0.0298 -0.4613
 2384TIP3    H128643   2.644   6.266   4.487  1.3777  1.0712 -1.2208
 2384TIP3    H228644   2.668   6.310   4.630  1.4200  0.4283 -1.0296
 2385TIP3   OH228645   1.311   3.552   3.674 -0.5354  0.6983 -0.9239
 2385TIP3    H128646   1.397   3.535   3.712 -1.3072  1.2933  1.1979
 2385TIP3    H228647   1.272   3.617   3.733 -2.7157 -0.0959 -1.4397
 2386TIP3   OH228648   2.225   1.037   2.127 -0.1817 -0.2583  0.5449
 2386TIP3    H128649   2.240   1.132   2.130  0.1673 -0.2953  0.0327
 2386TIP3    H228650   2.296   1.000   2.179  0.3788 -0.3149 -0.2659
 2387TIP3   OH228651   2.253   0.376  12.633 -0.1741  0.1536 -0.2407
 2387TIP3    H128652   2.271   0.465  12.603 -0.0780  0.0148 -0.6048
 2387TIP3    H228653   2.339   0.333  12.631 -0.2285  0.0392 -0.1099
 2388TIP3   OH228654   0.492   5.648   5.747 -0.2661 -0.1707  0.2105
 2388TIP3    H128655   0.484   5.602   5.830 -0.1663 -0.3583  0.1148
 2388TIP3    H228656   0.466   5.738   5.767  3.3843  0.7006  1.2917
 2389TIP3   OH228657   3.745   0.484   3.285  0.8123  0.2102  0.2720
 2389TIP3    H128658   3.833   0.502   3.251  1.0316  0.9616  1.1758
 2389TIP3    H228659   3.690   0.475   3.208  2.1118 -2.6133 -0.3761
 2390TIP3   OH228660   3.390   0.796   1.503 -0.1501 -0.1175 -0.2974
 2390TIP3    H128661   3.391   0.700   1.494  0.9139 -0.0054 -1.4941
 2390TIP3    H228662   3.301   0.816   1.533 -0.2227 -1.5239  0.4759
 2391TIP3   OH228663   0.642   5.299  10.390 -0.0548 -0.2432  0.2378
 2391TIP3    H128664   0.622   5.265  10.478  0.6821 -0.1541  0.4510
 2391TIP3    H228665   0.737   5.313  10.392 -0.1832  0.6674 -0.2601
 2392TIP3   OH228666   3.829   1.372   5.246  0.9339  0.2642  0.4770
 2392TIP3    H128667   3.807   1.281   5.226  0.6968  0.3563  0.3174
 2392TIP3    H228668   3.859   1.409   5.163 -1.0061  0.9275  0.0451
 2393TIP3   OH228669   1.707   5.778   2.294 -0.6642 -0.5835 -0.1848
 2393TIP3    H128670   1.667   5.746   2.212 -0.3775 -1.3068 -0.0468
 2393TIP3    H228671   1.784   5.723   2.306 -0.2707  0.0389  0.1699
 2394TIP3   OH228672   0.994   0.867  16.687  0.4767  0.1719 -0.3712
 2394TIP3    H128673   1.081   0.893  16.718  1.1931 -3.5355  1.0139
 2394TIP3    H228674   0.942   0.856  16.766 -0.3959 -0.5238 -1.0274
 2395TIP3   OH228675   4.397   0.921  13.959 -0.5081  0.0342  0.5826
 2395TIP3    H128676   4.398   0.858  14.031 -2.0939  0.4576  1.0083
 2395TIP3    H228677   4.426   0.871  13.883 -2.3816 -1.4352  0.7799
 2396TIP3   OH228678   6.007   4.098  15.791 -0.2176 -0.8113  0.1298
 2396TIP3    H128679   6.013   4.175  15.847 -0.6517 -0.8247  0.1932
 2396TIP3    H228680   6.093   4.093  15.748  0.4354 -1.3438  1.4829
 2397TIP3   OH228681   4.650   3.754   3.931 -0.4947  0.1699  0.1822
 2397TIP3    H128682   4.654   3.846   3.905 -0.2373  0.8145  2.3667
 2397TIP3    H228683   4.563   3.725   3.905 -0.2262  0.7272 -1.4127
 2398TIP3   OH228684   5.118   5.292   5.015 -0.8413 -0.4546  0.4979
 2398TIP3    H128685   5.099   5.236   4.939 -1.1037 -0.7625  0.7911
 2398TIP3    H228686   5.088   5.379   4.988 -1.1967 -0.6204  0.3511
 2399TIP3   OH228687   2.376   1.284  12.602 -0.0640 -0.9407  0.2789
 2399TIP3    H128688   2.284   1.261  12.597 -0.2055 -1.0020  2.6311
 2399TIP3    H228689   2.378   1.371  12.643  0.8171  0.3362 -2.3007
 2400TIP3   OH228690   0.609   3.177  14.192  0.2321 -0.1756 -0.4523
 2400TIP3    H128691   0.702   3.164  14.211  0.4520 -0.0756 -1.4275
 2400TIP3    H228692   0.566   3.173  14.277  1.1357 -0.2096  0.0052
 2401TIP3   OH228693   2.754   2.895  13.862  0.3569  0.0875  0.2877
 2401TIP3    H128694   2.810   2.949  13.918  1.5116 -1.0596  0.2568
 2401TIP3    H228695   2.811   2.823  13.833 -0.5466  0.0752 -1.4732
 2402TIP3   OH228696   4.845   0.266  17.167 -0.5728  0.1178  0.0515
 2402TIP3    H128697   4.896   0.217  17.231 -0.6216  0.2293  0.1757
 2402TIP3    H228698   4.906   0.284  17.096 -0.1680  1.1418  0.6566
 2403TIP3   OH228699   1.508   2.964  12.169  0.1456  0.0877  0.5704
 2403TIP3    H128700   1.553   2.925  12.094  1.0744  0.2625  1.0333
 2403TIP3    H228701   1.493   2.891  12.229 -1.2439 -0.1853 -0.0923
 2404TIP3   OH228702   3.389   6.052  16.806  0.0684  0.9822  0.2864
 2404TIP3    H128703   3.391   5.991  16.880 -0.6511  1.1495  0.4398
 2404TIP3    H228704   3.482   6.066  16.786  0.2296 -0.8780 -0.3531
 2405TIP3   OH228705   2.799   5.583   2.583 -0.2820  0.4508 -0.0612
 2405TIP3    H128706   2.882   5.615   2.618 -0.3895  0.7431 -0.0664
 2405TIP3    H228707   2.815   5.571   2.489 -0.2057  0.3795 -0.0380
 2406TIP3   OH228708   0.183   5.153   1.629  0.6524 -0.2809  0.3557
 2406TIP3    H128709   0.198   5.247   1.619 -0.1719 -0.1710  0.1481
 2406TIP3    H228710   0.208   5.134   1.720 -1.4291  0.5753  1.1249
 2407TIP3   OH228711   0.869   1.122  11.544 -0.2613 -0.4452 -0.1760
 2407TIP3    H128712   0.952   1.154  11.508  1.2071 -2.0673  1.6523
 2407TIP3    H228713   0.812   1.199  11.544  1.3888  0.8070 -1.0380
 2408TIP3   OH228714   4.862   5.857   5.763  0.0439 -0.0996  0.0190
 2408TIP3    H128715   4.907   5.941   5.771  1.8528 -0.8265 -1.9825
 2408TIP3    H228716   4.790   5.874   5.703 -0.9121  0.4921  1.3028
 2409TIP3   OH228717   1.145   4.637  13.239  0.2801  0.1909 -0.4167
 2409TIP3    H128718   1.141   4.708  13.174 -0.9490  0.6079  0.1015
 2409TIP3    H228719   1.100   4.672  13.315  0.7919 -0.6945  0.2954
 2410TIP3   OH228720   5.446   2.731   3.309 -0.5218  0.1047  0.2384
 2410TIP3    H128721   5.473   2.821   3.326 -0.6481  0.2338 -0.2341
 2410TIP3    H228722   5.474   2.682   3.386  0.9343  0.2598 -0.1894
 2411TIP3   OH228723   1.721   1.903  12.303  0.3665  0.0905 -0.1722
 2411TIP3    H128724   1.710   1.998  12.311 -0.8729  0.2031 -2.8287
 2411TIP3    H228725   1.814   1.888  12.323  0.2951  1.7071  1.4508
 2412TIP3   OH228726   0.663   2.561   6.327  0.5159  0.2871  0.0502
 2412TIP3    H128727   0.587   2.594   6.374  0.2365 -0.3605  0.0518
 2412TIP3    H228728   0.717   2.519   6.394  0.1556 -0.5657 -0.1934
 2413TIP3   OH228729   0.060   3.286  15.073 -0.7508  0.1360  0.5994
 2413TIP3    H128730  -0.011   3.245  15.122 -2.3599  0.6559 -1.2167
 2413TIP3    H228731   0.018   3.356  15.023  1.1599  0.9309  0.0310
 2414TIP3   OH228732   0.432   5.480  10.332 -0.1462  0.0428  0.0011
 2414TIP3    H128733   0.525   5.461  10.344  0.2904  1.4451 -1.0546
 2414TIP3    H228734   0.387   5.405  10.372  1.4237 -0.6195  0.5695
 2415TIP3   OH228735   5.226   2.950   0.032 -0.0158 -0.5946  0.1806
 2415TIP3    H128736   5.216   3.005   0.110 -0.1051 -0.4667  0.0786
 2415TIP3    H228737   5.137   2.941  -0.002  0.3510  1.7225 -1.5549
 2416TIP3   OH228738   6.602   6.161   3.305 -0.6629 -0.0238 -0.4105
 2416TIP3    H128739   6.519   6.172   3.258 -2.1383 -0.3309  2.0607
 2416TIP3    H228740   6.628   6.071   3.287 -3.0798 -1.3221  2.1824
 2417TIP3   OH228741   3.231   4.175  15.362 -0.2668 -0.4987  0.1097
 2417TIP3    H128742   3.214   4.141  15.274  0.8265  1.1353 -0.7648
 2417TIP3    H228743   3.302   4.238  15.350 -0.2095 -0.1362  2.1529
 2418TIP3   OH228744   1.190   2.685  14.299  0.6219 -0.4711  0.0658
 2418TIP3    H128745   1.126   2.705  14.231  1.2516  0.8045 -0.1614
 2418TIP3    H228746   1.248   2.621  14.259  1.8629  1.3608 -1.1254
 2419TIP3   OH228747   3.085   6.467   5.594 -0.4360  0.1553 -1.0383
 2419TIP3    H128748   3.104   6.540   5.652  3.6437 -0.3543 -1.6354
 2419TIP3    H228749   3.033   6.407   5.647 -1.8248  2.3632  0.1663
 2420TIP3   OH228750   3.808   0.343  14.929 -0.4813 -0.0636 -0.5829
 2420TIP3    H128751   3.745   0.317  14.997 -0.2742  1.1999  0.1120
 2420TIP3    H228752   3.794   0.280  14.858 -1.1504 -1.0124  0.3657
 2421TIP3   OH228753   6.386   1.258   5.658 -0.0825 -0.2172  0.4956
 2421TIP3    H128754   6.442   1.282   5.585 -1.4016 -0.1430 -0.5115
 2421TIP3    H228755   6.397   1.330   5.721  1.2375 -0.4022  0.4877
 2422TIP3   OH228756   0.603   1.455   2.917  0.0623  0.6952  0.3450
 2422TIP3    H128757   0.642   1.542   2.917 -0.9392  1.1643 -0.9902
 2422TIP3    H228758   0.541   1.456   2.990 -1.0413  1.6154 -0.5964
 2423TIP3   OH228759   5.689   0.896  12.168  0.2599 -0.4083 -0.3214
 2423TIP3    H128760   5.721   0.842  12.240  1.8611 -1.2153 -1.6191
 2423TIP3    H228761   5.611   0.851  12.137 -0.3779 -0.1144  0.8263
 2424TIP3   OH228762   5.942   3.793   6.654  0.2741  0.4563 -0.1282
 2424TIP3    H128763   5.919   3.734   6.726 -1.1395 -0.6505 -1.4567
 2424TIP3    H228764   5.867   3.853   6.647  1.2143  1.7216  0.4974
 2425TIP3   OH228765   2.678   5.287  13.806  0.2147  0.1960 -0.1140
 2425TIP3    H128766   2.751   5.226  13.813  0.2457  0.2261 -0.1786
 2425TIP3    H228767   2.608   5.247  13.857  0.1344 -0.0433 -0.4127
 2426TIP3   OH228768   5.707   4.114   1.197  0.3935  0.0307 -0.1215
 2426TIP3    H128769   5.720   4.195   1.247 -1.3339 -0.1804  0.7288
 2426TIP3    H228770   5.727   4.044   1.260  2.7857 -0.2225 -1.1237
 2427TIP3   OH228771   6.129   3.712  13.341  0.3604  0.1919  0.3834
 2427TIP3    H128772   6.093   3.790  13.299 -0.5435 -0.6683 -0.4661
 2427TIP3    H228773   6.082   3.639  13.301  1.0929 -0.7877  1.2709
 2428TIP3   OH228774   6.139   1.617   2.935  0.2599 -0.3639 -0.2202
 2428TIP3    H128775   6.125   1.522   2.937  3.3182 -0.9322 -2.1437
 2428TIP3    H228776   6.107   1.644   2.849  0.9879  0.0383 -0.3727
 2429TIP3   OH228777   1.141   0.392  16.017 -0.4901  0.2454 -0.1968
 2429TIP3    H128778   1.053   0.392  16.055 -0.6124  0.3520 -0.4788
 2429TIP3    H228779   1.198   0.417  16.090 -0.8446  1.5624 -0.3485
 2430TIP3   OH228780   4.885   1.717   3.351 -0.5849  0.0672  0.0063
 2430TIP3    H128781   4.980   1.708   3.361 -0.5787 -1.7238 -1.4807
 2430TIP3    H228782   4.875   1.795   3.296  0.0696 -0.4167 -0.8029
 2431TIP3   OH228783   4.853   4.860   4.617 -0.1652 -0.1680 -0.1192
 2431TIP3    H128784   4.786   4.802   4.582 -0.1337  0.6381 -1.5467
 2431TIP3    H228785   4.815   4.894   4.699 -1.5008  0.2557 -0.8974
 2432TIP3   OH228786   0.152   3.239  13.199  0.0282 -0.1925  0.3710
 2432TIP3    H128787   0.174   3.253  13.291  0.8619  3.0219 -0.2527
 2432TIP3    H228788   0.089   3.308  13.179 -0.4269 -1.1029 -1.3676
 2433TIP3   OH228789   0.177   1.703  11.968  0.2487 -0.6271 -0.4958
 2433TIP3    H128790   0.233   1.743  11.902 -0.4652  0.9993 -0.1352
 2433TIP3    H228791   0.135   1.777  12.013 -2.2015 -1.7886 -0.7734
 2434TIP3   OH228792   1.376   2.889  14.158 -0.0833  0.2900  0.8820
 2434TIP3    H128793   1.341   2.975  14.135  3.8249  1.4939 -1.0404
 2434TIP3    H228794   1.349   2.832  14.085 -0.5898  0.4445  0.9447
 2435TIP3   OH228795   1.948   0.643   5.437  0.0452  0.1781 -0.1957
 2435TIP3    H128796   2.021   0.705   5.440  1.9194 -2.0530  2.9008
 2435TIP3    H228797   1.870   0.697   5.451  1.6288  1.8710  2.4109
 2436TIP3   OH228798   3.537   5.525  16.537  0.8606 -0.0196 -0.0334
 2436TIP3    H128799   3.632   5.517  16.549  0.5188 -3.0006  0.9024
 2436TIP3    H228800   3.501   5.441  16.563 -2.0754  0.9957 -0.5289
 2437TIP3   OH228801   3.927   0.908  14.744 -0.2335  0.4851 -0.6159
 2437TIP3    H128802   3.974   0.826  14.756 -1.1909 -0.2016 -1.3910
 2437TIP3    H228803   3.937   0.955  14.827  0.0339 -0.5706 -0.0462
 2438TIP3   OH228804   2.275   2.287  17.033 -0.1659 -0.0574  0.6847
 2438TIP3    H128805   2.225   2.285  16.951 -0.5147 -0.3995  0.9009
 2438TIP3    H228806   2.350   2.343  17.014  0.1514 -0.7432 -0.0955
 2439TIP3   OH228807   0.933   0.656  15.609 -0.1195 -0.2425 -0.2632
 2439TIP3    H128808   0.899   0.677  15.522  2.3862  0.5274 -1.0855
 2439TIP3    H228809   0.992   0.728  15.630  0.3094 -1.0844  1.5262
 2440TIP3   OH228810   6.349   1.991   4.959 -0.0467  0.3376 -0.5732
 2440TIP3    H128811   6.333   1.902   4.927  1.6852 -0.0188 -0.4618
 2440TIP3    H228812   6.359   1.981   5.054  0.2812  0.6389 -0.5761
 2441TIP3   OH228813   4.755   0.967   3.055  0.9104  0.4369 -0.4153
 2441TIP3    H128814   4.744   1.012   2.971 -1.7707 -0.1496 -0.4189
 2441TIP3    H228815   4.717   1.027   3.119  2.5476  0.6859  0.3241
 2442TIP3   OH228816   2.253   0.556   4.683 -0.3805  0.1682 -0.2071
 2442TIP3    H128817   2.227   0.580   4.594 -0.1540  0.8891 -0.0827
 2442TIP3    H228818   2.349   0.565   4.683 -0.4491  0.9700  0.3382
 2443TIP3   OH228819   4.334   4.474  12.398 -0.3587  0.0666  0.0423
 2443TIP3    H128820   4.296   4.557  12.427 -0.4920  0.2845 -0.7380
 2443TIP3    H228821   4.428   4.493  12.390 -0.6168  0.6621 -1.8504
 2444TIP3   OH228822   3.015   3.376  15.522  0.1644  0.2044 -0.0644
 2444TIP3    H128823   3.016   3.413  15.434 -0.6903  0.5813  0.0781
 2444TIP3    H228824   3.049   3.445  15.578  1.2239 -0.2294 -0.1677
 2445TIP3   OH228825   2.810   1.091   0.718 -0.0489  0.3288 -0.0967
 2445TIP3    H128826   2.753   1.079   0.641  1.1267 -1.9852 -0.6492
 2445TIP3    H228827   2.892   1.123   0.682  0.2052  0.1197  0.2959
 2446TIP3   OH228828   5.373   6.604   2.775  0.1719 -0.1600  0.2336
 2446TIP3    H128829   5.293   6.556   2.754  0.6468 -1.6564  1.7074
 2446TIP3    H228830   5.364   6.688   2.729 -2.1079 -0.4082  0.1670
 2447TIP3   OH228831   6.164   0.229  16.564  0.5902 -0.0563  0.4112
 2447TIP3    H128832   6.076   0.245  16.530  0.0327  0.7197  2.1575
 2447TIP3    H228833   6.223   0.251  16.491 -0.6431 -0.3034 -0.6671
 2448TIP3   OH228834   3.132   2.228  16.122  0.4023  0.1132  0.2237
 2448TIP3    H128835   3.133   2.155  16.184 -2.3143  1.4760  1.9899
 2448TIP3    H228836   3.190   2.293  16.161  0.2895  0.1707  0.2949
 2449TIP3   OH228837   2.935   6.557   4.319 -0.4162 -0.6431  0.5240
 2449TIP3    H128838   3.028   6.557   4.341 -0.0990 -3.9989 -0.5571
 2449TIP3    H228839   2.927   6.619   4.246  0.8478  0.0654  0.9787
 2450TIP3   OH228840   3.678   2.663  16.530 -0.0011  0.2723  0.1865
 2450TIP3    H128841   3.772   2.682  16.519  0.4282 -0.9010  1.6584
 2450TIP3    H228842   3.636   2.749  16.529  1.3486  0.9910  1.6818
 2451TIP3   OH228843   1.915   3.006  12.031 -0.3329  0.2325  0.4115
 2451TIP3    H128844   1.862   3.063  12.086 -0.0831  0.0861  0.8011
 2451TIP3    H228845   1.996   3.055  12.016 -0.4419  0.3165  0.0875
 2452TIP3   OH228846   2.778   1.649   2.770  0.1214  0.1272 -0.1920
 2452TIP3    H128847   2.808   1.588   2.837  0.5580  0.2658 -0.2571
 2452TIP3    H228848   2.773   1.597   2.690 -2.5898 -0.5970  0.3906
 2453TIP3   OH228849   3.296   5.936   2.785 -0.7292 -0.5964  0.4781
 2453TIP3    H128850   3.237   5.965   2.854 -0.6510  0.9185 -0.0796
 2453TIP3    H228851   3.347   6.013   2.762  0.0244 -1.3614 -0.4901
 2454TIP3   OH228852   4.993   6.434   5.743  0.3613  0.1859  0.7455
 2454TIP3    H128853   5.069   6.383   5.715  0.5188  0.8856 -0.1257
 2454TIP3    H228854   5.029   6.519   5.768 -0.2466  0.8888 -0.6991
 2455TIP3   OH228855   4.486   3.210  12.459  0.0584  0.1459  0.9035
 2455TIP3    H128856   4.513   3.196  12.550  2.5347 -0.2305  0.1420
 2455TIP3    H228857   4.568   3.212  12.410 -1.1126  2.4118 -1.0556
 2456TIP3   OH228858   0.988   1.446  13.179  0.4517 -0.0969 -0.0180
 2456TIP3    H128859   0.971   1.487  13.264  1.3204 -1.1635  0.6855
 2456TIP3    H228860   0.955   1.509  13.115  0.0433  0.8451  1.0981
 2457TIP3   OH228861   5.716   5.591  12.268 -0.5439 -0.2641 -0.9468
 2457TIP3    H128862   5.655   5.642  12.321 -1.3815 -0.1152 -2.0561
 2457TIP3    H228863   5.754   5.653  12.207  1.8306 -0.0415  0.6556
 2458TIP3   OH228864   5.640   2.256   0.735 -0.3430  1.0771 -0.1338
 2458TIP3    H128865   5.545   2.255   0.722 -0.4165  1.3426  0.3402
 2458TIP3    H228866   5.675   2.297   0.656 -0.6674  1.4480 -0.0858
 2459TIP3   OH228867   3.831   1.293  14.581  0.5377  0.2061  0.3889
 2459TIP3    H128868   3.883   1.225  14.538 -0.1155  0.6086 -1.0529
 2459TIP3    H228869   3.834   1.270  14.674  2.0564 -0.6096  0.1540
 2460TIP3   OH228870   5.656   5.046  11.917  0.0363  0.1330 -0.0446
 2460TIP3    H128871   5.750   5.047  11.932 -0.0032 -1.4846  0.3299
 2460TIP3    H228872   5.623   4.972  11.968 -1.2277 -0.2629 -1.3753
 2461TIP3   OH228873   4.999   5.119  16.687 -0.1316  0.0032  0.6089
 2461TIP3    H128874   5.032   5.029  16.696 -2.0115 -0.6383  1.3801
 2461TIP3    H228875   5.051   5.157  16.616  1.5127 -1.3013  1.0876
 2462TIP3   OH228876   3.713   1.631   1.475  0.2126  0.3662  0.4791
 2462TIP3    H128877   3.622   1.641   1.446  0.0746 -1.1780  0.3157
 2462TIP3    H228878   3.742   1.550   1.434  1.2427  0.1538  1.5917
 2463TIP3   OH228879   4.233   4.022   0.113  0.1411 -0.1625  0.1812
 2463TIP3    H128880   4.158   4.075   0.140  0.5399  0.3892  0.2220
 2463TIP3    H228881   4.289   4.019   0.190  0.2821 -0.3597  0.0718
 2464TIP3   OH228882   2.923   4.091   0.773  0.1640  0.5299  0.7658
 2464TIP3    H128883   2.885   4.179   0.777 -0.8447  0.1748 -0.7954
 2464TIP3    H228884   3.013   4.103   0.804 -0.1045  2.0264  1.0005
 2465TIP3   OH228885   5.578   6.340   2.079  0.1495 -0.1715  0.0756
 2465TIP3    H128886   5.661   6.356   2.123  0.4507 -1.3045 -0.0688
 2465TIP3    H228887   5.515   6.395   2.126  1.3857  2.5017 -1.3108
 2466TIP3   OH228888   1.774   0.925   5.799 -0.0958 -0.2205  0.0799
 2466TIP3    H128889   1.690   0.911   5.755 -0.6443  2.8346  0.0589
 2466TIP3    H228890   1.752   0.927   5.892 -0.2170  1.3934  0.0353
 2467TIP3   OH228891   4.904   3.069  10.733  0.1489  0.1952 -0.7746
 2467TIP3    H128892   4.916   2.981  10.697 -0.0918 -0.9923  1.8589
 2467TIP3    H228893   4.975   3.120  10.696  0.8961 -1.3889 -1.5948
 2468TIP3   OH228894   1.442   1.007  14.115 -0.3782 -0.1582 -0.1947
 2468TIP3    H128895   1.537   1.017  14.110 -0.1996 -1.6426  0.1274
 2468TIP3    H228896   1.416   0.985  14.026 -0.4177  0.2019 -0.2735
 2469TIP3   OH228897   2.450   4.670   1.886  0.1110  0.3934  0.5027
 2469TIP3    H128898   2.531   4.619   1.875 -1.6832 -2.0682 -2.0071
 2469TIP3    H228899   2.450   4.731   1.812  0.6152  1.8056  1.6407
 2470TIP3   OH228900   3.568   0.272  16.163  0.5753 -0.4085  0.2671
 2470TIP3    H128901   3.625   0.289  16.088 -0.5068 -0.6272 -0.6127
 2470TIP3    H228902   3.489   0.234  16.125  0.3191 -1.2424  1.5921
 2471TIP3   OH228903   5.357   6.319   5.346  0.1096  0.0050  1.2628
 2471TIP3    H128904   5.389   6.259   5.413  1.1897  0.5757  1.2765
 2471TIP3    H228905   5.427   6.384   5.337 -0.8736  1.0334  0.9730
 2472TIP3   OH228906   0.492   6.364  16.741  0.0166  0.4488 -0.0490
 2472TIP3    H128907   0.422   6.413  16.785  0.1832  0.5036  0.1540
 2472TIP3    H228908   0.567   6.372  16.799  0.2072  0.4346 -0.2939
 2473TIP3   OH228909   6.187   4.503   3.822 -0.8959  0.0425 -0.5166
 2473TIP3    H128910   6.163   4.478   3.733  2.0219  0.2672 -1.3875
 2473TIP3    H228911   6.205   4.421   3.866  1.8614  0.1433 -1.3900
 2474TIP3   OH228912   6.595   1.616   6.023  0.6492  0.0607 -0.6457
 2474TIP3    H128913   6.644   1.560   6.084 -1.4737 -1.4783 -0.2778
 2474TIP3    H228914   6.615   1.705   6.051  0.2682 -0.6112  1.9330
 2475TIP3   OH228915   3.938   0.602  16.195 -0.3331  0.0209  0.0403
 2475TIP3    H128916   3.868   0.630  16.255  0.9556  0.7193  1.2383
 2475TIP3    H228917   3.916   0.512  16.173 -0.8086 -0.2625  1.5991
 2476TIP3   OH228918   0.674   4.414   0.933 -0.1327 -0.0591  0.3434
 2476TIP3    H128919   0.719   4.465   1.000  1.0950  0.5167 -0.8775
 2476TIP3    H228920   0.635   4.480   0.875  0.6543 -0.4879 -0.7068
 2477TIP3   OH228921   1.908   6.348  15.783  0.0073 -0.2335  0.1738
 2477TIP3    H128922   1.945   6.431  15.815 -2.4480  1.3705 -0.9420
 2477TIP3    H228923   1.984   6.291  15.771  1.7771  1.8840  0.9187
 2478TIP3   OH228924   3.508   5.484   4.493 -0.1211 -0.4453 -0.0435
 2478TIP3    H128925   3.446   5.541   4.447 -0.3595 -1.2213 -0.6927
 2478TIP3    H228926   3.559   5.444   4.424  0.4321 -0.5824  0.4436
 2479TIP3   OH228927   5.319   5.695  16.163  0.1096  0.1105 -0.2323
 2479TIP3    H128928   5.343   5.751  16.237  0.2443  1.1236 -1.0238
 2479TIP3    H228929   5.375   5.618  16.173  0.5139  0.4784  0.4248
 2480TIP3   OH228930   3.538   0.726  12.653  0.2141 -0.1816 -0.2189
 2480TIP3    H128931   3.520   0.818  12.671  0.4209  0.0879 -1.3321
 2480TIP3    H228932   3.629   0.725  12.622  0.6389 -0.9281  1.0052
 2481TIP3   OH228933   5.817   3.159  16.252  0.6513 -0.1535 -0.3863
 2481TIP3    H128934   5.876   3.135  16.323 -1.4617  0.6631  1.6984
 2481TIP3    H228935   5.790   3.076  16.213 -0.2313 -0.7451  1.4757
 2482TIP3   OH228936   5.658   4.797   1.063 -0.0814 -0.2749  0.2234
 2482TIP3    H128937   5.620   4.717   1.099 -0.5737 -1.3245 -2.5233
 2482TIP3    H228938   5.749   4.774   1.046 -0.0387 -0.0163  0.1081
 2483TIP3   OH228939   5.570   0.111   1.756 -0.3245 -0.1632 -0.8564
 2483TIP3    H128940   5.541   0.083   1.843 -0.4894  2.6223  0.0666
 2483TIP3    H228941   5.650   0.061   1.739  0.5699  0.3414  1.6228
 2484TIP3   OH228942   2.438   3.857   3.840 -0.4000 -0.1889  0.0336
 2484TIP3    H128943   2.440   3.769   3.877 -0.6667 -0.5462 -0.7957
 2484TIP3    H228944   2.408   3.913   3.912  0.5236 -0.6586  0.7919
 2485TIP3   OH228945   2.828   0.771  10.446  0.9154 -0.0117  0.3579
 2485TIP3    H128946   2.787   0.685  10.455  1.3623 -0.3878 -1.0701
 2485TIP3    H228947   2.892   0.774  10.518  0.5555 -0.6678  0.7140
 2486TIP3   OH228948   0.123   1.534  13.649 -0.4023  0.0018  0.0107
 2486TIP3    H128949   0.057   1.524  13.717  0.0379  0.5255  0.5180
 2486TIP3    H228950   0.205   1.507  13.691 -0.1846  0.0146 -0.4055
 2487TIP3   OH228951   4.194   3.704   4.760 -0.0663  0.2570 -0.0455
 2487TIP3    H128952   4.222   3.624   4.716 -0.4402 -0.3267  0.7624
 2487TIP3    H228953   4.125   3.676   4.820  0.4555  1.0182  0.9439
 2488TIP3   OH228954   0.515   2.706   1.636 -0.3876 -0.3795 -0.1454
 2488TIP3    H128955   0.605   2.685   1.610  0.7885  2.2822  1.4986
 2488TIP3    H228956   0.524   2.783   1.692 -3.4814 -1.4303  1.9691
 2489TIP3   OH228957   6.532   4.503  12.060 -0.3027  0.1266 -0.2354
 2489TIP3    H128958   6.619   4.538  12.040 -0.6427 -0.2041 -2.4959
 2489TIP3    H228959   6.482   4.516  11.979 -2.1036 -0.4588  0.7505
 2490TIP3   OH228960   2.097   6.789   0.463  0.7603  0.2409 -0.0950
 2490TIP3    H128961   2.121   6.880   0.482  1.4170 -0.1252  0.8614
 2490TIP3    H228962   2.080   6.789   0.369  1.8688  1.1243 -0.3198
 2491TIP3   OH228963   5.970   0.276  13.587 -0.2916 -0.2997  0.2561
 2491TIP3    H128964   6.053   0.285  13.540  0.4288  2.0132  1.8672
 2491TIP3    H228965   5.965   0.183  13.609  1.9634 -0.4526  0.2707
 2492TIP3   OH228966   2.865   0.771  11.936 -0.4259 -0.1839  0.3585
 2492TIP3    H128967   2.866   0.832  11.862 -1.2077 -0.5767  0.0137
 2492TIP3    H228968   2.926   0.702  11.911  0.2777  0.3243  0.6446
 2493TIP3   OH228969   6.036   4.387  12.073 -0.4063  0.2197  0.1325
 2493TIP3    H128970   5.986   4.402  12.153 -0.0394 -0.6739  0.5265
 2493TIP3    H228971   6.053   4.293  12.072 -0.0394  0.2941 -0.7735
 2494TIP3   OH228972   3.776   3.455   5.075 -0.4758 -0.5686 -0.1210
 2494TIP3    H128973   3.844   3.497   5.128 -1.6015  0.3516  0.6159
 2494TIP3    H228974   3.730   3.528   5.033 -0.9066 -1.1944 -0.7411
 2495TIP3   OH228975   5.867   1.166   2.797 -0.2536  0.0998 -0.3491
 2495TIP3    H128976   5.815   1.149   2.875  0.5026 -1.6971 -0.2125
 2495TIP3    H228977   5.847   1.257   2.774 -0.0910  0.8045  2.2056
 2496TIP3   OH228978   5.690   0.205  17.032 -0.0771  0.5695  0.0138
 2496TIP3    H128979   5.623   0.150  17.073  0.8981 -1.3847 -0.9141
 2496TIP3    H228980   5.655   0.226  16.945 -0.2967  1.1191  0.2344
 2497TIP3   OH228981   4.484   4.260   0.318 -0.2317 -0.1275 -0.7240
 2497TIP3    H128982   4.408   4.291   0.268 -0.8577 -1.5442 -0.6825
 2497TIP3    H228983   4.472   4.298   0.405 -1.9761 -1.9295 -0.1345
 2498TIP3   OH228984   1.390   0.564   2.112  0.2473 -0.1742  0.3733
 2498TIP3    H128985   1.428   0.493   2.062  0.9776 -0.0773  0.7887
 2498TIP3    H228986   1.351   0.622   2.046  0.9442 -0.2006 -0.0608
 2499TIP3   OH228987   0.526   5.515   0.425  0.4600  0.0607  0.3312
 2499TIP3    H128988   0.436   5.544   0.435  0.1301 -0.4812 -0.9702
 2499TIP3    H228989   0.578   5.581   0.471 -0.3808  1.9356 -1.3422
 2500TIP3   OH228990   0.582   2.044   4.846  0.1213  0.1241  0.6073
 2500TIP3    H128991   0.504   2.082   4.886 -0.8438 -0.8329 -0.3397
 2500TIP3    H228992   0.582   2.076   4.756 -0.7636 -2.1434 -0.2361
 2501TIP3   OH228993   1.413   1.261   0.763 -0.0702 -0.0834 -0.0697
 2501TIP3    H128994   1.445   1.182   0.720 -2.2728 -0.2252 -1.5091
 2501TIP3    H228995   1.322   1.241   0.787 -0.4624  1.7744  0.1169
 2502TIP3   OH228996   2.750   4.852  15.107 -0.2503 -0.1119  0.4431
 2502TIP3    H128997   2.789   4.842  15.020  0.1485 -0.2183  0.6341
 2502TIP3    H228998   2.669   4.801  15.103  0.1421 -0.7275  0.3710
 2503TIP3   OH228999   6.160   2.505  13.158  0.0327 -0.4854 -0.2823
 2503TIP3    H129000   6.147   2.454  13.238  0.3194  0.5872  0.4598
 2503TIP3    H229001   6.243   2.474  13.123  0.6523  0.0966  0.6526
 2504TIP3   OH229002   4.157   1.325  14.729 -0.2638  0.0550  0.3525
 2504TIP3    H129003   4.164   1.417  14.703 -0.2326  0.4940  1.8450
 2504TIP3    H229004   4.068   1.299  14.704 -0.2142  0.4511 -0.2246
 2505TIP3   OH229005   3.267   0.930   5.138 -0.1000  0.4002 -0.5355
 2505TIP3    H129006   3.263   1.015   5.095 -1.9539  0.9453  0.6285
 2505TIP3    H229007   3.212   0.940   5.216 -0.4143 -1.8884 -0.4197
 2506TIP3   OH229008   4.835   5.842  13.674  0.4149 -0.0530 -0.3193
 2506TIP3    H129009   4.832   5.925  13.722  1.1085 -0.2132  0.0012
 2506TIP3    H229010   4.757   5.844  13.618 -0.2901  0.2228  0.6683
 2507TIP3   OH229011   0.660   3.319  11.672 -0.0591 -0.4144 -0.1224
 2507TIP3    H129012   0.588   3.262  11.643 -1.5401  1.2818  0.1076
 2507TIP3    H229013   0.653   3.320  11.767 -0.1180  0.2372 -0.1315
 2508TIP3   OH229014   2.407   3.238   1.436  0.1407 -0.2196 -0.1429
 2508TIP3    H129015   2.348   3.283   1.496  0.2865 -2.4953  1.7735
 2508TIP3    H229016   2.428   3.155   1.480  3.2144 -0.3153 -1.6592
 2509TIP3   OH229017   0.253   2.284   1.805  0.4104  0.0249  0.7571
 2509TIP3    H129018   0.344   2.306   1.786 -0.2604  0.8342 -1.7828
 2509TIP3    H229019   0.224   2.350   1.868  0.6733  1.7604 -0.8945
 2510TIP3   OH229020   3.144   5.099  12.031  0.1624  0.2183 -0.3438
 2510TIP3    H129021   3.204   5.026  12.015  0.5210  0.5309 -0.4212
 2510TIP3    H229022   3.194   5.160  12.085 -0.9772 -0.7283  1.8312
 2511TIP3   OH229023   5.331   1.013  17.204  0.1088  0.2753  0.1174
 2511TIP3    H129024   5.297   0.943  17.259  0.6111 -0.2722 -0.2728
 2511TIP3    H229025   5.271   1.086  17.219 -1.1643 -0.6343 -0.4395
 2512TIP3   OH229026   1.318   2.746  15.039 -0.0583 -0.2204  0.4560
 2512TIP3    H129027   1.364   2.715  14.961 -1.5816 -2.8017  0.5585
 2512TIP3    H229028   1.258   2.813  15.006  1.2982  0.7053 -0.1658
 2513TIP3   OH229029   5.141   3.604  13.725  0.1552 -0.1528  0.1226
 2513TIP3    H129030   5.194   3.631  13.650 -0.3864  0.3217 -0.0929
 2513TIP3    H229031   5.146   3.508  13.725 -0.0251 -0.1652 -0.6586
 2514TIP3   OH229032   0.672   6.082   6.694  0.7339  0.0595  0.2113
 2514TIP3    H129033   0.753   6.067   6.744  1.7690  0.1102 -1.4345
 2514TIP3    H229034   0.641   5.995   6.672 -1.1244 -0.0668  3.1055
 2515TIP3   OH229035   5.365   3.225  10.692 -1.2203 -0.3378 -0.3600
 2515TIP3    H129036   5.374   3.246  10.599 -2.2883  0.7440 -0.2322
 2515TIP3    H229037   5.272   3.208  10.704 -1.3021  0.8330  0.7673
 2516TIP3   OH229038   1.524   2.837  11.414  0.2738 -0.3924 -0.2948
 2516TIP3    H129039   1.504   2.809  11.503  1.8146 -1.6649 -0.3251
 2516TIP3    H229040   1.616   2.863  11.416  0.6350 -1.4283 -1.7131
 2517TIP3   OH229041   3.323   4.047   3.987  0.4152  0.1845 -0.2111
 2517TIP3    H129042   3.229   4.037   3.969 -0.0554  1.9410  1.1420
 2517TIP3    H229043   3.357   3.958   3.988 -1.5994 -0.5933  1.1242
 2518TIP3   OH229044   6.491   4.785   0.716  0.2148  0.3333  0.1445
 2518TIP3    H129045   6.439   4.865   0.711  2.2210  1.6385 -0.1636
 2518TIP3    H229046   6.463   4.734   0.639 -2.2887 -0.0766  1.2537
 2519TIP3   OH229047   3.963   6.700   1.531 -0.0322  0.4863  0.6298
 2519TIP3    H129048   3.876   6.696   1.490  0.3410  1.2762 -0.2610
 2519TIP3    H229049   3.985   6.609   1.549  1.4285 -0.3066 -4.4266
 2520TIP3   OH229050   1.317   5.656  17.017 -0.3434  0.5288  0.2021
 2520TIP3    H129051   1.301   5.638  17.109  0.8255  1.1227  0.5427
 2520TIP3    H229052   1.278   5.583  16.970  1.6346 -1.2990  1.3398
 2521TIP3   OH229053   1.977   6.738  16.293 -0.0948  0.1474 -0.2318
 2521TIP3    H129054   1.927   6.790  16.230 -0.3739  0.7040  0.4338
 2521TIP3    H229055   1.924   6.741  16.373 -0.3978 -1.6467 -0.3471
 2522TIP3   OH229056   4.178   3.445   1.663 -0.0841 -0.3699  0.4586
 2522TIP3    H129057   4.187   3.529   1.707  2.4109 -1.7082  2.6694
 2522TIP3    H229058   4.085   3.422   1.673 -0.4585  1.4018  1.1551
 2523TIP3   OH229059   1.484   3.634  17.005  0.4639 -0.4295 -0.3154
 2523TIP3    H129060   1.480   3.631  17.101  0.6714 -1.0571 -0.3237
 2523TIP3    H229061   1.546   3.565  16.982  0.0699 -0.5743 -0.9255
 2524TIP3   OH229062   6.101   3.358   2.508  0.1406 -0.4148  0.1909
 2524TIP3    H129063   6.132   3.447   2.495  3.3709 -1.8030 -2.2144
 2524TIP3    H229064   6.009   3.360   2.482  0.4580  1.9836 -0.7764
 2525TIP3   OH229065   0.906   5.696   4.529  0.3246  0.3038 -0.0755
 2525TIP3    H129066   0.846   5.735   4.592 -1.7815  0.5695 -2.1455
 2525TIP3    H229067   0.863   5.709   4.444  2.4374 -1.1904 -1.4307
 2526TIP3   OH229068   6.467   6.118  13.438  0.1349  0.0302 -0.2132
 2526TIP3    H129069   6.496   6.051  13.377 -0.3916 -1.2956  0.9707
 2526TIP3    H229070   6.374   6.132  13.418  0.7421  1.9699 -1.8699
 2527TIP3   OH229071   4.671   3.084   2.942 -0.1956  0.1987 -0.4359
 2527TIP3    H129072   4.655   3.153   3.005 -1.5201  0.4386 -1.0057
 2527TIP3    H229073   4.724   3.019   2.989 -2.4488 -0.3713  1.4239
 2528TIP3   OH229074   2.637   4.382   4.579  0.1490  0.3291  0.2825
 2528TIP3    H129075   2.632   4.410   4.671 -0.4899 -0.3917  0.4730
 2528TIP3    H229076   2.548   4.395   4.546  0.3130  0.3169 -0.1579
 2529TIP3   OH229077   5.249   1.396  12.374  0.3212 -0.2010 -0.1177
 2529TIP3    H129078   5.205   1.348  12.444 -1.6745 -0.2703 -1.3683
 2529TIP3    H229079   5.274   1.479  12.414 -0.1501 -0.5314  0.8754
 2530TIP3   OH229080   0.138   1.060   2.221 -0.2572 -0.2392 -0.2251
 2530TIP3    H129081   0.083   1.009   2.161 -0.9310 -0.7646  0.8190
 2530TIP3    H229082   0.221   1.070   2.175 -0.7177 -0.7676 -1.1831
 2531TIP3   OH229083   4.594   1.735   2.686  0.2648  0.1653  0.2502
 2531TIP3    H129084   4.562   1.689   2.763  0.2439  1.0616  0.7861
 2531TIP3    H229085   4.516   1.776   2.648  0.3961  0.3782  0.2061
 2532TIP3   OH229086   5.285   4.206   5.241 -0.5176  0.0044 -0.0312
 2532TIP3    H129087   5.191   4.221   5.231 -0.4170 -0.1281 -1.1817
 2532TIP3    H229088   5.324   4.244   5.162  0.2625 -1.1988 -0.2360
 2533TIP3   OH229089   3.606   1.479   3.653 -0.5530  0.3540 -0.3924
 2533TIP3    H129090   3.515   1.509   3.659 -0.5952 -0.1541  2.2548
 2533TIP3    H229091   3.656   1.542   3.705  0.3522 -0.2808 -0.4853
 2534TIP3   OH229092   5.629   0.964   0.477  0.2482  0.4142 -0.5586
 2534TIP3    H129093   5.606   0.889   0.423  2.6672 -0.8445  0.1090
 2534TIP3    H229094   5.671   1.025   0.417  1.3428 -0.2225 -0.4342
 2535TIP3   OH229095   6.493   0.046   3.321  0.2106 -0.2572  0.4471
 2535TIP3    H129096   6.511   0.135   3.291 -1.2532 -0.1821 -0.2577
 2535TIP3    H229097   6.568  -0.005   3.289 -1.0228 -0.0625 -2.9351
 2536TIP3   OH229098   5.836   0.694   4.144  0.1094 -0.1641  0.2625
 2536TIP3    H129099   5.768   0.760   4.159 -2.7933 -2.5586 -1.7572
 2536TIP3    H229100   5.852   0.656   4.230  0.0312  1.4637  1.0184
 2537TIP3   OH229101   2.981   4.716  12.383 -0.1964 -0.1227  0.0125
 2537TIP3    H129102   3.048   4.741  12.447  0.0377  0.2299 -0.3688
 2537TIP3    H229103   3.029   4.678  12.310 -0.4501 -0.3359 -0.0446
 2538TIP3   OH229104   5.659   0.744   0.718 -0.2833 -0.7355 -0.2308
 2538TIP3    H129105   5.640   0.822   0.770 -0.0251 -1.1256  0.4553
 2538TIP3    H229106   5.580   0.730   0.666  0.7744  1.8149 -2.7350
 2539TIP3   OH229107   1.965   2.558  13.790  0.0851  0.4863 -0.4095
 2539TIP3    H129108   1.951   2.632  13.731 -1.6397 -0.1186 -0.7663
 2539TIP3    H229109   2.034   2.507  13.748 -0.6645  0.4120 -1.5639
 2540TIP3   OH229110   3.806   3.604   6.222  0.2591 -0.1150 -0.3222
 2540TIP3    H129111   3.725   3.560   6.246  0.7160 -0.0284  1.4543
 2540TIP3    H229112   3.817   3.673   6.288  2.5251 -1.0974  0.3811
 2541TIP3   OH229113   0.874   5.762   4.221 -0.2399 -0.1417 -0.1721
 2541TIP3    H129114   0.933   5.789   4.150  0.3752  0.2926  0.4971
 2541TIP3    H229115   0.865   5.667   4.209  0.9741 -0.2899 -0.0062
 2542TIP3   OH229116   5.336   6.722   4.374 -0.1657  0.1771  0.0272
 2542TIP3    H129117   5.319   6.778   4.298 -0.0023  1.1588  0.7026
 2542TIP3    H229118   5.257   6.729   4.427 -0.3698 -0.6834 -0.1499
 2543TIP3   OH229119   5.495   4.283   0.122 -0.2869 -0.3447  0.0525
 2543TIP3    H129120   5.556   4.313   0.055 -0.6837 -0.7399 -0.4932
 2543TIP3    H229121   5.504   4.346   0.193  0.9204 -0.5367  0.0744
 2544TIP3   OH229122   4.111   1.892  13.020 -0.7045 -0.3217  0.1169
 2544TIP3    H129123   4.112   1.835  13.097 -0.9767 -3.0757 -1.8638
 2544TIP3    H229124   4.019   1.920  13.013 -0.7260 -0.2403  0.6508
 2545TIP3   OH229125   6.140   6.664  15.474  0.2546  0.1961  0.3403
 2545TIP3    H129126   6.154   6.727  15.545 -1.1534 -3.1870  3.8129
 2545TIP3    H229127   6.227   6.627  15.457  0.1870 -1.0583  2.4744
 2546TIP3   OH229128   6.244   0.040   6.450 -0.2992  0.6584 -0.1548
 2546TIP3    H129129   6.273  -0.012   6.375 -0.7525  0.9064 -0.5086
 2546TIP3    H229130   6.306   0.113   6.454 -0.1753  0.5549 -0.1914
 2547TIP3   OH229131   2.394   3.258   6.565  0.0837  0.0685 -0.0257
 2547TIP3    H129132   2.482   3.242   6.532  0.3590  0.6830  0.4183
 2547TIP3    H229133   2.349   3.174   6.555  1.0723 -0.5678  0.8706
 2548TIP3   OH229134   1.111   3.579  15.202 -0.0111  0.3905 -0.6115
 2548TIP3    H129135   1.058   3.658  15.212  1.8584  1.7328 -0.9999
 2548TIP3    H229136   1.191   3.598  15.252 -0.0486 -1.7400  0.3008
 2549TIP3   OH229137   0.632   1.933   3.321  0.1749 -0.4069  0.2096
 2549TIP3    H129138   0.693   1.921   3.393  0.3612 -1.9941 -0.1969
 2549TIP3    H229139   0.551   1.889   3.350 -1.6822  3.7493  1.7834
 2550TIP3   OH229140   5.706   2.793   6.226  0.4283 -0.0921  0.7553
 2550TIP3    H129141   5.638   2.763   6.287 -1.2445  1.6055 -0.1960
 2550TIP3    H229142   5.748   2.865   6.271  0.1449  0.2414  0.4933
 2551TIP3   OH229143   5.759   5.340   0.860 -0.8002  0.6478  0.3028
 2551TIP3    H129144   5.703   5.292   0.921 -0.3453 -0.3025 -0.0185
 2551TIP3    H229145   5.699   5.399   0.815 -1.9736 -1.8531 -1.5587
 2552TIP3   OH229146   6.013   0.801  14.041  0.5779  0.4374 -0.1789
 2552TIP3    H129147   5.945   0.747  14.081  0.2386 -0.1173 -1.4923
 2552TIP3    H229148   6.078   0.814  14.111  1.0326 -2.2591 -0.0759
 2553TIP3   OH229149   3.718   6.147  15.734 -0.1637 -0.6824 -0.3611
 2553TIP3    H129150   3.773   6.223  15.754  1.0543 -1.2306 -1.5534
 2553TIP3    H229151   3.651   6.147  15.803  1.3914 -0.0786  1.1812
 2554TIP3   OH229152   5.120   2.506  15.327  0.3747  0.4690 -0.1170
 2554TIP3    H129153   5.059   2.477  15.395  1.4698 -1.2616  0.1468
 2554TIP3    H229154   5.198   2.533  15.374  0.6667  0.4886 -0.6092
 2555TIP3   OH229155   4.085   0.607   5.115 -0.8888  0.0473 -0.1227
 2555TIP3    H129156   4.068   0.533   5.056  3.3547 -0.4950 -0.8864
 2555TIP3    H229157   4.088   0.683   5.058 -0.0355 -0.0100 -0.1718
 2556TIP3   OH229158   3.303   2.702  17.237  0.0387 -0.5360  0.2190
 2556TIP3    H129159   3.346   2.617  17.245  0.2908 -0.4760 -0.4359
 2556TIP3    H229160   3.349   2.745  17.164  0.0892  0.2602  0.7145
 2557TIP3   OH229161   2.758   4.218  16.981  0.2119  0.0996  0.5214
 2557TIP3    H129162   2.845   4.256  16.969 -0.0416  0.3109 -0.6910
 2557TIP3    H229163   2.710   4.243  16.903 -0.6636 -0.7833  0.7688
 2558TIP3   OH229164   3.877   5.711  13.308 -0.3348 -0.4351  0.6119
 2558TIP3    H129165   3.944   5.726  13.374  1.3425  0.8604 -1.3177
 2558TIP3    H229166   3.885   5.618  13.286 -2.3646 -1.4083  3.7037
 2559TIP3   OH229167   0.784   4.882  16.341  0.2113 -0.0424 -0.0958
 2559TIP3    H129168   0.863   4.920  16.379  1.0044 -0.9021 -0.8812
 2559TIP3    H229169   0.787   4.906  16.248 -1.2632  1.2816  0.1750
 2560TIP3   OH229170   5.478   1.450   3.500  0.1541  0.2471 -0.5341
 2560TIP3    H129171   5.505   1.473   3.411  0.6696  0.6191 -0.2823
 2560TIP3    H229172   5.382   1.445   3.495  0.2921 -1.5175 -1.5227
 2561TIP3   OH229173   4.069   6.583   4.905  0.0842  0.3693 -0.2839
 2561TIP3    H129174   4.076   6.646   4.833 -1.2428 -0.3963 -1.0963
 2561TIP3    H229175   3.975   6.568   4.915  0.3586 -1.0046  0.3256
 2562TIP3   OH229176   2.178   1.995   0.249 -0.1708 -0.2560  0.6314
 2562TIP3    H129177   2.156   1.902   0.241  0.1122 -0.6545  3.9237
 2562TIP3    H229178   2.104   2.040   0.209  0.3980 -1.8783 -2.4244
 2563TIP3   OH229179   1.669   0.559   5.117  0.2845 -0.0422 -0.2038
 2563TIP3    H129180   1.691   0.649   5.141  0.2211 -0.1320  0.1993
 2563TIP3    H229181   1.642   0.564   5.025  2.0022  0.0612 -0.7209
 2564TIP3   OH229182   6.440   1.987   6.731 -0.5577 -0.1372 -0.0422
 2564TIP3    H129183   6.443   2.069   6.681 -1.0387 -0.5377 -0.7321
 2564TIP3    H229184   6.368   1.938   6.692 -0.5005 -0.7406  0.6086
 2565TIP3   OH229185   0.322   1.879  13.757  0.1063  0.2211  0.0203
 2565TIP3    H129186   0.405   1.920  13.733  0.7785 -0.3439  1.2987
 2565TIP3    H229187   0.296   1.830  13.679  0.4679  1.2031 -0.7179
 2566TIP3   OH229188   6.282   3.798  13.576 -0.7871  0.0512  0.1684
 2566TIP3    H129189   6.198   3.834  13.606 -1.5073 -1.0409 -0.5098
 2566TIP3    H229190   6.262   3.760  13.491  0.7293  1.0555 -0.6473
 2567TIP3   OH229191   2.961   2.803  14.819  0.0019 -0.7078  0.0515
 2567TIP3    H129192   2.996   2.714  14.810  0.8898 -0.3943  0.3401
 2567TIP3    H229193   2.980   2.845  14.736 -0.8131 -0.9179 -0.2468
 2568TIP3   OH229194   1.754   5.792  14.651  0.4474 -0.1464 -0.5959
 2568TIP3    H129195   1.830   5.772  14.597  1.7115  1.6704  0.4915
 2568TIP3    H229196   1.750   5.720  14.715  1.7642  0.2002 -0.1171
 2569TIP3   OH229197   1.670   0.324  16.972 -0.0503 -0.2844  0.1546
 2569TIP3    H129198   1.602   0.341  17.037 -1.0551 -0.2877 -0.8829
 2569TIP3    H229199   1.725   0.258  17.012 -1.5781 -1.4573  0.3639
 2570TIP3   OH229200   2.083   5.360  15.812  0.2797  0.2310 -0.6758
 2570TIP3    H129201   2.014   5.315  15.861  1.6537 -0.0008  1.1092
 2570TIP3    H229202   2.082   5.319  15.726 -1.4065 -0.1839 -0.4647
 2571TIP3   OH229203   6.784   6.390   2.362  0.2132 -0.4055 -0.3265
 2571TIP3    H129204   6.706   6.369   2.310 -0.5653  0.2046  0.5745
 2571TIP3    H229205   6.826   6.306   2.377 -1.5444 -1.0601  1.1779
 2572TIP3   OH229206   5.307   6.118  13.419  0.3619 -0.1634 -0.4321
 2572TIP3    H129207   5.289   6.210  13.439 -1.2051 -0.3819 -0.7497
 2572TIP3    H229208   5.244   6.069  13.472 -0.1067 -0.9588 -1.6869
 2573TIP3   OH229209   6.507   0.264   4.905  1.0051 -0.5884  0.2370
 2573TIP3    H129210   6.455   0.282   4.983  1.5074  2.8022 -0.1538
 2573TIP3    H229211   6.594   0.243   4.938  1.0678  0.2548  0.6059
 2574TIP3   OH229212   4.720   2.005  12.370 -0.2313 -0.7763  0.1625
 2574TIP3    H129213   4.742   1.935  12.431 -0.4337 -1.2025 -0.2533
 2574TIP3    H229214   4.798   2.015  12.315 -0.3370 -0.9331 -0.0189
 2575TIP3   OH229215   4.960   4.405  15.185  0.1767 -0.0369 -0.3135
 2575TIP3    H129216   5.029   4.362  15.134 -0.5488 -0.8894 -0.5815
 2575TIP3    H229217   4.928   4.474  15.128 -0.5214 -0.8852 -0.9550
 2576TIP3   OH229218   0.197   6.395   0.091 -0.5084 -0.0030  0.2316
 2576TIP3    H129219   0.130   6.390   0.160  0.4211  0.9579  1.2181
 2576TIP3    H229220   0.202   6.305   0.057 -1.2171 -0.4191  1.1762
 2577TIP3   OH229221   1.390   5.188   5.484 -0.1719  0.0121  0.5801
 2577TIP3    H129222   1.356   5.209   5.571 -0.8731  1.3939  0.0041
 2577TIP3    H229223   1.476   5.231   5.480  0.8407 -1.8995  1.3641
 2578TIP3   OH229224   0.451   2.671   5.778 -0.5257 -0.2719 -0.0437
 2578TIP3    H129225   0.437   2.609   5.706 -0.1975  0.2804 -0.5855
 2578TIP3    H229226   0.364   2.699   5.803 -0.6165 -0.1556 -0.4943
 2579TIP3   OH229227   0.487   0.581   3.597 -0.6229  0.5308  0.5359
 2579TIP3    H129228   0.529   0.563   3.682 -0.6854  0.3921  0.5370
 2579TIP3    H229229   0.523   0.516   3.538  0.4377  1.4750  0.1309
 2580TIP3   OH229230   0.722   2.730  12.974 -0.5764 -0.3119  0.0029
 2580TIP3    H129231   0.630   2.757  12.972 -0.1386  1.2887  0.2692
 2580TIP3    H229232   0.760   2.773  12.897  0.6837  1.9185  1.8030
 2581TIP3   OH229233   0.155   3.102  11.417 -0.5846 -0.5927 -0.4694
 2581TIP3    H129234   0.138   3.150  11.336 -0.4894 -3.4871 -2.2725
 2581TIP3    H229235   0.068   3.081  11.451 -0.6252  0.6181  0.1787
 2582TIP3   OH229236   4.121   5.630   3.774 -0.8722 -0.7351  0.1420
 2582TIP3    H129237   4.190   5.581   3.728 -0.5256 -1.7521  1.6920
 2582TIP3    H229238   4.126   5.718   3.738  1.5894 -0.6608  0.5896
 2583TIP3   OH229239   5.431   4.336   2.555 -0.0174  0.0659  0.2235
 2583TIP3    H129240   5.494   4.405   2.576 -0.0570  0.3496 -0.5998
 2583TIP3    H229241   5.375   4.331   2.633  1.6250 -0.8843  1.4023
 2584TIP3   OH229242   0.577   2.958  16.773 -0.5237  0.3729  0.7810
 2584TIP3    H129243   0.600   2.910  16.693  0.2630  0.4243  0.9718
 2584TIP3    H229244   0.642   2.928  16.838 -0.9340  0.6072  1.2957
 2585TIP3   OH229245   6.780   2.506  13.039 -0.6964  0.4505 -0.1528
 2585TIP3    H129246   6.742   2.419  13.037 -0.3911  0.3472 -2.1813
 2585TIP3    H229247   6.746   2.550  12.961  1.2916  1.2250 -0.6299
 2586TIP3   OH229248   3.374   2.983   0.601  0.1127  0.1372  0.0737
 2586TIP3    H129249   3.334   2.992   0.688 -0.0394 -0.9886  0.1307
 2586TIP3    H229250   3.300   2.976   0.541  0.1517 -3.4564  0.3377
 2587TIP3   OH229251   0.446   5.314   6.220  0.1058 -0.0326 -0.1744
 2587TIP3    H129252   0.428   5.349   6.308 -1.1026  1.0369 -0.8367
 2587TIP3    H229253   0.389   5.238   6.213 -0.2547  0.2505 -0.2801
 2588TIP3   OH229254   0.072   5.725  12.596  0.2164 -0.8015  0.6918
 2588TIP3    H129255  -0.016   5.755  12.620  0.0822 -0.3634 -0.3327
 2588TIP3    H229256   0.068   5.629  12.605 -0.8404 -0.9278 -0.8556
 2589TIP3   OH229257   3.732   6.373   4.185 -0.2346  0.1824 -0.2459
 2589TIP3    H129258   3.747   6.308   4.253 -0.9239 -0.2344 -0.4863
 2589TIP3    H229259   3.642   6.358   4.157 -0.4296  1.2829 -0.2524
 2590TIP3   OH229260   2.900   6.088  17.033  0.2684 -0.5359 -0.3886
 2590TIP3    H129261   2.954   6.046  17.101 -0.7848  1.3880  1.7153
 2590TIP3    H229262   2.960   6.151  16.991  0.4795 -0.5134 -0.0606
 2591TIP3   OH229263   1.291   0.746  14.862  0.0637  0.2758 -0.4442
 2591TIP3    H129264   1.217   0.800  14.833 -0.6280 -0.1743  0.4321
 2591TIP3    H229265   1.296   0.761  14.956  1.0125  0.1987 -0.4773
 2592TIP3   OH229266   3.728   6.012  12.368 -0.2218  0.3435 -0.2063
 2592TIP3    H129267   3.701   6.085  12.425  0.3743 -1.4629  2.4850
 2592TIP3    H229268   3.673   5.939  12.395  1.2722 -1.0187 -0.7899
 2593TIP3   OH229269   1.715   2.223   5.319 -0.0782 -0.1699  0.0459
 2593TIP3    H129270   1.669   2.159   5.374  0.1716  0.0730  0.5382
 2593TIP3    H229271   1.682   2.206   5.231 -1.9229  0.7150  0.5530
 2594TIP3   OH229272   0.343   2.072  14.223 -0.0057  0.6050 -0.3143
 2594TIP3    H129273   0.345   2.151  14.169  0.2800  1.6663  1.2270
 2594TIP3    H229274   0.321   2.103  14.311 -0.9933 -1.1623  0.0783
 2595TIP3   OH229275   1.268   1.979  13.847  0.4510 -0.3933  0.2565
 2595TIP3    H129276   1.316   2.019  13.775  0.4203 -0.5154  0.1678
 2595TIP3    H229277   1.316   1.900  13.868 -0.1230 -0.8964 -0.3195
 2596TIP3   OH229278   3.030   1.166  12.081  0.2322  0.1775  0.1992
 2596TIP3    H129279   3.056   1.091  12.133  0.8578  0.2201 -0.0451
 2596TIP3    H229280   3.095   1.170  12.010  0.7181  1.4610  0.7022
 2597TIP3   OH229281   1.684   4.749   0.690 -0.0715  0.1591  0.1029
 2597TIP3    H129282   1.694   4.747   0.785 -1.7623 -4.8700  0.3098
 2597TIP3    H229283   1.773   4.755   0.656  0.7802 -1.1717  2.0520
 2598TIP3   OH229284   5.169   1.406  11.636 -0.2714  0.0526 -0.0169
 2598TIP3    H129285   5.241   1.382  11.578 -1.0580  2.3147 -2.0038
 2598TIP3    H229286   5.211   1.439  11.715  0.8253 -3.5961  1.0425
 2599TIP3   OH229287   4.543   1.792   6.116 -0.1384  0.1468 -0.0934
 2599TIP3    H129288   4.608   1.802   6.186  0.7004 -1.7433 -0.5478
 2599TIP3    H229289   4.465   1.759   6.161  0.1471 -0.3134  0.0782
 2600TIP3   OH229290   2.274   6.696  11.746  0.0526  0.1721  0.3422
 2600TIP3    H129291   2.359   6.679  11.788 -0.5229 -0.9929  1.0620
 2600TIP3    H229292   2.293   6.693  11.652  0.6429 -1.0393  0.4793
 2601TIP3   OH229293   4.484   6.726   0.239  0.2152 -0.7178 -0.3981
 2601TIP3    H129294   4.421   6.762   0.302 -0.9047 -2.7948 -0.2588
 2601TIP3    H229295   4.546   6.797   0.222 -1.5219  1.0008  0.3411
 2602TIP3   OH229296   2.028   4.294  12.524 -0.0611  0.1423  0.2310
 2602TIP3    H129297   2.074   4.269  12.445  2.0487  1.5171  0.9731
 2602TIP3    H229298   1.946   4.245  12.521  1.3603 -2.2377 -1.2030
 2603TIP3   OH229299   0.456   1.837  11.496  0.1738  0.3423  0.7666
 2603TIP3    H129300   0.437   1.926  11.465  0.6565  1.0394  2.4253
 2603TIP3    H229301   0.547   1.841  11.526  0.3551 -0.8478  0.4077
 2604TIP3   OH229302   4.179   1.256  14.360 -0.5207 -0.0260  0.2284
 2604TIP3    H129303   4.116   1.300  14.303 -0.9480 -0.7377  0.1509
 2604TIP3    H229304   4.153   1.164  14.359 -1.4957  0.1547  2.7506
 2605TIP3   OH229305   3.429   1.549   4.240 -0.0795 -0.2475 -0.5678
 2605TIP3    H129306   3.413   1.455   4.235  1.4974 -0.4689 -1.8310
 2605TIP3    H229307   3.523   1.558   4.226 -0.1266  1.4818  0.1154
 2606TIP3   OH229308   2.693   1.124  14.330 -0.8352  0.1585  0.3792
 2606TIP3    H129309   2.623   1.121  14.396 -2.0162 -0.7879 -0.8831
 2606TIP3    H229310   2.678   1.047  14.276  0.9581  0.1815 -0.1644
 2607TIP3   OH229311   1.836   2.672  16.574  0.3107  0.1107 -0.1316
 2607TIP3    H129312   1.806   2.750  16.619  0.7465  0.3461 -0.2430
 2607TIP3    H229313   1.853   2.608  16.643  0.0692  0.1512 -0.0342
 2608TIP3   OH229314   2.138   1.854   5.483  0.3474 -0.1538  0.2436
 2608TIP3    H129315   2.162   1.897   5.565 -1.4848 -1.2227  1.3747
 2608TIP3    H229316   2.181   1.906   5.415  1.6331  0.9350  1.8498
 2609TIP3   OH229317   5.113   6.229   4.126  0.0223  0.1768  0.3416
 2609TIP3    H129318   5.185   6.178   4.090 -0.4072 -0.3513  0.2109
 2609TIP3    H229319   5.154   6.308   4.161  0.8964 -0.9355  1.9132
 2610TIP3   OH229320   3.466   2.076  13.977 -0.0125 -0.0570  0.3688
 2610TIP3    H129321   3.385   2.025  13.986  0.3281 -0.7770 -0.6139
 2610TIP3    H229322   3.536   2.011  13.985  0.4881  0.6226  1.6324
 2611TIP3   OH229323   5.671   3.639  16.103  0.1358  0.3557 -0.4003
 2611TIP3    H129324   5.602   3.698  16.134 -0.6552  0.5781 -2.5245
 2611TIP3    H229325   5.624   3.570  16.056  1.2163 -0.7707  0.1401
 2612TIP3   OH229326   4.718   3.117  16.210  0.2567  0.6011 -0.0439
 2612TIP3    H129327   4.722   3.029  16.248 -1.7653  0.9842  1.1624
 2612TIP3    H229328   4.809   3.142  16.199  0.8752 -1.6110 -0.3594
 2613TIP3   OH229329   1.226   1.407   0.349 -0.6671  0.0093  0.0631
 2613TIP3    H129330   1.178   1.457   0.415  0.2704  1.1251 -0.0893
 2613TIP3    H229331   1.259   1.330   0.396  1.2871  1.5631  1.2961
 2614TIP3   OH229332   1.857   0.840   0.040 -0.8305  0.2635 -0.2355
 2614TIP3    H129333   1.948   0.851   0.011 -0.3065 -0.9212  0.8702
 2614TIP3    H229334   1.860   0.860   0.134 -1.3442 -1.5018  0.1841
 2615TIP3   OH229335   2.742   4.541   6.381 -0.1728  0.2911 -0.6755
 2615TIP3    H129336   2.649   4.519   6.392  0.3385 -1.0465  1.3212
 2615TIP3    H229337   2.788   4.463   6.411  1.6307  1.9569  0.9980
 2616TIP3   OH229338   5.385   1.158  12.052 -0.0286  0.3642 -0.6457
 2616TIP3    H129339   5.374   1.253  12.049 -0.5458  0.2761 -1.6971
 2616TIP3    H229340   5.431   1.142  12.135 -0.3389  1.4835 -0.2455
 2617TIP3   OH229341   2.109   5.428   5.582  0.3661 -0.3127 -0.4389
 2617TIP3    H129342   2.119   5.410   5.675  0.3110  1.4137 -0.0778
 2617TIP3    H229343   2.090   5.522   5.578  2.0891 -0.0101 -2.2741
 2618TIP3   OH229344   1.144   5.352  13.529  0.4690  0.1693 -0.0527
 2618TIP3    H129345   1.188   5.435  13.510 -1.9078  1.1052 -1.6620
 2618TIP3    H229346   1.161   5.298  13.452  0.3843 -0.1537  0.1552
 2619TIP3   OH229347   4.703   3.052   2.219  0.1682  0.5511 -0.6006
 2619TIP3    H129348   4.748   2.998   2.154  0.7224 -0.3404  0.4922
 2619TIP3    H229349   4.615   3.064   2.184 -0.1087 -1.4802 -0.6323
 2620TIP3   OH229350   1.263   4.056   5.936  0.2273 -0.2127 -0.1462
 2620TIP3    H129351   1.291   3.965   5.932  1.0559  0.0981 -1.8544
 2620TIP3    H229352   1.207   4.061   6.013  0.4007 -2.1039  0.1111
 2621TIP3   OH229353   3.935   1.736  12.543  0.1981 -0.1499 -0.2661
 2621TIP3    H129354   3.908   1.651  12.507 -1.1318  1.0661 -2.2909
 2621TIP3    H229355   3.862   1.763  12.599  0.7405 -0.4625  0.5950
 2622TIP3   OH229356   3.028   3.029   0.674 -0.0938 -0.3674  0.0206
 2622TIP3    H129357   3.076   3.083   0.611 -2.4849  1.9913  0.1362
 2622TIP3    H229358   3.050   3.066   0.759 -1.0015 -0.1624  0.1703
 2623TIP3   OH229359   3.406   4.174  15.689 -0.1940  0.5666 -0.4273
 2623TIP3    H129360   3.418   4.135  15.603  2.5337 -1.1077  0.6470
 2623TIP3    H229361   3.495   4.191  15.721 -0.8928 -2.6436  3.6859
 2624TIP3   OH229362   5.635   3.351   3.934  0.2969  0.0498 -0.8491
 2624TIP3    H129363   5.651   3.370   4.026 -2.2109  2.1003 -0.7904
 2624TIP3    H229364   5.573   3.278   3.935 -2.3340  2.1977 -0.7839
 2625TIP3   OH229365   0.060   0.901   5.613  0.8436 -0.0320  0.1092
 2625TIP3    H129366   0.009   0.839   5.560  1.9997  0.1440 -1.2580
 2625TIP3    H229367  -0.005   0.947   5.666 -0.5471  0.8040 -2.2256
 2626TIP3   OH229368   1.545   0.265  17.218 -0.2632  0.5666  0.3195
 2626TIP3    H129369   1.609   0.281  17.287  0.2544 -0.4866  0.1056
 2626TIP3    H229370   1.572   0.181  17.179 -0.8144  0.9145 -0.8552
 2627TIP3   OH229371   3.057   5.901   1.817  0.5228 -0.7117 -0.2173
 2627TIP3    H129372   3.027   5.940   1.898  0.1001 -0.7617 -0.3500
 2627TIP3    H229373   3.010   5.948   1.748 -0.0565 -1.5140 -0.3706
 2628TIP3   OH229374   0.184   5.612  14.603  0.4113  0.0745  0.5914
 2628TIP3    H129375   0.273   5.588  14.628  0.9345  0.4047 -0.8768
 2628TIP3    H229376   0.128   5.566  14.666  1.4863 -2.5423 -0.2744
 2629TIP3   OH229377   5.331   6.809  12.047  0.4010 -0.6512 -0.0030
 2629TIP3    H129378   5.425   6.812  12.068 -0.0775  1.6774  1.9848
 2629TIP3    H229379   5.316   6.888  11.994 -0.7058 -0.2368  0.9136
 2630TIP3   OH229380   5.706   0.184  14.192  0.0087  0.3983  0.0636
 2630TIP3    H129381   5.746   0.258  14.147  0.8906 -0.1143 -0.0085
 2630TIP3    H229382   5.677   0.219  14.277  0.8454  0.7096  0.2189
 2631TIP3   OH229383   2.780   6.041   4.739 -0.2559 -0.1381  0.0056
 2631TIP3    H129384   2.875   6.032   4.739 -0.3878 -1.7577  0.2325
 2631TIP3    H229385   2.764   6.134   4.751  1.3151  0.3507 -1.5207
 2632TIP3   OH229386   1.573   0.811  10.744 -0.0772 -0.1196  0.2707
 2632TIP3    H129387   1.554   0.868  10.670  0.8349 -0.6773 -0.4037
 2632TIP3    H229388   1.634   0.862  10.798 -1.1285  0.4842  0.9075
 2633TIP3   OH229389   3.167   0.067  15.863 -0.1896  0.4138 -0.2342
 2633TIP3    H129390   3.168   0.147  15.916 -0.9215 -0.5430  1.2529
 2633TIP3    H229391   3.133   0.095  15.778  3.2874  2.4561 -1.0709
 2634TIP3   OH229392   5.240   3.873  12.735  0.4312 -0.6512  0.2817
 2634TIP3    H129393   5.285   3.794  12.767 -0.0729 -0.6332  1.0446
 2634TIP3    H229394   5.148   3.847  12.729  0.4184 -0.4300 -0.4635
 2635TIP3   OH229395   1.461   6.119   5.791 -0.2626 -0.2539  0.2434
 2635TIP3    H129396   1.547   6.158   5.808 -1.2430  2.3413 -0.5189
 2635TIP3    H229397   1.430   6.089   5.876  0.0107  1.7688  1.0798
 2636TIP3   OH229398   4.814   3.494  16.377  0.5856  0.3572 -0.3854
 2636TIP3    H129399   4.719   3.490  16.365  0.5100  0.3639  0.2130
 2636TIP3    H229400   4.840   3.404  16.396  0.7167  0.3323 -0.6848
 2637TIP3   OH229401   2.306   3.285   5.882  0.2279 -0.4959  0.2430
 2637TIP3    H129402   2.216   3.259   5.900 -0.5851  2.3007  0.4978
 2637TIP3    H229403   2.324   3.252   5.794 -0.3278 -2.8068  0.9707
 2638TIP3   OH229404   4.287   1.247  16.196  0.1638  0.0790 -0.0842
 2638TIP3    H129405   4.379   1.221  16.195  0.1827  0.0125  1.5511
 2638TIP3    H229406   4.254   1.221  16.110  1.2482 -1.4825 -0.0550
 2639TIP3   OH229407   3.401   2.817  15.847 -0.4376  0.1379 -0.0664
 2639TIP3    H129408   3.454   2.888  15.811 -1.0847  1.2037  1.0422
 2639TIP3    H229409   3.464   2.759  15.888  0.0147  0.5666 -0.1477
 2640TIP3   OH229410   2.154   6.388   0.113 -0.2113 -0.0727  0.4902
 2640TIP3    H129411   2.242   6.406   0.145  0.1691 -2.2772  0.8035
 2640TIP3    H229412   2.141   6.294   0.129 -2.3895  0.0878 -0.0947
 2641TIP3   OH229413   2.156   3.873  10.735  0.0305 -0.0208  0.5166
 2641TIP3    H129414   2.197   3.867  10.648 -1.2098  4.7966 -0.5894
 2641TIP3    H229415   2.230   3.888  10.794  0.6662 -0.4935 -0.1486
 2642TIP3   OH229416   4.871   4.599   2.196 -0.3244  0.1804 -0.2657
 2642TIP3    H129417   4.919   4.537   2.250  0.2974  0.9528  0.0771
 2642TIP3    H229418   4.821   4.545   2.135  0.6458 -0.6409 -0.3415
 2643TIP3   OH229419   0.509   5.822   3.510  0.0078 -0.3165  0.1218
 2643TIP3    H129420   0.452   5.887   3.470 -0.5959 -0.9785 -0.1212
 2643TIP3    H229421   0.539   5.768   3.436 -0.6886 -1.2162  0.4817
 2644TIP3   OH229422   5.768   2.603  13.051  0.1375  0.7369  0.0286
 2644TIP3    H129423   5.698   2.588  13.115  0.3108  0.7878  0.2315
 2644TIP3    H229424   5.754   2.537  12.983  2.1355 -1.7290  1.9288
 2645TIP3   OH229425   2.674   2.092   4.971 -0.1514 -0.7256  0.1840
 2645TIP3    H129426   2.653   2.075   5.063 -0.6153 -0.8652  0.0539
 2645TIP3    H229427   2.646   2.182   4.955 -2.1399 -1.4208 -0.4091
 2646TIP3   OH229428   1.246   3.100  12.228  0.1690  1.0251 -0.1737
 2646TIP3    H129429   1.156   3.070  12.217  0.3503  0.3672  0.1287
 2646TIP3    H229430   1.295   3.058  12.158  0.0361  2.2945 -1.0489
 2647TIP3   OH229431   6.318   0.315  12.046 -0.3948 -0.4027  0.6224
 2647TIP3    H129432   6.318   0.342  11.954  2.6042  0.3529  0.7961
 2647TIP3    H229433   6.268   0.234  12.047  0.1209 -0.7989 -1.8176
 2648TIP3   OH229434   5.579   4.601   6.152  0.0638 -0.5108 -0.1008
 2648TIP3    H129435   5.599   4.645   6.235  1.6598 -0.2480 -0.6211
 2648TIP3    H229436   5.483   4.602   6.148  0.0080  0.7868  1.0407
 2649TIP3   OH229437   2.558   0.160  14.054  0.7183 -0.4811  0.0516
 2649TIP3    H129438   2.476   0.128  14.015  1.3547 -0.6526 -1.1544
 2649TIP3    H229439   2.529   0.211  14.130 -0.5514 -0.1343 -0.6373
 2650TIP3   OH229440   2.405   0.020  13.391  0.7597  0.3556  0.4032
 2650TIP3    H129441   2.453   0.079  13.450  1.9915 -1.7187  1.5493
 2650TIP3    H229442   2.313   0.043  13.404  1.0680  0.4410  2.6091
 2651TIP3   OH229443   0.576   4.803  14.792  0.2843  0.3374 -0.0237
 2651TIP3    H129444   0.614   4.802  14.704  0.4680  2.3725  0.0131
 2651TIP3    H229445   0.572   4.711  14.817  1.8400 -0.1493 -1.4665
 2652TIP3   OH229446   1.260   5.322   2.761  0.0750 -0.0886  0.2101
 2652TIP3    H129447   1.313   5.400   2.776  1.5994 -1.1485  0.4436
 2652TIP3    H229448   1.224   5.299   2.847 -1.0480  0.8101 -0.0043
 2653TIP3   OH229449   3.212   5.741   3.562 -0.8517  0.3825  0.2777
 2653TIP3    H129450   3.168   5.657   3.573  0.2853 -0.3303 -0.5210
 2653TIP3    H229451   3.206   5.784   3.647 -0.9398 -0.7494  0.8420
 2654TIP3   OH229452   4.644   2.988   7.211  0.7964 -0.3167 -0.0832
 2654TIP3    H129453   4.675   2.902   7.241  1.1676  0.0721  0.6792
 2654TIP3    H229454   4.565   2.969   7.161  0.7309 -1.0834  0.3038
 2655TIP3   OH229455   6.237   3.403   1.756 -0.4359 -0.2605  0.0559
 2655TIP3    H129456   6.239   3.377   1.848  4.2181  2.9172  1.0424
 2655TIP3    H229457   6.184   3.483   1.756  0.8069  0.5915  0.3305
 2656TIP3   OH229458   5.868   2.951  15.899  0.5469  0.0828 -0.0376
 2656TIP3    H129459   5.936   2.960  15.965 -1.1120  2.4356  1.4384
 2656TIP3    H229460   5.797   2.905  15.943  0.0193  0.3093 -0.6277
 2657TIP3   OH229461   2.005   4.582  13.010 -0.0200  0.1141  0.4833
 2657TIP3    H129462   1.996   4.678  13.014 -1.0738 -0.0438  2.6861
 2657TIP3    H229463   2.099   4.567  13.010  0.1669  1.1858 -1.2429
 2658TIP3   OH229464   1.963   4.490  14.572 -0.1324  0.2076  0.1505
 2658TIP3    H129465   1.986   4.578  14.602  0.2606  0.2459 -0.2614
 2658TIP3    H229466   2.014   4.431  14.628 -0.1566  0.2504  0.2172
 2659TIP3   OH229467   3.431   0.140  12.145 -0.1235 -0.3394  0.2291
 2659TIP3    H129468   3.490   0.160  12.073 -0.2636  1.1873  0.5251
 2659TIP3    H229469   3.484   0.088  12.206  1.2277  1.8279  0.9492
 2660TIP3   OH229470   4.206   1.695  10.864 -0.3216  0.0678  0.6570
 2660TIP3    H129471   4.298   1.719  10.872 -0.0219 -0.7817 -0.1203
 2660TIP3    H229472   4.168   1.765  10.810 -0.9528  2.3535  3.9195
 2661TIP3   OH229473   6.765   2.254   2.925 -0.1817 -0.5907 -0.3905
 2661TIP3    H129474   6.718   2.270   3.007  0.7619  0.0534  0.0424
 2661TIP3    H229475   6.699   2.265   2.857 -1.0621 -1.5072  0.3038
 2662TIP3   OH229476   5.038   6.107   1.356  0.0073  0.0631  0.2169
 2662TIP3    H129477   5.066   6.023   1.393 -0.6404 -0.9257 -1.4572
 2662TIP3    H229478   5.120   6.154   1.340  0.4296 -0.6097  0.3632
 2663TIP3   OH229479   2.267   2.611  13.869  0.4232 -0.3213 -0.1956
 2663TIP3    H129480   2.194   2.622  13.930  0.0925 -1.8861 -0.3068
 2663TIP3    H229481   2.314   2.534  13.901  0.2454 -1.1674 -1.9225
 2664TIP3   OH229482   6.164   2.035   4.644  0.5541  0.1405 -0.0221
 2664TIP3    H129483   6.200   1.946   4.644  0.2516 -0.0123 -1.6093
 2664TIP3    H229484   6.154   2.056   4.551  0.0611  1.6073  0.3515
 2665TIP3   OH229485   3.882   3.750  11.791  0.2831 -0.1977 -0.4646
 2665TIP3    H129486   3.963   3.701  11.778  0.4888 -0.0434  0.1772
 2665TIP3    H229487   3.911   3.834  11.827 -0.2167 -0.4848  0.6200
 2666TIP3   OH229488   6.176   2.807   6.351  0.5658  0.0664  0.0278
 2666TIP3    H129489   6.150   2.897   6.371  0.2922 -0.2966  1.3355
 2666TIP3    H229490   6.215   2.775   6.431  1.2613 -0.7740 -0.6440
 2667TIP3   OH229491   1.846   4.376  13.865 -0.2793  0.3647  0.4342
 2667TIP3    H129492   1.893   4.416  13.937  0.1752 -1.6802  1.3180
 2667TIP3    H229493   1.754   4.398  13.881 -0.1977 -0.2255  1.7463
 2668TIP3   OH229494   2.066   6.152  14.490 -0.1251 -0.1501 -0.2488
 2668TIP3    H129495   2.139   6.194  14.536  1.0213  0.4195 -2.5129
 2668TIP3    H229496   2.108   6.098  14.423 -1.7280 -1.6897 -0.0673
 2669TIP3   OH229497   0.587   2.648  14.337 -0.6280  0.1944 -0.1315
 2669TIP3    H129498   0.574   2.731  14.383  2.0065 -0.0125  1.0530
 2669TIP3    H229499   0.538   2.584  14.388 -1.2729  0.7190 -0.0838
 2670TIP3   OH229500   6.731   5.604  12.292  0.4620  0.1491 -0.6363
 2670TIP3    H129501   6.821   5.596  12.260  0.0182  0.5022 -1.9927
 2670TIP3    H229502   6.693   5.518  12.275 -0.3443  0.9153 -2.8805
 2671TIP3   OH229503   0.890   0.610  13.792  0.5279  0.0531  0.1617
 2671TIP3    H129504   0.962   0.609  13.855 -0.7004 -0.9876  1.5897
 2671TIP3    H229505   0.899   0.528  13.744  1.2066  0.6433 -0.7175
 2672TIP3   OH229506   5.836   2.505   1.685 -0.0616  0.3897 -0.2781
 2672TIP3    H129507   5.855   2.568   1.754  2.0021 -0.1697 -0.3011
 2672TIP3    H229508   5.920   2.462   1.668 -0.9631 -0.8284 -1.7855
 2673TIP3   OH229509   3.586   4.592   6.502  0.3225  0.3100 -0.3123
 2673TIP3    H129510   3.568   4.498   6.512 -1.5621  0.3520 -2.5521
 2673TIP3    H229511   3.534   4.634   6.570 -1.5996 -0.1169 -1.4622
 2674TIP3   OH229512   2.658   2.060   5.884 -0.8748 -0.0425 -0.0551
 2674TIP3    H129513   2.592   2.009   5.932 -0.2695 -1.3472 -0.5678
 2674TIP3    H229514   2.734   2.063   5.942 -1.1045  0.7489  0.2001
 2675TIP3   OH229515   6.349   2.370   5.768 -0.2362  0.0422  0.1431
 2675TIP3    H129516   6.305   2.426   5.832 -0.6873 -0.0750 -0.0587
 2675TIP3    H229517   6.334   2.281   5.799  0.1164  0.0135  0.2348
 2676TIP3   OH229518   3.707   5.842  11.446  0.1847  0.1999 -0.1450
 2676TIP3    H129519   3.675   5.874  11.531  0.1777 -0.5055  0.1236
 2676TIP3    H229520   3.792   5.884  11.435  0.3635 -0.0111  0.4021
 2677TIP3   OH229521   1.852   1.280  14.852  0.0148 -0.0465  0.5199
 2677TIP3    H129522   1.947   1.268  14.849 -0.1481 -1.5279  1.0232
 2677TIP3    H229523   1.830   1.322  14.769  1.0532 -0.0454  0.2443
 2678TIP3   OH229524   0.455   0.824  11.736  0.4492  0.4168 -0.1265
 2678TIP3    H129525   0.371   0.796  11.699  0.3528  1.7269 -0.9012
 2678TIP3    H229526   0.510   0.842  11.659  1.6281 -0.9551  0.3658
 2679TIP3   OH229527   2.319   5.037  11.848 -0.2593  1.0388 -0.3462
 2679TIP3    H129528   2.400   5.055  11.800 -0.4812  1.1129 -0.6951
 2679TIP3    H229529   2.333   4.949  11.884 -1.1124 -0.1040 -2.7242
 2680TIP3   OH229530   2.980   0.499   0.273 -0.4535  0.4453  0.5008
 2680TIP3    H129531   2.985   0.520   0.366 -0.5543  1.2100  0.3361
 2680TIP3    H229532   2.892   0.526   0.247 -0.7724 -0.6546  0.3915
 2681TIP3   OH229533   6.356   3.780  15.733  0.8119 -0.7112 -0.6758
 2681TIP3    H129534   6.410   3.722  15.787  0.0929 -1.0687 -0.3374
 2681TIP3    H229535   6.346   3.859  15.786  2.6308  0.1342 -1.5563
 2682TIP3   OH229536   1.744   5.295  14.063  0.0080 -0.0737  0.1684
 2682TIP3    H129537   1.657   5.264  14.041 -0.2864 -0.2185  1.4900
 2682TIP3    H229538   1.773   5.236  14.134 -0.1980  2.0707  2.0961
 2683TIP3   OH229539   5.609   2.086   5.654 -0.1187 -0.6667  0.2236
 2683TIP3    H129540   5.653   2.016   5.701 -0.8047 -1.4556 -0.2923
 2683TIP3    H229541   5.599   2.053   5.564 -1.9862 -0.6254  0.3889
 2684TIP3   OH229542   4.850   0.041  16.960 -0.0084 -0.3496  0.2990
 2684TIP3    H129543   4.840  -0.048  16.995 -0.3894 -0.4515 -0.0650
 2684TIP3    H229544   4.875   0.094  17.036  1.5106 -1.0122  0.2713
 2685TIP3   OH229545   6.643   5.503   5.194  0.1032 -0.0505  0.3901
 2685TIP3    H129546   6.600   5.430   5.238 -0.4444  1.1474  1.8761
 2685TIP3    H229547   6.663   5.469   5.106 -1.7201 -1.4051  0.4569
 2686TIP3   OH229548   3.540   6.583   5.249  0.1855 -0.0708  0.4545
 2686TIP3    H129549   3.471   6.572   5.314 -0.5032 -0.3542 -0.3202
 2686TIP3    H229550   3.587   6.661   5.276 -1.4065  1.0151  0.1240
 2687TIP3   OH229551   0.140   2.382  15.762  0.3973  0.2322  0.3127
 2687TIP3    H129552   0.154   2.443  15.689 -0.7038  0.6496  0.4435
 2687TIP3    H229553   0.225   2.379  15.806  1.0050  0.1747 -0.8215
 2688TIP3   OH229554   4.934   6.659   1.534  0.1669 -0.3254 -0.2876
 2688TIP3    H129555   4.981   6.588   1.492  1.4225  0.4304 -0.1938
 2688TIP3    H229556   5.001   6.707   1.584 -0.3862  1.6783 -1.3960
 2689TIP3   OH229557   2.603   2.404   5.271  0.2849  0.4434 -0.7445
 2689TIP3    H129558   2.601   2.446   5.357 -0.9486 -0.9798 -0.0561
 2689TIP3    H229559   2.694   2.375   5.262  0.1697 -0.4257  0.6106
 2690TIP3   OH229560   5.322   0.143   4.838  0.3489  0.0726  0.6173
 2690TIP3    H129561   5.381   0.196   4.785 -0.2813 -0.5850 -0.7754
 2690TIP3    H229562   5.365   0.137   4.923  1.8303  0.3949 -0.0852
 2691TIP3   OH229563   1.463   0.851  11.759 -0.1673  0.0057 -0.3343
 2691TIP3    H129564   1.431   0.936  11.790  0.7757  0.2520 -0.0386
 2691TIP3    H229565   1.515   0.817  11.831 -0.6285 -0.8805 -0.4115
 2692TIP3   OH229566   4.140   3.453   2.372 -0.2672 -0.5491  0.0819
 2692TIP3    H129567   4.049   3.432   2.390 -1.3341  2.0646 -1.9565
 2692TIP3    H229568   4.160   3.404   2.292 -0.2023 -0.2745 -0.0680
 2693TIP3   OH229569   2.068   3.450  12.243  0.2872  0.5711  0.0467
 2693TIP3    H129570   2.109   3.522  12.292  1.1878 -0.7377  1.2387
 2693TIP3    H229571   2.002   3.415  12.303  0.3435 -0.0444 -0.2455
 2694TIP3   OH229572   2.715   5.734   3.235  0.4672  0.0415  0.0204
 2694TIP3    H129573   2.683   5.677   3.306 -0.9269 -0.6551 -1.1412
 2694TIP3    H229574   2.735   5.817   3.278 -0.6610 -0.2712  1.1818
 2695TIP3   OH229575   6.671   6.434  11.950  0.0411 -0.2545 -0.2437
 2695TIP3    H129576   6.716   6.350  11.957 -0.3951 -0.4568  0.1228
 2695TIP3    H229577   6.584   6.418  11.985 -0.0838  0.3216 -0.2818
 2696TIP3   OH229578   1.941   2.048  10.623  0.0284 -0.4960 -0.5789
 2696TIP3    H129579   2.016   2.080  10.573 -0.4489  1.8689  0.1363
 2696TIP3    H229580   1.957   1.955  10.635  4.7841  0.5955  2.7552
 2697TIP3   OH229581   0.413   3.313   4.212  0.1707 -0.9806  0.3101
 2697TIP3    H129582   0.334   3.312   4.266 -0.2590 -1.1750 -0.3234
 2697TIP3    H229583   0.382   3.334   4.124  1.0179  0.4985  0.3633
 2698TIP3   OH229584   4.887   4.927   2.632 -0.0867  0.2882  0.0805
 2698TIP3    H129585   4.838   4.854   2.671 -1.4992  0.3973 -1.4414
 2698TIP3    H229586   4.827   4.965   2.569  1.5744  1.1610 -1.0076
 2699TIP3   OH229587   4.839   2.736   5.756  1.1215  0.1213  0.7485
 2699TIP3    H129588   4.774   2.728   5.826 -2.0549  2.1941 -1.8177
 2699TIP3    H229589   4.809   2.675   5.688  1.3792  1.7242 -0.8303
 2700TIP3   OH229590   6.683   3.638   2.271  0.4275 -0.3188  0.3590
 2700TIP3    H129591   6.742   3.704   2.235  1.7840 -0.4046  2.3541
 2700TIP3    H229592   6.681   3.569   2.205  1.4728  0.3235 -0.3493
 2701TIP3   OH229593   1.532   5.105  14.076  0.3502  0.1210 -0.1368
 2701TIP3    H129594   1.486   5.107  14.160 -1.7768 -0.6040 -1.2346
 2701TIP3    H229595   1.564   5.015  14.068 -1.0800 -0.3332 -0.9231
 2702TIP3   OH229596   0.930   0.385  11.706 -0.3864  0.2222 -0.1522
 2702TIP3    H129597   0.957   0.337  11.628 -0.2552 -0.3391  0.2289
 2702TIP3    H229598   1.011   0.397  11.756 -0.9142 -2.2643  1.4251
 2703TIP3   OH229599   2.631   5.700  12.869  0.0582 -0.4088 -0.3548
 2703TIP3    H129600   2.719   5.724  12.842 -0.1070  0.2398 -0.3351
 2703TIP3    H229601   2.613   5.754  12.946 -0.6107 -0.0142 -0.7749
 2704TIP3   OH229602   4.262   3.725  14.871 -0.6600  0.1144 -0.3981
 2704TIP3    H129603   4.251   3.638  14.908 -1.0649  0.0031 -0.7748
 2704TIP3    H229604   4.202   3.780  14.922 -0.8236  0.0661 -0.5421
 2705TIP3   OH229605   3.271   3.446   3.942  0.2507  0.2833 -0.0984
 2705TIP3    H129606   3.186   3.437   3.899  0.1526 -0.0520  0.1660
 2705TIP3    H229607   3.332   3.463   3.870 -0.0570  0.6448 -0.2772
 2706TIP3   OH229608   0.997   0.997   5.843  0.5054  0.4651 -0.2152
 2706TIP3    H129609   1.034   0.995   5.932  2.1335 -2.2536 -0.8792
 2706TIP3    H229610   0.908   0.963   5.853  0.2318  1.3930  0.5536
 2707TIP3   OH229611   4.951   2.626  15.104  0.3544 -0.1225  0.2322
 2707TIP3    H129612   4.997   2.562  15.158  0.9717  0.3085  0.2254
 2707TIP3    H229613   5.015   2.652  15.038  0.3944  1.1008  0.7270
 2708TIP3   OH229614   6.795   2.085  12.994 -0.2888 -0.2884 -0.5969
 2708TIP3    H129615   6.743   2.005  12.984 -0.2638 -0.2966 -0.6620
 2708TIP3    H229616   6.815   2.111  12.904 -1.0677  0.2856 -0.6129
 2709TIP3   OH229617   0.293   5.758   2.871  0.1200  0.4537 -0.1863
 2709TIP3    H129618   0.263   5.730   2.958  0.6693 -0.7304 -0.3637
 2709TIP3    H229619   0.213   5.778   2.822 -0.2345  0.1245  0.2601
 2710TIP3   OH229620   4.775   5.250   4.603  0.0217  0.4358 -0.0235
 2710TIP3    H129621   4.705   5.194   4.637  0.1289  1.9384  2.7377
 2710TIP3    H229622   4.854   5.219   4.647  0.7617  0.2087 -1.4629
 2711TIP3   OH229623   4.137   4.425   1.669 -0.0836 -0.3474  0.3623
 2711TIP3    H129624   4.048   4.459   1.675 -0.6208 -1.4426 -0.9234
 2711TIP3    H229625   4.191   4.502   1.654 -0.7797  0.3583  1.4536
 2712TIP3   OH229626   4.282   0.698   1.965 -0.3805 -0.3361  0.3609
 2712TIP3    H129627   4.304   0.654   1.882  0.3495  0.7007  0.0019
 2712TIP3    H229628   4.208   0.754   1.943 -0.0704  0.0768  0.3563
 2713TIP3   OH229629   6.314   3.360  15.937 -0.2221 -0.3855  0.3010
 2713TIP3    H129630   6.264   3.440  15.952 -1.2608 -1.0528  0.4993
 2713TIP3    H229631   6.370   3.351  16.014 -1.0110 -0.5065  0.8622
 2714TIP3   OH229632   6.621   1.856  12.946  1.0013 -0.1340 -0.5758
 2714TIP3    H129633   6.547   1.825  12.894  0.8869 -0.7543 -0.0544
 2714TIP3    H229634   6.582   1.886  13.028  0.8729  3.3727 -1.8550
 2715TIP3   OH229635   6.056   3.952  13.562 -0.2444 -0.6010 -0.3227
 2715TIP3    H129636   5.999   3.917  13.631 -0.4995  2.2828  1.0032
 2715TIP3    H229637   5.997   4.004  13.507  0.7284  0.6463 -0.1898
 2716TIP3   OH229638   4.087   0.310   4.557  0.3014  0.6181 -0.1791
 2716TIP3    H129639   4.112   0.261   4.478  1.8484  0.9517  0.0766
 2716TIP3    H229640   4.144   0.274   4.625 -1.3499  0.0004  0.9148
 2717TIP3   OH229641   4.226   5.545   5.022  0.4600  0.2133 -0.2264
 2717TIP3    H129642   4.169   5.470   5.002  1.2849 -0.7329  0.8810
 2717TIP3    H229643   4.263   5.570   4.937 -0.4408 -0.1257 -0.7247
 2718TIP3   OH229644   0.673   6.700  13.596  0.0820 -1.0708 -0.1136
 2718TIP3    H129645   0.671   6.641  13.671  2.4447  1.4895  2.0635
 2718TIP3    H229646   0.732   6.657  13.533  0.5657 -1.7608  0.8044
 2719TIP3   OH229647   3.452   4.435  16.385 -0.4014 -0.1087 -0.2746
 2719TIP3    H129648   3.381   4.480  16.432 -0.0905 -0.8397  0.9152
 2719TIP3    H229649   3.532   4.468  16.425 -0.1234 -0.4799 -0.5266
 2720TIP3   OH229650   1.708   2.018   1.417 -0.4414 -0.1341 -0.5338
 2720TIP3    H129651   1.748   2.075   1.351  1.5271 -0.9894 -0.1110
 2720TIP3    H229652   1.644   1.966   1.368 -0.9716  1.1608 -1.2475
 2721TIP3   OH229653   0.100   1.064   3.254 -0.1213  0.4289 -0.3230
 2721TIP3    H129654   0.085   1.126   3.325  0.9433  0.2508  0.0573
 2721TIP3    H229655   0.026   1.004   3.259  0.4845 -0.2064  1.2939
 2722TIP3   OH229656   0.565   3.253   3.468 -0.1732 -0.0278 -0.3454
 2722TIP3    H129657   0.567   3.210   3.382 -0.9897 -2.3290  0.7221
 2722TIP3    H229658   0.499   3.322   3.459  1.1108  1.0015 -2.0966
 2723TIP3   OH229659   5.774   4.433   4.309  0.2191 -0.1383  0.2413
 2723TIP3    H129660   5.763   4.479   4.225 -0.5537  1.0185  0.9563
 2723TIP3    H229661   5.693   4.384   4.321 -0.3705  1.0138  1.0867
 2724TIP3   OH229662   1.358   4.034  14.677 -0.1086 -0.2389  0.3462
 2724TIP3    H129663   1.425   3.977  14.638  1.4388  1.6682  0.1592
 2724TIP3    H229664   1.384   4.043  14.768 -1.5064 -1.4580  0.8856
 2725TIP3   OH229665   0.038   0.654  12.278 -0.0305 -0.2487 -0.2553
 2725TIP3    H129666   0.104   0.609  12.330  0.6969  0.4736 -0.5336
 2725TIP3    H229667  -0.029   0.680  12.341  1.8108  2.4071  0.6836
 2726TIP3   OH229668   1.201   4.797  16.855 -0.3272 -0.2594  0.5484
 2726TIP3    H129669   1.134   4.855  16.891  0.9444  1.8225 -0.3564
 2726TIP3    H229670   1.282   4.823  16.899  0.8165  0.7715 -2.0075
 2727TIP3   OH229671   5.007   3.013   1.186 -0.7611 -0.0753  0.4921
 2727TIP3    H129672   5.069   2.963   1.132  1.2052  0.7826  1.9037
 2727TIP3    H229673   4.942   3.045   1.123  0.7655 -0.1720 -1.1855
 2728TIP3   OH229674   3.570   1.800   5.947  0.6359  0.5229 -0.3953
 2728TIP3    H129675   3.606   1.743   6.015 -0.1060 -0.9298 -1.1929
 2728TIP3    H229676   3.485   1.763   5.926  0.4487  1.5022 -1.4553
 2729TIP3   OH229677   4.296   0.631   2.416 -0.7459  0.9704  0.4245
 2729TIP3    H129678   4.205   0.625   2.444 -0.3366 -2.1266  1.3124
 2729TIP3    H229679   4.294   0.604   2.324 -0.8740  2.0244  0.1180
 2730TIP3   OH229680   4.941   2.890   5.562 -0.0690 -0.9305  0.5356
 2730TIP3    H129681   4.902   2.837   5.632  0.7658 -1.1593  0.8366
 2730TIP3    H229682   4.867   2.937   5.523 -0.6114 -1.2051  1.2258
 2731TIP3   OH229683   2.836   5.392  11.725  0.5382 -0.2755 -0.1226
 2731TIP3    H129684   2.836   5.331  11.799 -0.2805 -0.0065  0.1086
 2731TIP3    H229685   2.918   5.441  11.734  0.2919 -0.0185  0.7950
 2732TIP3   OH229686   6.789   5.460  11.261  0.2589  0.5334 -0.4981
 2732TIP3    H129687   6.704   5.492  11.289  0.0360  0.7227 -1.3696
 2732TIP3    H229688   6.820   5.527  11.199  1.1496  0.5935  0.0054
 2733TIP3   OH229689   2.816   5.222  13.006  0.4688 -0.2611  0.4637
 2733TIP3    H129690   2.794   5.302  13.054  0.3153  0.5516 -0.9121
 2733TIP3    H229691   2.820   5.154  13.072  0.2870  0.8371  1.6191
 2734TIP3   OH229692   6.224   4.008   5.891 -0.0847  0.0355  0.4209
 2734TIP3    H129693   6.143   3.989   5.937 -0.5839  0.7428 -0.1467
 2734TIP3    H229694   6.291   4.013   5.960 -0.7446  0.6712  1.0213
 2735TIP3   OH229695   4.087   5.335  13.185  0.5636 -0.2571  0.2505
 2735TIP3    H129696   4.109   5.385  13.263  3.3151  0.3409 -0.8705
 2735TIP3    H229697   4.130   5.381  13.113 -2.0087 -0.7169 -1.6647
 2736TIP3   OH229698   3.149   5.280   1.880  0.2627  0.0164 -0.4393
 2736TIP3    H129699   3.144   5.355   1.821 -0.6425  1.1529  1.0404
 2736TIP3    H229700   3.057   5.259   1.900  0.5589 -0.1364  0.8057
 2737TIP3   OH229701   2.096   6.519  14.437  0.1654  0.5291 -0.2164
 2737TIP3    H129702   2.168   6.515  14.374  0.9293 -1.0858  0.7229
 2737TIP3    H229703   2.139   6.521  14.522 -0.8693  2.2997  0.2742
 2738TIP3   OH229704   0.645   1.028   1.034 -0.4511 -0.0909  0.5404
 2738TIP3    H129705   0.591   0.999   0.961 -0.5052 -1.7552  1.2001
 2738TIP3    H229706   0.602   1.106   1.067 -2.1993 -1.1109  0.7396
 2739TIP3   OH229707   0.628   0.631   3.264  0.4647  0.2577 -0.2122
 2739TIP3    H129708   0.669   0.648   3.179 -0.5401 -3.0980 -1.4605
 2739TIP3    H229709   0.701   0.605   3.321  1.1248  2.3925 -0.0466
 2740TIP3   OH229710   1.688   1.128   0.842 -0.3331 -0.6625  0.0232
 2740TIP3    H129711   1.601   1.164   0.854  0.5157  0.9321  1.6365
 2740TIP3    H229712   1.717   1.105   0.930  0.9982 -0.8958 -0.4598
 2741TIP3   OH229713   6.505   5.227   0.182  0.1426 -0.0140 -0.4804
 2741TIP3    H129714   6.428   5.247   0.128 -0.5509 -1.8408 -0.2062
 2741TIP3    H229715   6.517   5.133   0.172  0.3331 -0.3059  2.1171
 2742TIP3   OH229716   6.391   5.247  10.964 -0.0393  0.0903  0.2433
 2742TIP3    H129717   6.354   5.332  10.986  0.7007  0.5374 -0.2043
 2742TIP3    H229718   6.477   5.247  11.007 -0.8815 -1.2716  2.0045
 2743TIP3   OH229719   5.471   1.499   5.782  0.0929 -0.3060  0.1279
 2743TIP3    H129720   5.454   1.593   5.780 -1.2925 -0.5569 -0.7501
 2743TIP3    H229721   5.407   1.464   5.844  0.4155 -0.7068  0.2385
 2744TIP3   OH229722   6.680   4.097   3.117  0.3569  0.4002 -0.0953
 2744TIP3    H129723   6.706   4.184   3.086  2.7784 -0.4838 -0.7014
 2744TIP3    H229724   6.610   4.114   3.181  1.3322  2.8477  0.3900
 2745TIP3   OH229725   0.481   3.581  13.541 -0.0622 -0.3221  0.2759
 2745TIP3    H129726   0.501   3.643  13.471 -0.8946 -1.4235 -0.9481
 2745TIP3    H229727   0.550   3.515  13.535 -0.5722 -0.8289  0.0064
 2746TIP3   OH229728   6.572   4.973   2.581  0.1014 -0.0677 -0.5101
 2746TIP3    H129729   6.630   4.947   2.653 -1.6041 -0.1694  0.8639
 2746TIP3    H229730   6.574   5.069   2.583 -0.3766 -0.0679  0.0368
 2747TIP3   OH229731   2.024   1.658  14.090 -0.5526 -0.2657  0.2785
 2747TIP3    H129732   2.029   1.730  14.027  0.1510  1.1925  1.9612
 2747TIP3    H229733   2.101   1.604  14.071  1.0124  1.4966  1.4345
 2748TIP3   OH229734   3.255   5.904  12.171 -0.2830 -0.2645  0.2577
 2748TIP3    H129735   3.204   5.979  12.140 -0.4217  0.2964  1.7616
 2748TIP3    H229736   3.252   5.912  12.267  2.2043 -0.5295  0.3751
 2749TIP3   OH229737   4.002   4.157   3.006 -0.5388 -0.3171 -0.1199
 2749TIP3    H129738   4.019   4.113   2.923 -0.2662 -1.5922  0.5986
 2749TIP3    H229739   3.955   4.093   3.059 -0.8077  0.5145  0.6809
 2750TIP3   OH229740   4.693   3.851   3.337 -0.2242  0.1636  0.5171
 2750TIP3    H129741   4.788   3.839   3.331 -0.2434 -0.0532  0.6354
 2750TIP3    H229742   4.658   3.762   3.337 -0.3552  0.2081  1.6278
 2751TIP3   OH229743   2.941   6.281   4.483  0.3300  0.5005 -0.9876
 2751TIP3    H129744   2.891   6.362   4.467  0.7148  0.5904 -1.7832
 2751TIP3    H229745   3.012   6.308   4.542  0.0212  0.5827 -0.6511
 2752TIP3   OH229746   0.224   1.353   2.472 -0.1964 -0.2428  0.1985
 2752TIP3    H129747   0.253   1.357   2.381  0.3952  1.1967  0.4438
 2752TIP3    H229748   0.304   1.350   2.524 -0.4994  1.1858  0.7673
 2753TIP3   OH229749   0.331   5.281  13.049  0.0712 -0.1592 -0.0960
 2753TIP3    H129750   0.339   5.280  12.953 -1.0791  2.0484 -0.2629
 2753TIP3    H229751   0.287   5.199  13.070 -0.4813 -0.2608 -1.5585
 2754TIP3   OH229752   4.185   0.152   4.984  0.5890  0.3441  0.1879
 2754TIP3    H129753   4.278   0.162   5.004  0.1876 -0.2319  2.6023
 2754TIP3    H229754   4.156   0.081   5.042 -1.3744  0.5979 -0.4330
 2755TIP3   OH229755   1.110   0.130  13.223 -0.2846  0.4545 -0.9316
 2755TIP3    H129756   1.176   0.066  13.197  0.8736  0.8287  0.9564
 2755TIP3    H229757   1.030   0.079  13.232  0.3862 -0.5523 -0.4903
 2756TIP3   OH229758   0.180   2.461  14.985 -0.5508 -0.4503  0.5191
 2756TIP3    H129759   0.161   2.454  14.892 -1.1125  0.3116  0.5721
 2756TIP3    H229760   0.268   2.425  14.994 -0.0071  0.5708 -0.5058
 2757TIP3   OH229761   4.774   6.652  12.948 -0.1586  0.5233  0.0226
 2757TIP3    H129762   4.680   6.644  12.961 -0.0532 -0.7522  0.0468
 2757TIP3    H229763   4.790   6.615  12.862  0.4019  0.1482  0.2869
 2758TIP3   OH229764   5.074   6.752   4.865  0.2059 -0.2786 -0.4670
 2758TIP3    H129765   5.035   6.778   4.948 -1.0066 -0.7908 -0.8680
 2758TIP3    H229766   5.153   6.806   4.858 -0.4421  0.7916  0.3412
 2759TIP3   OH229767   5.317   6.729  13.362 -0.1298  0.7073  0.1414
 2759TIP3    H129768   5.405   6.744  13.327 -1.4789  0.2084 -3.6884
 2759TIP3    H229769   5.316   6.778  13.445  3.5208  1.2309 -0.0249
 2760TIP3   OH229770   0.049   3.122   1.818  0.2030 -0.2209 -0.2943
 2760TIP3    H129771   0.090   3.125   1.905 -2.3733  0.0040  0.9471
 2760TIP3    H229772   0.078   3.203   1.776 -0.3507  0.7925  1.2190
 2761TIP3   OH229773   5.826   5.707   1.076  0.4628 -0.2905  0.0725
 2761TIP3    H129774   5.735   5.683   1.094  0.5460 -0.5488  0.1475
 2761TIP3    H229775   5.835   5.796   1.110 -0.2769  0.4269 -1.5770
 2762TIP3   OH229776   5.768   4.511   0.927  0.4300  0.1243 -0.0370
 2762TIP3    H129777   5.708   4.498   1.001 -0.5658 -1.3914 -1.0914
 2762TIP3    H229778   5.833   4.574   0.960 -1.3713  1.3251  1.3348
 2763TIP3   OH229779   3.590   0.240  11.333 -0.5832  0.3897 -0.9800
 2763TIP3    H129780   3.604   0.225  11.239 -1.4184  2.0695 -1.3876
 2763TIP3    H229781   3.666   0.290  11.361  0.5183 -1.5684 -0.3572
 2764TIP3   OH229782   3.446   6.005  16.466 -0.0678  0.3440  0.5270
 2764TIP3    H129783   3.429   6.095  16.492 -1.2555  0.0556  0.7803
 2764TIP3    H229784   3.359   5.965  16.458  0.4844 -1.4410  2.7838
 2765TIP3   OH229785   5.504   4.811  16.955  0.0804 -0.0703  0.2676
 2765TIP3    H129786   5.499   4.887  17.014  0.7778  2.4469 -2.7315
 2765TIP3    H229787   5.597   4.788  16.953  0.1111  0.0685 -0.0547
 2766TIP3   OH229788   3.395   0.208   1.660  0.4667  0.2718  0.4696
 2766TIP3    H129789   3.432   0.242   1.742 -0.8254 -1.4072  1.7942
 2766TIP3    H229790   3.316   0.260   1.646  0.9636  0.9063  0.0017
 2767TIP3   OH229791   5.107   5.895  14.214  0.1259 -0.1548 -0.5811
 2767TIP3    H129792   5.085   5.819  14.161  0.6913 -1.7895  1.4623
 2767TIP3    H229793   5.077   5.873  14.302  2.0245  1.1757  0.4505
 2768TIP3   OH229794   6.515   6.470  14.950 -0.7473  0.3482 -0.3440
 2768TIP3    H129795   6.512   6.537  14.883 -0.6724  0.3435 -0.3526
 2768TIP3    H229796   6.423   6.451  14.969 -0.7932  1.7175  0.9233
 2769TIP3   OH229797   3.585   4.272   3.548 -0.1519 -0.5220 -0.1741
 2769TIP3    H129798   3.531   4.349   3.567 -0.2685 -0.4920 -0.6369
 2769TIP3    H229799   3.661   4.307   3.501  0.6803 -0.4543  1.1915
 2770TIP3   OH229800   0.880   0.895  13.686  0.1268 -0.0266 -0.2838
 2770TIP3    H129801   0.856   0.929  13.599  0.3136 -1.0255 -0.7276
 2770TIP3    H229802   0.846   0.806  13.687 -0.2673  0.1307  0.8500
 2771TIP3   OH229803   5.314   3.640   2.787  0.2916 -0.1158  0.5377
 2771TIP3    H129804   5.294   3.709   2.724 -0.0312 -0.1494  0.5991
 2771TIP3    H229805   5.394   3.669   2.831  0.6201 -0.1803 -0.0139
 2772TIP3   OH229806   4.600   5.598  12.178 -0.0950  0.0185  0.3052
 2772TIP3    H129807   4.693   5.583  12.163 -0.2543 -0.0609 -0.6682
 2772TIP3    H229808   4.568   5.515  12.213 -0.4409 -1.0971 -2.5162
 2773TIP3   OH229809   0.911   5.531  14.991 -0.5062 -0.4761 -0.3511
 2773TIP3    H129810   0.936   5.476  15.066  0.4854  0.8872  0.3516
 2773TIP3    H229811   0.899   5.469  14.919 -0.2510 -1.6980  0.6336
 2774TIP3   OH229812   2.673   1.780   2.039 -0.0673 -0.0199 -0.1405
 2774TIP3    H129813   2.768   1.777   2.052 -0.2896 -1.5301  1.2248
 2774TIP3    H229814   2.643   1.845   2.102  0.0145  0.2466 -0.3725
 2775TIP3   OH229815   1.009   6.471   3.581  0.1002  0.3466 -0.1049
 2775TIP3    H129816   1.009   6.432   3.494 -3.2384  0.1241 -0.0754
 2775TIP3    H229817   0.933   6.529   3.581  1.4218  2.1430  1.9002
 2776TIP3   OH229818   2.287   4.781  11.942 -0.2307  0.3643 -0.1941
 2776TIP3    H129819   2.326   4.732  12.014 -0.1510  0.4941 -0.1495
 2776TIP3    H229820   2.198   4.802  11.972 -0.2568  0.2700 -0.2044
 2777TIP3   OH229821   6.135   3.832  16.445  0.2770  0.0139  0.2583
 2777TIP3    H129822   6.140   3.873  16.359 -2.0206 -2.6724 -1.2464
 2777TIP3    H229823   6.059   3.872  16.488  0.8511  0.6639  0.6855
 2778TIP3   OH229824   0.186   2.482   4.131 -1.0258 -0.3292  0.6854
 2778TIP3    H129825   0.145   2.395   4.135  0.3791 -0.9689  2.0804
 2778TIP3    H229826   0.212   2.492   4.039 -0.7173 -1.6236  0.6203
 2779TIP3   OH229827   4.132   1.169  16.442 -0.0210 -0.5172  0.3646
 2779TIP3    H129828   4.109   1.106  16.373  0.6198  0.1700 -0.4827
 2779TIP3    H229829   4.177   1.240  16.396 -0.5261  0.4545  1.3428
 2780TIP3   OH229830   2.242   3.488   3.669  0.1477 -0.0368 -0.0756
 2780TIP3    H129831   2.235   3.506   3.763 -2.0967 -2.2258  0.2277
 2780TIP3    H229832   2.336   3.490   3.651  0.8800 -2.7415  2.9169
 2781TIP3   OH229833   4.831   3.133  11.295 -0.3661 -0.0827  0.7614
 2781TIP3    H129834   4.924   3.114  11.313 -0.5002 -1.7074 -0.1152
 2781TIP3    H229835   4.786   3.050  11.313 -1.6869  0.7753  1.4449
 2782TIP3   OH229836   2.725   3.939  16.791 -0.3975 -0.4150 -0.2778
 2782TIP3    H129837   2.775   3.860  16.768 -0.0642 -0.0100 -0.9409
 2782TIP3    H229838   2.728   3.993  16.712  3.1776  2.2852  1.5796
 2783TIP3   OH229839   5.080   3.609   0.217 -0.4331 -0.2009 -0.2895
 2783TIP3    H129840   5.121   3.541   0.270 -2.1298 -2.2204 -1.4621
 2783TIP3    H229841   5.133   3.687   0.231  1.5310 -1.7590  1.1335
 2784TIP3   OH229842   0.865   4.152   1.894  0.2384  0.5475 -0.1885
 2784TIP3    H129843   0.791   4.200   1.856  0.8638  0.5425 -1.4219
 2784TIP3    H229844   0.827   4.107   1.969 -1.0263  0.5298 -0.8167
 2785TIP3   OH229845   3.819   4.695  11.725  0.4623 -0.1566 -0.8002
 2785TIP3    H129846   3.760   4.766  11.700  0.0937 -0.2759 -0.2859
 2785TIP3    H229847   3.816   4.695  11.821 -0.1435 -1.3626 -0.8138
 2786TIP3   OH229848   4.497   4.804   4.509 -0.2564  0.6459 -0.0632
 2786TIP3    H129849   4.565   4.741   4.533  0.6417  1.7797  0.3872
 2786TIP3    H229850   4.422   4.749   4.484  0.8485 -0.6163 -0.7026
 2787TIP3   OH229851   0.945   1.813   0.054  0.1635  0.3960  0.0161
 2787TIP3    H129852   0.880   1.840  -0.010  0.9265  0.0778 -0.9012
 2787TIP3    H229853   1.016   1.775   0.002  0.8103  0.1781  1.0418
 2788TIP3   OH229854   3.021   3.140  15.800 -0.3859 -0.0423 -0.2196
 2788TIP3    H129855   2.961   3.214  15.809 -2.1329 -1.1354 -2.4124
 2788TIP3    H229856   3.067   3.136  15.884 -1.0870  2.7874  0.3649
 2789TIP3   OH229857   0.790   0.111  14.582  0.0772 -0.1727 -0.7262
 2789TIP3    H129858   0.869   0.155  14.613 -0.8534  0.2854  1.0897
 2789TIP3    H229859   0.745   0.083  14.662 -1.6090 -0.3780 -1.7134
 2790TIP3   OH229860   1.005   4.232   4.072  0.0211  0.0385 -0.0179
 2790TIP3    H129861   1.041   4.152   4.034  0.8103  0.7780 -0.8416
 2790TIP3    H229862   0.987   4.288   3.997  0.3358  0.9961  0.6133
 2791TIP3   OH229863   3.698   4.073   2.370  0.2717  0.0154 -0.3906
 2791TIP3    H129864   3.681   4.108   2.283  0.1644 -1.1014 -0.8380
 2791TIP3    H229865   3.612   4.047   2.403  0.5427 -1.6305 -0.8878
 2792TIP3   OH229866   2.442   1.336   2.349  0.1753 -0.8801  0.1624
 2792TIP3    H129867   2.424   1.327   2.255  0.9511 -0.1596 -0.0692
 2792TIP3    H229868   2.513   1.401   2.353  1.0698 -1.9011  1.1567
 2793TIP3   OH229869   1.117   3.596  14.467  0.0412 -0.2683  0.1953
 2793TIP3    H129870   1.205   3.633  14.462  0.0841 -0.0584  2.2324
 2793TIP3    H229871   1.125   3.521  14.525 -1.4984  0.9755  2.1211
 2794TIP3   OH229872   4.023   6.375  11.078 -0.0427 -0.1180  0.6669
 2794TIP3    H129873   3.938   6.414  11.057 -1.2792 -3.1378 -0.2078
 2794TIP3    H229874   4.079   6.397  11.004 -0.8428 -0.3231 -0.0037
 2795TIP3   OH229875   6.503   0.102   4.099 -0.2238 -0.4360  0.3818
 2795TIP3    H129876   6.494   0.142   4.013 -0.8532 -2.5093 -0.5425
 2795TIP3    H229877   6.418   0.063   4.117  0.4513 -1.6324  1.0909
 2796TIP3   OH229878   2.646   5.479  12.338  0.4081 -0.3384  0.1998
 2796TIP3    H129879   2.566   5.438  12.372 -0.6115  0.1788 -1.5067
 2796TIP3    H229880   2.641   5.570  12.368 -0.0256 -0.1168 -0.5347
 2797TIP3   OH229881   4.473   1.345   5.022  0.5183  0.0206  0.4800
 2797TIP3    H129882   4.532   1.272   5.008  1.2451  0.8461 -0.8973
 2797TIP3    H229883   4.391   1.318   4.979  0.3671 -0.5066  1.0947
 2798TIP3   OH229884   3.710   4.678   4.676  0.4098 -0.0122  0.1006
 2798TIP3    H129885   3.687   4.585   4.673  1.7310 -0.3111 -1.4166
 2798TIP3    H229886   3.631   4.723   4.647  0.8474 -0.8814 -2.5359
 2799TIP3   OH229887   3.999   1.280   5.863  0.5452 -0.1478 -0.2778
 2799TIP3    H129888   3.936   1.289   5.934  0.6913 -0.4913 -0.1047
 2799TIP3    H229889   3.963   1.333   5.792 -0.1897 -0.7422 -0.3497
 2800TIP3   OH229890   2.517   3.461  12.516 -0.0848 -0.4368 -0.8049
 2800TIP3    H129891   2.439   3.511  12.494 -0.7980 -1.2646 -0.1919
 2800TIP3    H229892   2.537   3.412  12.437 -1.0310 -1.2990 -0.5320
 2801TIP3   OH229893   3.380   1.618  14.398  0.3693 -0.1775 -0.0322
 2801TIP3    H129894   3.434   1.600  14.475 -0.2311  0.7767  0.6189
 2801TIP3    H229895   3.425   1.573  14.327  1.4281 -0.3128  0.7024
 2802TIP3   OH229896   3.427   1.734   4.635  0.5200 -0.1031  0.0780
 2802TIP3    H129897   3.424   1.690   4.551  0.3843  0.3052 -0.1331
 2802TIP3    H229898   3.388   1.820   4.619  0.7875  0.0979  0.4797
 2803TIP3   OH229899   1.937   3.828   0.330 -0.4259  0.3585 -0.0761
 2803TIP3    H129900   1.969   3.786   0.410 -0.1482 -3.6332 -2.1652
 2803TIP3    H229901   1.851   3.788   0.314 -0.5109  1.1588 -1.7214
 2804TIP3   OH229902   1.577   2.112   2.397 -0.4226 -0.2556  0.3438
 2804TIP3    H129903   1.533   2.071   2.322 -2.3166 -0.9562  1.7748
 2804TIP3    H229904   1.669   2.118   2.371 -0.5069 -3.2608 -0.8710
 2805TIP3   OH229905   2.369   5.847  13.989  0.9611  0.2698 -0.1939
 2805TIP3    H129906   2.371   5.931  14.036  0.4374  0.2805 -0.1933
 2805TIP3    H229907   2.337   5.869  13.902  1.1960  0.1293 -0.3156
 2806TIP3   OH229908   6.651   0.849  15.872  0.0278 -0.0718 -0.4956
 2806TIP3    H129909   6.625   0.941  15.859 -0.5996  0.0129  1.2915
 2806TIP3    H229910   6.741   0.854  15.905  0.6912 -0.1954 -2.2139
 2807TIP3   OH229911   0.231   4.854   6.181 -0.1782  0.5582 -0.9594
 2807TIP3    H129912   0.277   4.770   6.175 -0.6127  0.2288  0.0962
 2807TIP3    H229913   0.141   4.831   6.203 -0.9982  1.1824 -3.5370
 2808TIP3   OH229914   0.309   5.600   5.437 -0.0739 -0.2306  0.2441
 2808TIP3    H129915   0.291   5.516   5.394  1.2397 -0.3979 -0.0148
 2808TIP3    H229916   0.401   5.618   5.416 -0.4224  1.4061  0.0989
 2809TIP3   OH229917   3.069   2.942   6.371 -0.0776  0.4961  0.0687
 2809TIP3    H129918   3.017   2.905   6.300  0.9392  0.2587 -0.5654
 2809TIP3    H229919   3.149   2.889   6.371 -0.9718 -0.9659  2.8199
 2810TIP3   OH229920   4.391   5.906   3.115 -0.4999  0.1043 -0.6168
 2810TIP3    H129921   4.408   5.988   3.161  0.1566 -0.8009  0.8065
 2810TIP3    H229922   4.395   5.929   3.022  1.4369  1.3322 -0.2530
 2811TIP3   OH229923   3.415   0.269   3.879  1.0081 -0.5964  0.1966
 2811TIP3    H129924   3.395   0.189   3.831  1.0476 -1.2845  1.3213
 2811TIP3    H229925   3.331   0.313   3.889  1.0303 -0.3391 -0.6878
 2812TIP3   OH229926   2.698   1.810  11.416 -0.9717  0.3623  0.2042
 2812TIP3    H129927   2.763   1.842  11.353 -0.1311  0.5441  1.1451
 2812TIP3    H229928   2.617   1.805  11.366 -0.0580 -0.7124 -1.2320
 2813TIP3   OH229929   6.574   3.389  11.005  0.5286  0.0350  0.2971
 2813TIP3    H129930   6.500   3.446  10.990 -0.3539 -0.7044  1.6780
 2813TIP3    H229931   6.597   3.355  10.919 -0.7093  0.3020 -0.1454
 2814TIP3   OH229932   5.914   6.599   2.773  0.3826  0.1029 -0.2352
 2814TIP3    H129933   5.898   6.687   2.739  0.9743  1.2687  2.3825
 2814TIP3    H229934   5.842   6.583   2.834  1.2719 -0.4722  0.6789
 2815TIP3   OH229935   0.527   0.668   5.283 -0.9052 -0.2156  0.6015
 2815TIP3    H129936   0.457   0.714   5.330  0.4488  1.2261  1.2530
 2815TIP3    H229937   0.607   0.707   5.316  0.2309 -1.8861 -0.1083
 2816TIP3   OH229938   4.000   2.715   3.079  0.4917  0.2919  0.2432
 2816TIP3    H129939   3.949   2.645   3.120  0.1282 -0.3981 -1.3732
 2816TIP3    H229940   3.950   2.795   3.099 -1.0740 -0.3352 -1.0308
 2817TIP3   OH229941   1.701   6.159  11.984 -0.0574  0.2905 -0.2053
 2817TIP3    H129942   1.723   6.092  12.048 -0.0217 -0.4111 -0.9341
 2817TIP3    H229943   1.630   6.209  12.024  1.7488  1.5369  1.4862
 2818TIP3   OH229944   1.452   2.237  16.656 -0.1116  0.3956  0.0259
 2818TIP3    H129945   1.360   2.236  16.632  0.0296 -0.1102 -0.5050
 2818TIP3    H229946   1.499   2.225  16.574  0.4129  0.1259  0.3583
 2819TIP3   OH229947   0.927   5.125  13.596  0.3012 -0.4843  0.2358
 2819TIP3    H129948   0.914   5.038  13.635  0.1831 -1.0258 -0.9861
 2819TIP3    H229949   0.981   5.172  13.660  0.5343 -1.5253  0.8156
 2820TIP3   OH229950   3.360   4.585   1.317 -0.2132 -0.7831  0.1784
 2820TIP3    H129951   3.358   4.632   1.400 -1.2048 -0.2905 -0.1182
 2820TIP3    H229952   3.387   4.496   1.340 -2.4957 -1.2148  1.3008
 2821TIP3   OH229953   5.797   5.873   0.020  0.5844 -0.6655  0.7378
 2821TIP3    H129954   5.731   5.863   0.089 -0.0960  1.5255  0.4503
 2821TIP3    H229955   5.826   5.964   0.028 -0.9773  0.2724 -3.1031
 2822TIP3   OH229956   6.274   5.205   5.755 -0.1611  0.0083  0.2499
 2822TIP3    H129957   6.276   5.204   5.659  0.6548 -0.8885  0.2672
 2822TIP3    H229958   6.181   5.215   5.777 -0.3460  0.2600 -0.6342
 2823TIP3   OH229959   4.370   0.753  13.113  0.0364 -0.2527 -0.2359
 2823TIP3    H129960   4.383   0.675  13.167 -2.8437 -1.7409 -1.5938
 2823TIP3    H229961   4.372   0.720  13.023 -0.6820  1.3302 -0.8559
 2824TIP3   OH229962   2.331   4.327  11.575  0.2050 -0.0452 -0.1043
 2824TIP3    H129963   2.378   4.392  11.522 -0.2517 -0.4403 -0.9987
 2824TIP3    H229964   2.240   4.355  11.572  0.3661  0.8042  1.7603
 2825TIP3   OH229965   2.740   1.955  15.369 -0.3011  0.0238  0.0144
 2825TIP3    H129966   2.674   2.014  15.332 -0.5949 -1.8726 -2.6970
 2825TIP3    H229967   2.709   1.867  15.345  2.2827 -1.0040  0.2526
 2826TIP3   OH229968   3.559   1.317   0.690 -0.3839  0.6897 -0.0063
 2826TIP3    H129969   3.493   1.386   0.697  0.7763  1.6547  1.7447
 2826TIP3    H229970   3.641   1.364   0.673  0.2360 -0.3458  0.0483
 2827TIP3   OH229971   6.717   2.855   4.967  0.3199  0.3764 -0.4434
 2827TIP3    H129972   6.643   2.837   4.910  1.0051 -0.4818 -1.0630
 2827TIP3    H229973   6.678   2.885   5.049 -0.6809  0.8177 -1.0784
 2828TIP3   OH229974   5.892   1.223  13.544 -0.5153  0.3365  0.0381
 2828TIP3    H129975   5.944   1.290  13.500  1.5480 -0.7609  0.7563
 2828TIP3    H229976   5.949   1.188  13.613 -2.4522 -0.4008  1.3367
 2829TIP3   OH229977   1.410   3.633  10.381 -0.3488 -0.4128 -0.0502
 2829TIP3    H129978   1.395   3.620  10.475 -3.8227 -0.0163 -0.4971
 2829TIP3    H229979   1.438   3.724  10.373 -1.1001 -0.1375  0.4872
 2830TIP3   OH229980   0.469   4.723  16.643  0.3311 -0.1207 -0.1542
 2830TIP3    H129981   0.517   4.703  16.723  1.3571 -0.4298 -0.8385
 2830TIP3    H229982   0.535   4.723  16.574 -0.5212  0.2533 -0.9941
 2831TIP3   OH229983   6.004   2.074  13.585  0.2576 -0.3198  0.4527
 2831TIP3    H129984   6.092   2.065  13.547 -0.0739 -0.5804 -0.2747
 2831TIP3    H229985   5.948   2.023  13.526 -0.3767 -0.1807  0.9330
 2832TIP3   OH229986   0.467   2.310   3.166 -0.3554 -0.3116 -0.7631
 2832TIP3    H129987   0.532   2.375   3.192 -0.5394 -0.3859 -0.1170
 2832TIP3    H229988   0.389   2.361   3.147 -0.8212 -0.4232  0.7708
 2833TIP3   OH229989   1.456   6.749  15.428 -0.2760  0.3234  0.8979
 2833TIP3    H129990   1.530   6.690  15.443  1.6318  1.5830 -2.8399
 2833TIP3    H229991   1.491   6.837  15.444 -1.2794  0.8495  0.3308
 2834TIP3   OH229992   2.407   3.214   3.795  0.2115 -0.1406 -0.2083
 2834TIP3    H129993   2.403   3.120   3.812  2.0514  0.0493  1.3696
 2834TIP3    H229994   2.469   3.223   3.723  1.5694  0.0110  0.9668
 2835TIP3   OH229995   0.167   5.459  16.421 -0.5542  0.2413 -0.3724
 2835TIP3    H129996   0.099   5.400  16.389 -0.3092  0.6981 -1.7768
 2835TIP3    H229997   0.167   5.531  16.358  2.3551 -0.5375 -1.3137
 2836TIP3   OH229998   4.082   4.349   2.473 -0.5453  0.0744 -0.0298
 2836TIP3    H129999   4.029   4.286   2.522 -0.0104 -1.1731 -1.0393
 2836TIP3    H230000   4.150   4.297   2.432  0.5422  1.4590 -0.0263
 2837TIP3   OH230001   0.658   1.464   3.693 -0.1847 -0.2336 -0.0484
 2837TIP3    H130002   0.669   1.423   3.779 -2.8868  0.6500  0.7646
 2837TIP3    H230003   0.624   1.394   3.637 -0.5550 -0.2531  0.1961
 2838TIP3   OH230004   6.491   2.317  14.721 -0.2070  0.2414  0.5191
 2838TIP3    H130005   6.479   2.403  14.682 -0.7701  0.1110  0.3871
 2838TIP3    H230006   6.457   2.256  14.655  3.4113 -0.3604 -0.8775
 2839TIP3   OH230007   0.687   1.227   4.286 -0.3508  0.6622 -0.2196
 2839TIP3    H130008   0.673   1.166   4.359 -0.0382 -0.4563 -1.0652
 2839TIP3    H230009   0.672   1.174   4.208 -1.7717  2.1247 -0.9707
 2840TIP3   OH230010   1.098   2.582   4.543 -0.3198 -0.2031  0.3733
 2840TIP3    H130011   1.178   2.552   4.585 -0.6802 -0.9868  0.5129
 2840TIP3    H230012   1.114   2.674   4.523  0.8310 -0.5131 -0.1411
 2841TIP3   OH230013   5.219   5.986  15.322  0.1632 -0.2758  0.7322
 2841TIP3    H130014   5.174   6.009  15.241  0.5267  0.8570  0.8546
 2841TIP3    H230015   5.312   5.999  15.303  0.1744  1.0594  1.6750
 2842TIP3   OH230016   4.676   6.590  16.903 -0.1839 -0.5338 -0.1051
 2842TIP3    H130017   4.604   6.563  16.961  0.4034 -0.5529  0.6227
 2842TIP3    H230018   4.651   6.677  16.872 -0.8169 -0.8003 -0.3458
 2843TIP3   OH230019   2.532   5.923   2.318  0.4261 -0.4213 -0.1217
 2843TIP3    H130020   2.449   5.969   2.329  0.7064  0.0655 -0.0366
 2843TIP3    H230021   2.549   5.885   2.404 -0.3014 -1.5284 -0.4555
 2844TIP3   OH230022   3.024   1.883  11.881 -0.4082 -0.1468  0.5167
 2844TIP3    H130023   3.029   1.829  11.801  1.5932 -0.8656  1.1081
 2844TIP3    H230024   3.045   1.971  11.851 -1.2375 -0.1163 -0.0132
 2845TIP3   OH230025   5.797   3.916   3.542 -0.1427 -0.2146 -0.0401
 2845TIP3    H130026   5.814   3.824   3.520  0.1501 -0.6358  1.8103
 2845TIP3    H230027   5.756   3.912   3.629 -0.1053  1.4162  0.0629
 2846TIP3   OH230028   3.829   6.122   4.829 -0.9880  0.0809 -0.1083
 2846TIP3    H130029   3.909   6.173   4.829 -1.0678  0.2063 -0.2322
 2846TIP3    H230030   3.854   6.037   4.793 -0.4292 -0.6379  1.9209
 2847TIP3   OH230031   1.217   6.800  12.803 -0.3529 -0.3123  0.3919
 2847TIP3    H130032   1.210   6.733  12.870 -0.2475 -1.1445 -0.4196
 2847TIP3    H230033   1.311   6.813  12.792 -0.3798  0.6390  1.1988
 2848TIP3   OH230034   5.595   5.340   2.748  0.3210 -0.0549  0.2733
 2848TIP3    H130035   5.543   5.297   2.816 -0.2594 -0.6273 -0.5337
 2848TIP3    H230036   5.559   5.429   2.744 -0.2978 -0.3160  0.0306
 2849TIP3   OH230037   3.145   4.881   5.596 -0.6505  0.5378 -0.2178
 2849TIP3    H130038   3.240   4.892   5.596 -0.8367  2.4365 -2.1242
 2849TIP3    H230039   3.128   4.818   5.666  2.0406 -0.1724 -0.1646
 2850TIP3   OH230040   1.753   0.894   3.548  0.1103  0.0796 -0.0908
 2850TIP3    H130041   1.681   0.956   3.539  1.1964  1.2029 -1.1059
 2850TIP3    H230042   1.739   0.854   3.635 -0.3412  2.0551  0.7706
 2851TIP3   OH230043   5.641   5.904   1.566 -0.0409 -0.4364 -0.6176
 2851TIP3    H130044   5.678   5.992   1.572 -0.4659 -0.3965  2.6264
 2851TIP3    H230045   5.691   5.860   1.497  0.9838  1.9546 -1.4345
 2852TIP3   OH230046   0.875   0.457  15.790 -0.0306 -0.0286 -0.4882
 2852TIP3    H130047   0.803   0.413  15.744  1.5143 -1.7752 -1.2952
 2852TIP3    H230048   0.906   0.523  15.728 -1.1961  1.0590  0.0435
 2853TIP3   OH230049   5.202   2.632   5.640 -0.3119  0.0912 -0.0003
 2853TIP3    H130050   5.140   2.573   5.598 -0.6021 -0.0042  0.5565
 2853TIP3    H230051   5.191   2.615   5.734 -0.9242  1.5476  0.2034
 2854TIP3   OH230052   5.969   1.511  14.751 -0.1119  1.1203 -0.2281
 2854TIP3    H130053   5.938   1.601  14.737 -2.4444  0.8918  2.8162
 2854TIP3    H230054   5.893   1.457  14.731  1.0710 -0.1516 -1.3358
 2855TIP3   OH230055   5.095   4.597  14.014 -0.3619 -0.1483  0.4708
 2855TIP3    H130056   5.164   4.653  13.979 -0.0967 -1.5920 -1.3606
 2855TIP3    H230057   5.033   4.658  14.054  0.3138  1.3923 -0.7659
 2856TIP3   OH230058   1.538   0.291  13.510 -0.2636  0.4271 -0.2629
 2856TIP3    H130059   1.448   0.280  13.479 -0.4833 -3.8616  1.5530
 2856TIP3    H230060   1.591   0.240  13.448  0.6161  0.7646  0.1978
 2857TIP3   OH230061   6.250   1.652   1.619 -0.5626  0.2824 -0.5724
 2857TIP3    H130062   6.292   1.592   1.557  0.3440 -0.5818  0.8525
 2857TIP3    H230063   6.178   1.690   1.569  1.4782  1.3056 -2.8588
 2858TIP3   OH230064   2.902   4.070  14.520  0.5584 -0.0126  0.4969
 2858TIP3    H130065   2.909   4.074  14.425  2.1796  0.0645  0.6029
 2858TIP3    H230066   2.931   3.981  14.542 -1.3634 -0.5810  0.8069
 2859TIP3   OH230067   2.696   2.358   1.458  0.3005 -0.5007 -0.5355
 2859TIP3    H130068   2.706   2.278   1.510 -0.2108 -0.9427 -1.1006
 2859TIP3    H230069   2.626   2.337   1.397  0.2183  0.3609 -0.7396
 2860TIP3   OH230070   3.124   5.458   5.052  0.6985 -0.3925  0.0038
 2860TIP3    H130071   3.097   5.375   5.091  1.3655 -0.7408 -0.2685
 2860TIP3    H230072   3.074   5.463   4.971 -0.2269  0.0402  0.5916
 2861TIP3   OH230073   3.017   0.087   3.608  0.0314 -0.3154 -0.2698
 2861TIP3    H130074   2.990   0.146   3.538 -0.2894  1.1173  1.0433
 2861TIP3    H230075   2.938   0.035   3.628  0.1737 -0.8464 -1.0797
 2862TIP3   OH230076   5.989   3.299   3.330 -0.4519  0.6041  1.0738
 2862TIP3    H130077   5.894   3.293   3.327 -0.4274 -0.5765  2.0690
 2862TIP3    H230078   6.018   3.209   3.346  0.8031  1.0259  1.2097
 2863TIP3   OH230079   0.779   6.641   0.703  0.1006 -0.7248  0.3349
 2863TIP3    H130080   0.714   6.594   0.755 -0.4683 -0.4505 -0.1324
 2863TIP3    H230081   0.751   6.732   0.706  1.4748 -0.3045  1.6549
 2864TIP3   OH230082   3.963   3.632  11.398  0.0471 -0.0488 -0.5978
 2864TIP3    H130083   3.973   3.591  11.312  0.4965 -1.1731 -0.0221
 2864TIP3    H230084   3.880   3.598  11.432 -0.4355  0.8676 -0.8330
 2865TIP3   OH230085   0.305   3.512   2.959  0.0593  0.3309  0.6793
 2865TIP3    H130086   0.358   3.580   2.918  0.7666 -1.3380 -1.2343
 2865TIP3    H230087   0.221   3.515   2.913  0.6393 -1.1262 -0.5162
 2866TIP3   OH230088   1.825   1.207  16.146  0.0182  0.6646  0.0250
 2866TIP3    H130089   1.768   1.181  16.218 -0.5707 -1.2428 -1.0861
 2866TIP3    H230090   1.767   1.214  16.070  0.6656  2.3878 -0.3360
 2867TIP3   OH230091   1.260   0.966   5.752  0.1124  0.2663 -0.4590
 2867TIP3    H130092   1.308   0.934   5.829  1.6225 -0.1896 -1.5676
 2867TIP3    H230093   1.169   0.973   5.782  0.5215 -0.7942  1.0992
 2868TIP3   OH230094   0.369   3.706   3.962 -0.3246  0.0959 -0.5444
 2868TIP3    H130095   0.321   3.717   4.044  1.3096  0.2505  0.4022
 2868TIP3    H230096   0.300   3.698   3.896 -1.7053 -1.6067  1.0128
 2869TIP3   OH230097   0.257   6.486  15.163 -0.0101 -0.1656 -0.5716
 2869TIP3    H130098   0.323   6.455  15.101 -0.3320 -4.4349  0.9969
 2869TIP3    H230099   0.300   6.479  15.248 -0.8894  1.8017  0.0594
 2870TIP3   OH230100   6.557   1.869  14.514 -0.2428 -0.5505  0.7800
 2870TIP3    H130101   6.581   1.881  14.422 -0.7273 -0.0284  0.7167
 2870TIP3    H230102   6.628   1.911  14.563 -0.8839  0.7836  0.6001
 2871TIP3   OH230103   5.015   4.203  14.277 -0.5244  0.5143  0.0762
 2871TIP3    H130104   5.078   4.136  14.301 -0.7620  0.4784  0.6146
 2871TIP3    H230105   5.010   4.199  14.181 -0.7505 -0.4273  0.1251
 2872TIP3   OH230106   2.738   5.215   4.621  0.1155  0.1458  0.3793
 2872TIP3    H130107   2.763   5.182   4.535  0.7750  0.2414  0.5293
 2872TIP3    H230108   2.644   5.200   4.626  0.1189 -0.1121 -0.2480
 2873TIP3   OH230109   6.004   2.459  10.584 -0.6086 -0.0315  0.4622
 2873TIP3    H130110   5.926   2.411  10.556 -0.4101  0.7623 -1.5768
 2873TIP3    H230111   6.012   2.530  10.520  0.3965  1.3518  2.0787
 2874TIP3   OH230112   6.628   5.194   6.037 -0.0134 -0.2295 -0.4773
 2874TIP3    H130113   6.581   5.261   5.987  1.8324 -0.1520 -2.1686
 2874TIP3    H230114   6.699   5.166   5.979  1.9847 -0.3977  1.9773
 2875TIP3   OH230115   0.619   0.405   1.604 -0.2402 -0.1821 -0.1949
 2875TIP3    H130116   0.672   0.332   1.571 -0.5726 -0.1758 -0.7616
 2875TIP3    H230117   0.533   0.366   1.620 -0.2725 -0.0284  0.0017
 2876TIP3   OH230118   1.188   0.446   4.406  0.3190  0.0709 -0.0692
 2876TIP3    H130119   1.115   0.440   4.467 -0.3168  1.9467 -0.6121
 2876TIP3    H230120   1.266   0.429   4.460 -0.1780  2.2677  1.4055
 2877TIP3   OH230121   3.599   4.308   5.346  0.8376  0.3561 -0.1845
 2877TIP3    H130122   3.652   4.240   5.304  0.1952 -0.7386  0.7215
 2877TIP3    H230123   3.629   4.309   5.437  0.8861  1.3363 -0.2093
 2878TIP3   OH230124   5.355   6.660   5.159  0.0859 -0.3946  0.7483
 2878TIP3    H130125   5.411   6.695   5.228 -0.2782  0.0802  0.8050
 2878TIP3    H230126   5.265   6.672   5.191 -0.0298 -2.7931  1.4546
 2879TIP3   OH230127   3.885   0.064  17.199  0.0695  0.0648 -0.4173
 2879TIP3    H130128   3.928   0.147  17.177  0.3942 -0.2345 -0.9372
 2879TIP3    H230129   3.804   0.090  17.242 -0.1959  0.6742 -1.2507
 2880TIP3   OH230130   0.882   2.837   0.836 -0.0486  0.0401  0.0096
 2880TIP3    H130131   0.900   2.867   0.925 -1.5187  1.9999 -0.3442
 2880TIP3    H230132   0.969   2.830   0.795  0.6350 -0.9513  1.6052
 2881TIP3   OH230133   6.000   3.677   2.679  0.2215  0.0094  0.2429
 2881TIP3    H130134   6.002   3.638   2.767 -1.1290  1.0984  0.7895
 2881TIP3    H230135   6.003   3.771   2.696  0.5891  0.2065 -0.9149
 2882TIP3   OH230136   4.730   3.473  16.677  0.3804  0.5708 -0.1104
 2882TIP3    H130137   4.811   3.479  16.728 -0.6816 -1.4060  1.9194
 2882TIP3    H230138   4.685   3.556  16.694  0.8805  0.6832  0.7106
 2883TIP3   OH230139   6.053   4.293   1.253 -0.0123 -0.1967  0.6422
 2883TIP3    H130140   6.132   4.316   1.303 -0.8760  1.2581  1.3449
 2883TIP3    H230141   6.040   4.367   1.194 -0.2325 -0.9448 -0.2557
 2884TIP3   OH230142   2.534   6.459   1.054  0.1514 -0.0615  0.0671
 2884TIP3    H130143   2.455   6.511   1.066  1.2047  1.1373  2.1414
 2884TIP3    H230144   2.513   6.373   1.090 -0.9050 -0.4254 -1.4051
 2885TIP3   OH230145   6.125   0.364   1.430 -0.2505  0.1064  0.1970
 2885TIP3    H130146   6.063   0.291   1.423  0.4853 -0.4249 -0.8506
 2885TIP3    H230147   6.161   0.356   1.518 -0.2529 -0.7324  0.1277
 2886TIP3   OH230148   3.681   6.099  13.712 -0.1927 -0.3232  0.2643
 2886TIP3    H130149   3.600   6.099  13.661  0.7495 -0.6513 -1.2533
 2886TIP3    H230150   3.714   6.010  13.704  0.3003 -0.1964  0.9140
 2887TIP3   OH230151   4.600   5.645  17.117 -0.0216  0.6431  0.5057
 2887TIP3    H130152   4.608   5.683  17.204 -2.3793  2.5225 -0.0362
 2887TIP3    H230153   4.512   5.609  17.114  0.3564 -0.2124 -0.7955
 2888TIP3   OH230154   0.136   0.749   0.193 -0.1298 -0.0075 -0.3919
 2888TIP3    H130155   0.100   0.732   0.106 -0.4854  2.1916 -0.6934
 2888TIP3    H230156   0.158   0.842   0.192  0.6918 -0.1653  1.5739
 2889TIP3   OH230157   4.203   5.884   4.862  0.3120 -0.1623  0.3098
 2889TIP3    H130158   4.242   5.952   4.917  1.3260  1.5669 -2.4094
 2889TIP3    H230159   4.268   5.869   4.793 -2.3163  0.2453 -2.3669
 2890TIP3   OH230160   3.064   0.985  14.268  0.3338  0.2875  0.6605
 2890TIP3    H130161   3.045   1.048  14.338  1.1356  1.0892  0.1583
 2890TIP3    H230162   3.119   0.919  14.310 -0.8688 -0.3358  1.2986
 2891TIP3   OH230163   3.981   2.427  16.771 -0.3630  0.0583 -0.0939
 2891TIP3    H130164   3.906   2.486  16.774  0.4450  1.1197 -0.4094
 2891TIP3    H230165   4.028   2.452  16.691  0.1320 -0.8449 -0.0931
 2892TIP3   OH230166   0.325   4.288  12.089 -0.6798  0.1732  0.8302
 2892TIP3    H130167   0.307   4.255  12.002  1.1825  0.4625  0.3134
 2892TIP3    H230168   0.368   4.216  12.135  1.5184  1.1371  0.3572
 2893TIP3   OH230169   6.224   5.652  11.687 -0.7908 -0.1408  0.1593
 2893TIP3    H130170   6.133   5.656  11.717 -0.7956  0.8574  0.0309
 2893TIP3    H230171   6.275   5.670  11.766 -0.7840  1.7944 -0.2667
 2894TIP3   OH230172   1.136   2.232  12.530  0.6162  0.9424  0.0084
 2894TIP3    H130173   1.108   2.264  12.444 -0.6281  3.0152  1.1417
 2894TIP3    H230174   1.231   2.242  12.529  0.9234 -1.5184 -2.0610
 2895TIP3   OH230175   2.006   2.972  11.643 -0.4150 -0.1354  0.0647
 2895TIP3    H130176   2.024   2.913  11.716  1.0918  0.5681  0.2759
 2895TIP3    H230177   2.092   3.003  11.615 -1.0240  0.2117 -1.5160
 2896TIP3   OH230178   6.050   5.019   4.563  0.2974 -0.1976 -0.3450
 2896TIP3    H130179   6.056   5.097   4.618  0.2493  0.6224 -1.5047
 2896TIP3    H230180   6.026   4.949   4.625 -0.0399  0.7659  0.6376
 2897TIP3   OH230181   0.794   0.121  13.720  0.0120 -0.3676 -0.8282
 2897TIP3    H130182   0.707   0.124  13.681 -0.1290 -1.9198 -0.6757
 2897TIP3    H230183   0.844   0.062  13.663 -0.2061 -2.7196  1.3307
 2898TIP3   OH230184   3.412   2.142  13.536  0.1564  0.4037  0.2170
 2898TIP3    H130185   3.448   2.201  13.602 -0.5494  0.0706  0.9098
 2898TIP3    H230186   3.327   2.115  13.571  0.8039 -1.6465  0.2810
 2899TIP3   OH230187   1.769   5.064   2.137  0.4282  0.3292  0.4530
 2899TIP3    H130188   1.775   5.149   2.180  0.7999 -0.5590  2.2572
 2899TIP3    H230189   1.849   5.018   2.164  0.9946 -0.0429 -1.7628
 2900TIP3   OH230190   5.832   5.347   4.981  0.2328  0.1009 -0.6174
 2900TIP3    H130191   5.780   5.338   4.900 -1.6019  0.2996  0.4977
 2900TIP3    H230192   5.855   5.440   4.984  1.1640 -0.0982 -1.4126
 2901TIP3   OH230193   0.462   1.575  14.494  0.1329  0.3370  0.7557
 2901TIP3    H130194   0.524   1.505  14.517  0.6560  0.6881  0.4049
 2901TIP3    H230195   0.391   1.529  14.449  1.2135  0.2238 -0.8660
 2902TIP3   OH230196   0.607   2.120   4.572  0.8441 -0.3092 -0.7187
 2902TIP3    H130197   0.554   2.063   4.516  0.6499 -1.3850  0.5576
 2902TIP3    H230198   0.569   2.207   4.559 -0.7059 -0.9320 -0.4544
 2903TIP3   OH230199   6.008   1.563   6.206 -0.3271 -0.1791  0.0559
 2903TIP3    H130200   6.013   1.658   6.195 -0.2283 -0.1377  0.4381
 2903TIP3    H230201   5.927   1.549   6.255  1.1370 -0.0446  2.6153
 2904TIP3   OH230202   0.607   6.275   2.586 -0.5892  0.1251  0.2733
 2904TIP3    H130203   0.544   6.208   2.562 -0.3480  0.2972 -0.8606
 2904TIP3    H230204   0.645   6.304   2.503  0.0649  0.9201  0.8339
 2905TIP3   OH230205   1.993   3.520   5.463 -0.3043  0.3619 -0.2332
 2905TIP3    H130206   1.931   3.576   5.416  0.1882 -0.2141 -1.6037
 2905TIP3    H230207   2.074   3.527   5.413  0.6795  0.9257  1.4218
 2906TIP3   OH230208   1.632   5.384   5.475 -0.1175 -0.1161  0.0690
 2906TIP3    H130209   1.695   5.417   5.539 -0.3901  0.3352  0.1079
 2906TIP3    H230210   1.555   5.440   5.486  0.6220  1.4290 -2.1765
 2907TIP3   OH230211   2.077   0.213   5.294  0.3784  0.5412  0.0708
 2907TIP3    H130212   2.036   0.192   5.378  3.8699  1.3827  2.1348
 2907TIP3    H230213   2.130   0.135   5.273  2.1092  1.5873  0.4128
 2908TIP3   OH230214   6.283   4.891  13.961  0.4427 -0.3826  0.2874
 2908TIP3    H130215   6.275   4.890  14.057  4.0418 -1.4306  0.6386
 2908TIP3    H230216   6.304   4.801  13.937 -1.8477 -0.4382 -1.6914
 2909TIP3   OH230217   2.353   3.668   2.747 -0.2251 -0.1873  0.1404
 2909TIP3    H130218   2.303   3.749   2.757 -1.8080 -0.9735 -1.2475
 2909TIP3    H230219   2.315   3.609   2.812 -1.1394 -0.7987 -0.9405
 2910TIP3   OH230220   4.839   6.371  12.123  0.0487 -0.5361 -0.3837
 2910TIP3    H130221   4.769   6.360  12.187  1.1579 -0.6280  0.8477
 2910TIP3    H230222   4.909   6.314  12.154  1.6574  1.5124 -0.1364
 2911TIP3   OH230223   6.116   4.222  13.700 -0.0599 -0.3327 -0.5768
 2911TIP3    H130224   6.125   4.316  13.684  0.3672 -0.0713  1.1012
 2911TIP3    H230225   6.075   4.215  13.786  0.0730 -1.6889 -0.6001
 2912TIP3   OH230226   2.712   3.000   2.378 -0.3117 -0.4884  0.7945
 2912TIP3    H130227   2.661   3.081   2.384  1.7803  0.7546  2.1001
 2912TIP3    H230228   2.762   3.009   2.297  0.2016 -0.2963  1.1301
 2913TIP3   OH230229   0.059   2.851   1.768 -0.2834  0.3453  0.3847
 2913TIP3    H130230   0.046   2.923   1.830 -1.4662  1.8277 -1.5183
 2913TIP3    H230231  -0.001   2.870   1.697  2.3098 -0.3330 -2.0896
 2914TIP3   OH230232   1.034   5.096  14.873 -0.6398 -0.2748  0.6785
 2914TIP3    H130233   1.100   5.052  14.927 -0.7574 -0.6820  0.4950
 2914TIP3    H230234   0.959   5.107  14.931 -0.6169 -0.3382  0.7208
 2915TIP3   OH230235   4.050   0.574  11.800  0.8548 -0.1598 -0.3834
 2915TIP3    H130236   4.091   0.513  11.738  1.0608  0.6666 -1.0693
 2915TIP3    H230237   3.962   0.588  11.765  1.0676  0.5296 -0.6479
 2916TIP3   OH230238   0.860   2.128   4.827 -0.3370 -0.3284 -0.3873
 2916TIP3    H130239   0.915   2.058   4.791 -0.6436  0.7560 -3.1234
 2916TIP3    H230240   0.773   2.089   4.835 -0.0855 -0.8215 -0.0350
 2917TIP3   OH230241   0.886   2.315  13.830  0.0735  0.6203 -0.5214
 2917TIP3    H130242   0.796   2.283  13.839  0.1430  0.9246  1.7553
 2917TIP3    H230243   0.877   2.410  13.829  0.5003  0.7738  2.6531
 2918TIP3   OH230244   0.711   1.221  16.270 -0.5702  0.6877  0.4165
 2918TIP3    H130245   0.686   1.158  16.338 -0.8422  0.0184 -0.2908
 2918TIP3    H230246   0.767   1.170  16.211  0.3160  1.4773  0.5680
 2919TIP3   OH230247   1.312   5.068  12.825 -0.2886  0.1236 -0.6958
 2919TIP3    H130248   1.347   4.982  12.850  0.1746  0.6796  0.5698
 2919TIP3    H230249   1.218   5.052  12.814 -0.4289 -0.2449  0.9328
 2920TIP3   OH230250   5.635   6.559   3.897 -0.3007  0.5580  0.3772
 2920TIP3    H130251   5.568   6.583   3.961 -1.7412 -0.8803 -0.5457
 2920TIP3    H230252   5.632   6.463   3.893  1.6220  0.4830  0.1028
 2921TIP3   OH230253   6.621   3.940  11.570  0.4707 -0.4000 -0.6359
 2921TIP3    H130254   6.699   3.940  11.625  1.0350  0.1093 -1.4351
 2921TIP3    H230255   6.579   4.024  11.588  0.9933  0.0437 -1.4477
 2922TIP3   OH230256   0.971   0.306   3.473 -0.2825 -0.5929  0.1257
 2922TIP3    H130257   0.887   0.264   3.455 -1.4094  1.4020  0.5624
 2922TIP3    H230258   0.984   0.293   3.567  0.0223 -1.1357  0.0069
 2923TIP3   OH230259   0.636   5.694  15.209 -0.6421  0.0505 -0.6556
 2923TIP3    H130260   0.629   5.641  15.288 -0.1593  0.1754 -0.5266
 2923TIP3    H230261   0.714   5.747  15.223 -0.8644  0.4656 -0.9826
 2924TIP3   OH230262   0.321   0.423  13.239  0.1323  0.3521 -0.2165
 2924TIP3    H130263   0.347   0.471  13.318 -0.7971  0.3837  0.0768
 2924TIP3    H230264   0.367   0.467  13.168 -1.1815  2.0857 -0.0279
 2925TIP3   OH230265   0.149   3.667   5.497  0.4598  0.0488 -0.1686
 2925TIP3    H130266   0.103   3.657   5.581 -2.5222  0.1249 -1.7121
 2925TIP3    H230267   0.238   3.692   5.521  0.1711 -1.6905  3.0245
 2926TIP3   OH230268   3.244   3.007   3.224 -0.3130 -0.0657 -0.2334
 2926TIP3    H130269   3.228   3.067   3.297  0.2262  0.1269 -0.2727
 2926TIP3    H230270   3.288   2.932   3.263 -1.6181 -0.7549 -0.0658
 2927TIP3   OH230271   5.564   6.120   6.138  0.7920  0.1330 -0.6792
 2927TIP3    H130272   5.509   6.043   6.145 -0.1596  0.8547 -0.1784
 2927TIP3    H230273   5.654   6.086   6.140  0.4003 -0.8572  0.9001
 2928TIP3   OH230274   5.395   4.361  12.588 -0.0369 -0.3908  0.0197
 2928TIP3    H130275   5.302   4.347  12.603 -0.0326 -1.4383 -0.8872
 2928TIP3    H230276   5.430   4.274  12.572  0.5123  0.3039 -2.8611
 2929TIP3   OH230277   0.861   5.897   2.141 -0.3594  0.2434 -0.2023
 2929TIP3    H130278   0.795   5.947   2.190 -0.3962 -0.7162  0.7396
 2929TIP3    H230279   0.910   5.851   2.208  1.1109  0.7382 -0.9185
 2930TIP3   OH230280   6.376   2.399  16.242 -0.1094  0.4094  0.4356
 2930TIP3    H130281   6.351   2.376  16.152 -0.4120  2.9530 -0.1766
 2930TIP3    H230282   6.445   2.465  16.232 -1.3958  2.0604  2.0232
 2931TIP3   OH230283   5.349   0.345  12.590  0.0005  0.2192 -0.0624
 2931TIP3    H130284   5.265   0.339  12.545 -0.1796 -0.2216  0.3269
 2931TIP3    H230285   5.334   0.302  12.675  1.0991 -1.4118 -0.6673
 2932TIP3   OH230286   0.401   1.115  16.879  0.0982  0.2875  1.0250
 2932TIP3    H130287   0.486   1.145  16.847 -1.1821  3.0227  0.0317
 2932TIP3    H230288   0.362   1.069  16.804 -0.2279  1.0380  0.7299
 2933TIP3   OH230289   0.605   4.533  14.790  0.4142 -0.4050  0.9412
 2933TIP3    H130290   0.539   4.468  14.812  1.4882 -1.6469  0.5528
 2933TIP3    H230291   0.678   4.482  14.753  0.7762  1.1295 -0.5073
 2934TIP3   OH230292   1.035   2.648   5.279  0.1292  0.0841  0.0263
 2934TIP3    H130293   1.021   2.655   5.373  1.4663 -1.3002  0.3484
 2934TIP3    H230294   1.122   2.610   5.270 -1.1448 -2.6198 -1.7183
 2935TIP3   OH230295   5.873   4.943  16.687  0.6079  0.0970  0.5929
 2935TIP3    H130296   5.895   5.004  16.617  2.0762 -1.0292  0.0376
 2935TIP3    H230297   5.780   4.957  16.703 -0.0710 -0.5918 -2.5084
 2936TIP3   OH230298   1.358   1.197   4.657  0.1318 -0.1331  0.2850
 2936TIP3    H130299   1.396   1.192   4.570  1.1211 -0.4203  0.7193
 2936TIP3    H230300   1.368   1.289   4.682 -0.7900  0.0951 -0.1783
 2937TIP3   OH230301   3.646   2.283   0.590 -0.2928 -0.9998  0.4620
 2937TIP3    H130302   3.574   2.331   0.629  0.1238 -0.0567  0.0880
 2937TIP3    H230303   3.635   2.294   0.496 -0.3201 -1.8252  0.3644
 2938TIP3   OH230304   1.799   4.549  17.143 -0.1509 -0.4596  0.1757
 2938TIP3    H130305   1.724   4.571  17.199 -1.3626 -1.0199 -1.2016
 2938TIP3    H230306   1.763   4.550  17.055  1.5383 -0.5232 -0.5176
 2939TIP3   OH230307   3.509   2.307  11.638 -0.4844 -0.5241 -0.1766
 2939TIP3    H130308   3.461   2.386  11.614 -1.2853 -1.2823 -1.1484
 2939TIP3    H230309   3.447   2.257  11.691 -1.2942 -2.1384 -2.5859
 2940TIP3   OH230310   4.423   5.994   0.256 -0.3798  0.3751  0.3526
 2940TIP3    H130311   4.362   6.066   0.271 -0.1713  0.3602  1.2673
 2940TIP3    H230312   4.487   6.002   0.326  1.1148  0.8611 -1.0238
 2941TIP3   OH230313   3.300   5.911  11.678 -0.3374  0.0504 -0.0318
 2941TIP3    H130314   3.255   5.906  11.762  3.1113 -0.6944  1.8480
 2941TIP3    H230315   3.320   6.004  11.668  0.7269 -0.0804  0.8055
 2942TIP3   OH230316   3.874   4.872   2.225  0.6268 -0.8145  0.2587
 2942TIP3    H130317   3.785   4.875   2.189  1.7518  0.1256 -2.5308
 2942TIP3    H230318   3.877   4.789   2.272 -1.8272 -0.7120  0.6734
 2943TIP3   OH230319   6.704   6.782   5.149  0.0603  0.1135  0.0333
 2943TIP3    H130320   6.633   6.800   5.212  1.1140  2.8865  0.4865
 2943TIP3    H230321   6.662   6.790   5.063 -0.2102  1.6928  0.2988
 2944TIP3   OH230322   3.420   0.412   2.912 -0.4676  0.0927 -0.2551
 2944TIP3    H130323   3.337   0.435   2.952 -1.2852 -0.7813 -1.4302
 2944TIP3    H230324   3.429   0.472   2.839  0.0653  0.3662  0.0338
 2945TIP3   OH230325   6.251   4.952   4.875  0.1356  0.0209 -0.5745
 2945TIP3    H130326   6.326   4.908   4.916 -0.0727  0.1357 -0.0632
 2945TIP3    H230327   6.187   4.882   4.862  0.1842 -0.0072 -0.6636
 2946TIP3   OH230328   0.383   3.735   1.265 -0.0383 -0.1974 -0.1887
 2946TIP3    H130329   0.345   3.802   1.322 -1.2556  0.7855 -2.1121
 2946TIP3    H230330   0.309   3.679   1.241 -0.2497  1.3772 -3.4797
 2947TIP3   OH230331   4.315   6.789   1.060  0.2586 -0.0389  0.0573
 2947TIP3    H130332   4.251   6.786   1.132 -0.0464  0.1127 -0.2062
 2947TIP3    H230333   4.393   6.747   1.096  0.2232  0.3477  0.5969
 2948TIP3   OH230334   6.532   6.725  13.499 -0.2476 -0.6962  0.0113
 2948TIP3    H130335   6.549   6.656  13.563  0.7201 -1.1317 -0.6978
 2948TIP3    H230336   6.550   6.684  13.414  3.3946  1.2356 -0.2866
 2949TIP3   OH230337   2.589   2.450  15.171 -0.1854 -0.3293  0.4648
 2949TIP3    H130338   2.671   2.497  15.186  0.1062  0.0078 -2.0315
 2949TIP3    H230339   2.564   2.419  15.258  2.0863  0.3776  1.4286
 2950TIP3   OH230340   0.149   2.451   2.356 -0.1406  0.4520 -0.0406
 2950TIP3    H130341   0.125   2.367   2.316 -1.5015  0.5931  0.4346
 2950TIP3    H230342   0.241   2.441   2.380 -0.4035 -1.0868  0.4209
 2951TIP3   OH230343   0.108   1.519   5.757  0.1994 -0.4109 -0.2775
 2951TIP3    H130344   0.108   1.489   5.666  0.1691 -0.6469 -0.2018
 2951TIP3    H230345   0.050   1.457   5.803 -1.0248  0.6476 -0.3876
 2952TIP3   OH230346   4.047   4.486  16.266 -0.5648 -0.2090 -0.5654
 2952TIP3    H130347   4.130   4.467  16.310 -0.6601  1.5534  0.4377
 2952TIP3    H230348   4.072   4.502  16.175  0.1821  0.0795 -0.3177
 2953TIP3   OH230349   0.708   3.069   5.638  0.1985  0.1023  0.2021
 2953TIP3    H130350   0.708   3.156   5.597 -0.9297  0.2689  0.5377
 2953TIP3    H230351   0.776   3.075   5.705  1.3803  0.1406 -0.9798
 2954TIP3   OH230352   5.057   1.717  12.479 -0.2318 -0.3319 -0.1251
 2954TIP3    H130353   4.963   1.701  12.492 -0.2461  0.8106  1.3766
 2954TIP3    H230354   5.094   1.707  12.567  1.2369 -1.8753 -0.8922
 2955TIP3   OH230355   3.836   5.222  11.357 -0.3513  0.0733  0.6841
 2955TIP3    H130356   3.820   5.259  11.270 -1.0640  1.5712  1.4197
 2955TIP3    H230357   3.924   5.184  11.352  0.5029  2.0973 -0.0669
 2956TIP3   OH230358   3.021   0.771  13.351  0.6567  0.3375  0.5912
 2956TIP3    H130359   3.055   0.795  13.265 -0.2793 -1.3761 -0.2699
 2956TIP3    H230360   3.035   0.677  13.357 -0.1153  0.3024  1.9522
 2957TIP3   OH230361   1.319   0.928  12.601 -0.3244 -0.2226 -0.1603
 2957TIP3    H130362   1.282   0.917  12.513 -2.6660 -0.7583  0.8462
 2957TIP3    H230363   1.392   0.867  12.604 -0.7567 -0.8212 -1.4691
 2958TIP3   OH230364   3.647   3.286  15.041 -0.2243 -0.2819  0.1074
 2958TIP3    H130365   3.716   3.314  14.981  1.2851  1.1740  2.4336
 2958TIP3    H230366   3.684   3.212  15.087  0.2764  1.1857  2.1493
 2959TIP3   OH230367   4.141   2.791   1.496 -0.2681 -0.0922  0.0660
 2959TIP3    H130368   4.207   2.725   1.475 -0.3535 -0.1337 -0.0761
 2959TIP3    H230369   4.132   2.786   1.591  1.0473  0.9886  0.2531
 2960TIP3   OH230370   0.827   6.599  14.899 -0.1263 -0.2249 -0.4059
 2960TIP3    H130371   0.815   6.504  14.907  0.9077 -0.2992  0.4733
 2960TIP3    H230372   0.885   6.609  14.824  0.3685 -0.3510 -0.0485
 2961TIP3   OH230373   4.422   3.991   0.846 -0.3116 -0.1723 -0.8049
 2961TIP3    H130374   4.443   3.899   0.863 -1.6672 -1.1983 -4.2512
 2961TIP3    H230375   4.341   4.007   0.894  0.6893 -0.3439  0.9600
 2962TIP3   OH230376   5.751   3.628  15.257 -0.0938 -0.1437  0.3830
 2962TIP3    H130377   5.726   3.540  15.228 -1.7362  0.0974  1.0269
 2962TIP3    H230378   5.775   3.617  15.349  1.0484 -0.1552  0.0920
 2963TIP3   OH230379   3.493   0.597   0.907 -0.0526  0.2970 -0.0752
 2963TIP3    H130380   3.564   0.639   0.956  0.3176 -2.0408  1.4306
 2963TIP3    H230381   3.414   0.624   0.953 -0.0404  1.5148 -0.7377
 2964TIP3   OH230382   0.827   2.498  14.426 -0.5446 -0.1461 -0.3521
 2964TIP3    H130383   0.736   2.492  14.396 -1.4296 -1.2848  2.4172
 2964TIP3    H230384   0.863   2.411  14.409 -0.2200  0.0508 -0.6754
 2965TIP3   OH230385   3.442   0.879  15.315 -0.1558 -0.1696 -0.0055
 2965TIP3    H130386   3.434   0.972  15.336 -0.5963 -0.5709  1.7389
 2965TIP3    H230387   3.357   0.854  15.279 -0.1162  0.0655 -0.2545
 2966TIP3   OH230388   2.740   1.067  12.742 -0.3755  0.3116 -0.6747
 2966TIP3    H130389   2.771   1.117  12.666 -1.6847  0.7842 -0.9083
 2966TIP3    H230390   2.645   1.067  12.733 -0.4583 -0.8816  0.1898
 2967TIP3   OH230391   2.653   2.932  10.890  0.3077  0.1000  0.3658
 2967TIP3    H130392   2.602   2.852  10.901  0.8771 -0.4732 -1.0692
 2967TIP3    H230393   2.610   2.979  10.819  0.5470  0.6059  0.5529
 2968TIP3   OH230394   2.442   5.277  12.874  0.3894  0.5645  0.4979
 2968TIP3    H130395   2.447   5.286  12.969  1.5423 -0.3815  0.5219
 2968TIP3    H230396   2.415   5.364  12.844 -0.3399  0.7698  1.7087
 2969TIP3   OH230397   1.061   0.610   0.271 -0.6297  0.3191  0.0707
 2969TIP3    H130398   1.116   0.638   0.344  1.5120 -1.7129 -0.6865
 2969TIP3    H230399   1.114   0.626   0.193 -1.2800 -1.2737 -0.7235
 2970TIP3   OH230400   5.687   4.839  15.478 -0.4644  0.1101 -0.4744
 2970TIP3    H130401   5.656   4.769  15.535  1.8221  0.0330  0.7658
 2970TIP3    H230402   5.611   4.864  15.426 -1.8099 -1.9338  0.4565
 2971TIP3   OH230403   5.644   2.159  16.119 -0.9882 -0.2088 -0.1606
 2971TIP3    H130404   5.597   2.164  16.202 -1.5292 -0.5771 -0.4347
 2971TIP3    H230405   5.634   2.247  16.081  0.3457  0.3417  0.7327
 2972TIP3   OH230406   4.260   1.089  11.084  0.3816  0.4125 -0.0043
 2972TIP3    H130407   4.286   0.999  11.069  0.6152  0.6631 -1.0944
 2972TIP3    H230408   4.193   1.083  11.153  0.8085 -0.5308  0.3317
 2973TIP3   OH230409   5.176   5.401  12.326  0.4135  0.8220  0.1861
 2973TIP3    H130410   5.171   5.332  12.260  0.3955  1.1382 -0.1456
 2973TIP3    H230411   5.246   5.459  12.295  0.0760  1.2360  0.1910
 2974TIP3   OH230412   2.768   6.462   0.084  0.3285  0.4160  0.1238
 2974TIP3    H130413   2.758   6.530   0.017  0.6232 -0.7514 -1.1388
 2974TIP3    H230414   2.775   6.381   0.034  0.4029 -0.4961  1.5961
 2975TIP3   OH230415   4.041   6.418   3.905 -0.3978  0.0699 -0.1753
 2975TIP3    H130416   4.100   6.488   3.933  0.0903 -0.1979 -0.5284
 2975TIP3    H230417   4.093   6.338   3.915 -1.3759 -0.3774  1.4378
 2976TIP3   OH230418   3.417   2.020   1.480 -0.4736 -0.3481  0.4430
 2976TIP3    H130419   3.503   2.061   1.468 -1.2088  1.1888  0.2281
 2976TIP3    H230420   3.422   1.939   1.430  1.0054 -0.5007  0.8072
 2977TIP3   OH230421   5.347   3.591   6.540  0.4635  0.0765 -0.2578
 2977TIP3    H130422   5.344   3.683   6.567 -0.1339  0.3915 -1.3205
 2977TIP3    H230423   5.438   3.576   6.515  0.7055  0.1863  0.5425
 2978TIP3   OH230424   4.371   1.707  16.337 -0.3782 -0.1183 -0.1883
 2978TIP3    H130425   4.319   1.649  16.394  1.0311 -1.0247  0.1794
 2978TIP3    H230426   4.423   1.759  16.398  1.8909 -1.7934 -0.6585
 2979TIP3   OH230427   3.764   4.929  11.426  0.1468 -0.4890 -0.0867
 2979TIP3    H130428   3.707   4.861  11.390 -0.8558  0.0700  0.4160
 2979TIP3    H230429   3.824   4.951  11.354 -1.3495  0.0915 -1.1975
 2980TIP3   OH230430   4.945   4.048   4.060  0.2634  0.3186  0.3755
 2980TIP3    H130431   4.967   4.110   4.130 -0.3043  1.5048 -0.4731
 2980TIP3    H230432   4.850   4.051   4.056  0.3080  0.4464 -0.6105
 2981TIP3   OH230433   4.773   0.605   0.124 -0.3784 -0.4226  0.4124
 2981TIP3    H130434   4.815   0.533   0.172  1.4390  1.2554  1.4617
 2981TIP3    H230435   4.743   0.566   0.043 -0.3781 -2.5908  1.4202
 2982TIP3   OH230436   5.248   3.637  15.132  0.3521  0.1981  0.4222
 2982TIP3    H130437   5.184   3.606  15.068  0.7137  0.3344 -0.0085
 2982TIP3    H230438   5.272   3.559  15.182  0.1983  0.0607  0.2809
 2983TIP3   OH230439   5.092   6.549   6.721  0.5668  0.2556  0.8649
 2983TIP3    H130440   5.053   6.461   6.724  1.0752 -0.1280 -2.1408
 2983TIP3    H230441   5.057   6.593   6.798 -1.6460 -1.7961  1.1053
 2984TIP3   OH230442   1.132   6.645  11.440 -0.3116  0.0241 -0.2617
 2984TIP3    H130443   1.192   6.622  11.369 -1.8539 -1.9232 -0.9816
 2984TIP3    H230444   1.154   6.735  11.462  2.5238 -0.4698 -0.8566
 2985TIP3   OH230445   3.448   1.921  12.724 -0.1020  0.6843 -0.5970
 2985TIP3    H130446   3.405   1.911  12.639  0.6027  2.3521 -1.1798
 2985TIP3    H230447   3.395   1.869  12.785 -0.1553 -1.1644 -2.1995
 2986TIP3   OH230448   3.292   5.406  11.157  0.0216  0.3989  0.8566
 2986TIP3    H130449   3.200   5.429  11.147 -0.0113  1.5302  3.4058
 2986TIP3    H230450   3.323   5.462  11.228  2.6534 -0.0655  0.1295
 2987TIP3   OH230451   0.073   4.838  17.237  0.1317 -0.4707  0.0670
 2987TIP3    H130452   0.143   4.898  17.263 -1.3000  0.1749  2.6579
 2987TIP3    H230453   0.021   4.887  17.173  0.9479 -0.2340 -0.4134
 2988TIP3   OH230454   5.522   3.257  15.714 -0.2215  0.6938 -0.0426
 2988TIP3    H130455   5.564   3.177  15.683 -0.5337  0.5883 -0.2003
 2988TIP3    H230456   5.571   3.282  15.793  0.7018  1.0626 -0.7180
 2989TIP3   OH230457   4.659   0.066  11.497  0.2566  0.2762 -0.1590
 2989TIP3    H130458   4.649   0.022  11.412 -0.4140  0.6818 -0.2870
 2989TIP3    H230459   4.644  -0.004  11.561  0.8310 -0.0466 -0.3633
 2990TIP3   OH230460   2.659   0.675  14.310  0.8239 -0.1098 -0.0123
 2990TIP3    H130461   2.569   0.644  14.318  0.6057  0.7691  1.0514
 2990TIP3    H230462   2.651   0.768  14.289  1.4487  0.7057  3.1096
 2991TIP3   OH230463   5.642   5.401  11.651 -0.2344  0.0631  0.1482
 2991TIP3    H130464   5.581   5.381  11.580  1.1027 -0.7000 -0.8090
 2991TIP3    H230465   5.634   5.496  11.663  0.2734  0.3877 -1.7593
 2992TIP3   OH230466   4.016   5.937  14.303 -0.5743 -0.1157 -0.5554
 2992TIP3    H130467   3.928   5.953  14.338 -0.2654 -1.3908  0.8556
 2992TIP3    H230468   4.040   6.019  14.260 -2.7376  0.0257 -1.5970
 2993TIP3   OH230469   6.818   3.842   2.584 -0.0476 -0.1757 -0.1796
 2993TIP3    H130470   6.775   3.922   2.613  0.7641  0.2566 -0.1500
 2993TIP3    H230471   6.886   3.872   2.523 -1.1793 -1.0028 -1.8959
 2994TIP3   OH230472   1.858   6.608  17.079  0.0614 -0.9492 -0.2506
 2994TIP3    H130473   1.934   6.612  17.022  0.4823  1.2988  0.4077
 2994TIP3    H230474   1.788   6.575  17.023  0.8505 -0.3107 -1.6306
 2995TIP3   OH230475   2.874   0.219   5.461  0.8032 -0.0683 -0.6246
 2995TIP3    H130476   2.817   0.235   5.385  0.3108  1.4456  0.0465
 2995TIP3    H230477   2.834   0.145   5.506 -1.1985  1.5552  0.3472
 2996TIP3   OH230478   5.894   4.876  13.260 -0.0458 -0.7182 -0.3964
 2996TIP3    H130479   5.960   4.936  13.296  1.2773 -0.1756 -3.5649
 2996TIP3    H230480   5.822   4.879  13.324  1.5056  1.4086  1.3529
 2997TIP3   OH230481   2.932   3.770  11.243 -0.0128 -0.1983 -0.4451
 2997TIP3    H130482   2.923   3.865  11.248 -0.2707 -0.2735  0.4977
 2997TIP3    H230483   2.955   3.753  11.152 -1.4899  0.6381 -0.9847
 2998TIP3   OH230484   2.970   2.876   5.439 -0.4214  0.0674  0.2510
 2998TIP3    H130485   2.910   2.840   5.505  0.0217 -0.7833  0.1871
 2998TIP3    H230486   2.928   2.857   5.355 -0.7879  0.7967  0.2604
 2999TIP3   OH230487   3.525   1.022  13.790  0.4076 -0.1724  0.0653
 2999TIP3    H130488   3.560   0.944  13.833 -0.0782 -0.7325 -0.5509
 2999TIP3    H230489   3.445   1.043  13.838  0.0752 -0.5649 -0.3208
 3000TIP3   OH230490   0.451   3.097  13.083 -0.0788  0.0901 -0.4147
 3000TIP3    H130491   0.391   3.116  13.010  0.1609 -0.3511 -0.7331
 3000TIP3    H230492   0.414   3.018  13.123 -1.7103  1.8140  1.6015
 3001TIP3   OH230493   4.587   6.309   1.622  0.1750 -0.2075  0.0783
 3001TIP3    H130494   4.669   6.269   1.595 -0.3462 -1.3715  0.1893
 3001TIP3    H230495   4.568   6.270   1.707  0.2904  1.2191  0.7855
 3002TIP3   OH230496   3.957   5.134  14.456  0.0869  0.3463  0.0176
 3002TIP3    H130497   3.978   5.227  14.448 -0.8799  0.6711  1.0899
 3002TIP3    H230498   4.027   5.090  14.409  0.9749  1.5830  0.1468
 3003TIP3   OH230499   5.209   2.486   3.014 -0.2645  0.3218  0.1979
 3003TIP3    H130500   5.157   2.561   2.985  1.8851  1.4975 -0.7489
 3003TIP3    H230501   5.285   2.525   3.059  1.1259 -1.2413 -0.7297
 3004TIP3   OH230502   6.622   5.415   0.791  0.9999 -0.5018 -0.1077
 3004TIP3    H130503   6.699   5.459   0.826  0.7337 -1.4120  1.6578
 3004TIP3    H230504   6.657   5.334   0.752  1.2710  0.4193 -1.8140
 3005TIP3   OH230505   6.417   5.556   4.090 -0.5005  0.1313 -0.2869
 3005TIP3    H130506   6.357   5.510   4.032 -0.1915 -0.3379 -0.2366
 3005TIP3    H230507   6.430   5.641   4.049 -0.5832 -0.0577 -0.7052
 3006TIP3   OH230508   2.892   4.370   0.166  0.1340 -0.3718  0.2834
 3006TIP3    H130509   2.886   4.466   0.160 -1.4327 -0.4906 -0.0078
 3006TIP3    H230510   2.833   4.338   0.098  0.5949 -1.5589  0.4372
 3007TIP3   OH230511   2.014   4.351  16.381  0.7799  0.0057  0.0689
 3007TIP3    H130512   1.976   4.437  16.398 -1.0993 -1.3175  2.9051
 3007TIP3    H230513   2.070   4.335  16.457  2.3208 -0.6525 -1.1852
 3008TIP3   OH230514   6.576   5.476  15.026  0.0098  0.0429  0.3417
 3008TIP3    H130515   6.567   5.480  15.121 -2.4024 -0.1444  0.1421
 3008TIP3    H230516   6.489   5.452  14.994  1.2774 -1.9607 -1.7878
 3009TIP3   OH230517   2.526   0.340  13.838  0.2515  0.6596 -0.6954
 3009TIP3    H130518   2.572   0.277  13.893  0.9832  0.9855 -0.9279
 3009TIP3    H230519   2.584   0.416  13.835 -0.2562  1.0351 -1.0748
 3010TIP3   OH230520   2.800   0.449  13.008  0.1782  0.5792  0.4240
 3010TIP3    H130521   2.895   0.455  13.015  0.4274 -1.9174 -0.3592
 3010TIP3    H230522   2.775   0.381  13.070 -0.9278  0.0532 -0.5774
 3011TIP3   OH230523   3.198   4.371   5.630 -0.2467 -0.7667  0.1815
 3011TIP3    H130524   3.103   4.365   5.641 -0.2809 -0.2865  0.1706
 3011TIP3    H230525   3.209   4.418   5.546 -0.0040 -0.3959  0.4183
 3012TIP3   OH230526   1.934   5.946  14.258 -0.1886 -0.2125 -0.5243
 3012TIP3    H130527   2.003   5.908  14.311  1.6383  1.1741 -1.8422
 3012TIP3    H230528   1.864   5.881  14.260  1.1897 -1.7021  0.7416
 3013TIP3   OH230529   2.691   6.545  12.037  0.1305  0.6499 -0.5489
 3013TIP3    H130530   2.751   6.598  12.090  2.0040  0.6960 -2.6209
 3013TIP3    H230531   2.741   6.466  12.016 -1.2450 -0.1915 -0.6926
 3014TIP3   OH230532   6.048   0.173  14.763 -0.0238  0.7410 -0.3667
 3014TIP3    H130533   5.984   0.109  14.733 -0.1495  1.1483 -0.9651
 3014TIP3    H230534   6.005   0.217  14.837 -0.0261  0.2984 -0.1015
 3015TIP3   OH230535   5.439   0.577  16.723 -0.2621 -0.3071 -0.3813
 3015TIP3    H130536   5.385   0.644  16.764 -0.6109 -1.1091  0.4956
 3015TIP3    H230537   5.487   0.623  16.654  0.5345  1.1289  1.0991
 3016TIP3   OH230538   5.768   5.425  12.594  0.4803 -0.3443  0.2523
 3016TIP3    H130539   5.743   5.460  12.680 -0.7346 -0.9989  0.1787
 3016TIP3    H230540   5.731   5.336  12.593 -0.9203  0.2352 -1.5757
 3017TIP3   OH230541   3.765   5.480  12.445  0.0098 -0.0898  0.0367
 3017TIP3    H130542   3.687   5.496  12.392 -1.1583  0.3711  1.8489
 3017TIP3    H230543   3.828   5.442  12.384 -0.6325  2.1651 -2.0971
 3018TIP3   OH230544   4.318   1.277  14.014  1.0518  0.5362 -0.0882
 3018TIP3    H130545   4.278   1.234  13.938  0.6236  1.4875 -0.4196
 3018TIP3    H230546   4.250   1.338  14.044  1.9367  1.5559 -0.1398
 3019TIP3   OH230547   6.491   4.780   4.961  0.6061  0.0130  0.8918
 3019TIP3    H130548   6.558   4.813   4.901 -1.2486  0.2193 -1.1205
 3019TIP3    H230549   6.541   4.751   5.038  3.1518 -1.3817 -1.1904
 3020TIP3   OH230550   1.047   2.605  12.604 -0.2212 -0.0172  0.3159
 3020TIP3    H130551   1.010   2.525  12.641 -0.9335  0.5580  0.8446
 3020TIP3    H230552   1.118   2.574  12.546  2.0624 -0.8735  3.4377
 3021TIP3   OH230553   1.598   4.915   4.183 -0.1089 -0.6386 -0.0261
 3021TIP3    H130554   1.526   4.853   4.177 -1.7014  1.0820  0.8816
 3021TIP3    H230555   1.607   4.933   4.277 -0.1154  1.0020 -0.3213
 3022TIP3   OH230556   2.693   2.610  16.281  0.6470 -0.4388 -0.0255
 3022TIP3    H130557   2.766   2.652  16.234 -0.0295  0.0837 -0.6269
 3022TIP3    H230558   2.616   2.659  16.253  0.1697 -0.4243  1.2922
 3023TIP3   OH230559   5.706   4.275   6.180 -0.0301 -0.2814  0.3023
 3023TIP3    H130560   5.744   4.187   6.179 -0.3161 -0.4053  0.6661
 3023TIP3    H230561   5.666   4.283   6.266 -1.6877 -0.4999 -0.4419
 3024TIP3   OH230562   3.268   0.826  11.923 -0.8017 -0.4695  0.3455
 3024TIP3    H130563   3.292   0.762  11.856  2.1061  0.9466 -0.0494
 3024TIP3    H230564   3.233   0.900  11.874  1.3099  0.5598  0.3511
 3025TIP3   OH230565   4.295   0.429  15.673 -0.1963  0.2558 -0.0596
 3025TIP3    H130566   4.238   0.497  15.709 -1.2090 -0.7729  0.2835
 3025TIP3    H230567   4.368   0.478  15.634  0.4743  1.4195  2.5551
 3026TIP3   OH230568   0.405   6.553  13.234 -0.3048 -0.5912 -0.1758
 3026TIP3    H130569   0.472   6.619  13.218 -0.5422 -0.5974 -1.1925
 3026TIP3    H230570   0.448   6.487  13.289  0.0872  0.1357  0.3952
 3027TIP3   OH230571   3.971   2.930   4.237 -0.3051 -0.4877  0.0168
 3027TIP3    H130572   3.949   3.014   4.276 -1.1109 -1.0406  0.7887
 3027TIP3    H230573   4.014   2.951   4.155 -1.6366  0.6592 -0.3925
 3028TIP3   OH230574   4.577   0.843  14.232 -0.7511  0.4898 -0.1432
 3028TIP3    H130575   4.670   0.842  14.254 -0.7478 -2.4397 -0.0734
 3028TIP3    H230576   4.565   0.923  14.181  1.7540  1.0413  0.0761
 3029TIP3   OH230577   6.343   0.662  14.821 -0.4528 -0.1065 -0.1838
 3029TIP3    H130578   6.303   0.704  14.744  0.8925 -1.0336 -1.4174
 3029TIP3    H230579   6.320   0.570  14.813 -0.8811 -0.1018  0.9139
 3030TIP3   OH230580   5.028   4.691  10.304 -0.3539  0.3905 -0.2144
 3030TIP3    H130581   5.119   4.687  10.334 -0.8088 -0.9801  1.0237
 3030TIP3    H230582   5.005   4.784  10.310  0.9001  0.7174 -0.3399
 3031TIP3   OH230583   5.920   1.053  16.699 -0.1347  0.0418 -0.3381
 3031TIP3    H130584   5.946   0.979  16.645  1.6304 -0.3269  0.9479
 3031TIP3    H230585   5.954   1.130  16.653 -2.4985  0.1523 -1.9916
 3032TIP3   OH230586   2.993   4.707   5.767  0.3058 -0.3521  0.5344
 3032TIP3    H130587   2.944   4.700   5.849  0.6267 -0.0325  0.7546
 3032TIP3    H230588   3.020   4.618   5.747 -0.9927 -0.6380  0.0286
 3033TIP3   OH230589   5.571   6.604  14.445 -0.4140  0.3697  0.3078
 3033TIP3    H130590   5.537   6.528  14.492 -1.0173  0.5916  0.2264
 3033TIP3    H230591   5.666   6.591  14.444 -0.4985 -0.2565  0.5092
 3034TIP3   OH230592   0.657   5.902   3.733  0.2465 -0.1129 -0.0171
 3034TIP3    H130593   0.613   5.852   3.664 -0.0460 -1.9062  1.4031
 3034TIP3    H230594   0.720   5.957   3.687 -0.5334 -0.6467 -1.7685
 3035TIP3   OH230595   5.546   2.163  16.912 -0.0099 -0.2832  0.0521
 3035TIP3    H130596   5.451   2.165  16.901  0.1082  1.2840 -0.9322
 3035TIP3    H230597   5.581   2.201  16.831  1.2367  3.4866  2.2046
 3036TIP3   OH230598   5.862   0.964   4.982 -0.2561  0.3937 -0.2937
 3036TIP3    H130599   5.772   0.939   4.998 -0.1041 -0.7458 -1.1110
 3036TIP3    H230600   5.914   0.891   5.015  0.3650  1.0201  0.1344
 3037TIP3   OH230601   2.159   4.554   2.902 -0.0280 -0.5160  0.2302
 3037TIP3    H130602   2.071   4.543   2.936 -0.0522 -1.9281 -0.2663
 3037TIP3    H230603   2.156   4.637   2.854 -1.8348 -1.8306 -2.0222
 3038TIP3   OH230604   3.394   2.321  16.714  0.4868  0.2299  0.2422
 3038TIP3    H130605   3.374   2.292  16.803 -1.1918  1.2709  0.2307
 3038TIP3    H230606   3.325   2.283  16.660  1.2525 -0.0437 -0.5596
 3039TIP3   OH230607   3.653   2.115  14.580 -0.0722 -0.0547  0.2021
 3039TIP3    H130608   3.722   2.141  14.519  0.3568  1.8662  1.4495
 3039TIP3    H230609   3.572   2.124  14.531  0.3219  0.7890 -0.2939
 3040TIP3   OH230610   3.277   3.969  13.280 -0.1399  0.3264  0.3853
 3040TIP3    H130611   3.187   3.998  13.294 -0.7462 -1.7314  0.8039
 3040TIP3    H230612   3.270   3.877  13.258  1.6611  0.8406 -2.5334
 3041TIP3   OH230613   6.252   4.048  16.849  0.9474 -0.3069  0.2453
 3041TIP3    H130614   6.163   4.083  16.841  1.4400  1.1995  1.1811
 3041TIP3    H230615   6.281   4.038  16.758  0.4353  0.8279 -0.0536
 3042TIP3   OH230616   4.394   6.308   3.107  0.1696 -0.5567  0.1090
 3042TIP3    H130617   4.365   6.385   3.156 -0.3941 -0.2879 -0.6334
 3042TIP3    H230618   4.319   6.249   3.110 -0.1402 -0.2422 -1.0331
 3043TIP3   OH230619   3.415   3.024  17.202 -0.1915  0.3006  0.3047
 3043TIP3    H130620   3.379   2.957  17.259 -0.3696 -0.5314 -0.7705
 3043TIP3    H230621   3.504   2.994  17.183  0.4522  1.4254  1.4953
 3044TIP3   OH230622   1.354   2.614  14.783 -0.1026 -0.3452  0.3993
 3044TIP3    H130623   1.431   2.594  14.730 -0.3886 -1.7317  0.4926
 3044TIP3    H230624   1.288   2.640  14.719  0.2238  0.1439  0.2563
 3045TIP3   OH230625   6.419   2.426   1.387  0.0693 -0.5477 -0.0989
 3045TIP3    H130626   6.505   2.463   1.368  0.1485 -0.5540  0.2443
 3045TIP3    H230627   6.434   2.367   1.460 -0.3181 -0.1591  0.2973
 3046TIP3   OH230628   5.440   3.206  13.290  0.4193 -0.0043  0.5465
 3046TIP3    H130629   5.439   3.208  13.195 -1.5073  0.1790  0.5504
 3046TIP3    H230630   5.505   3.272  13.315 -1.0257  1.9052 -0.6084
 3047TIP3   OH230631   3.325   5.225   2.116 -0.0492 -0.0602 -0.0399
 3047TIP3    H130632   3.281   5.270   2.044 -2.2432  0.4991  1.5944
 3047TIP3    H230633   3.317   5.132   2.094 -0.0988  0.1367 -0.8674
 3048TIP3   OH230634   5.706   4.657  14.646  0.0336 -0.0363  0.4300
 3048TIP3    H130635   5.668   4.667  14.733 -0.8933 -1.2132  0.1765
 3048TIP3    H230636   5.630   4.658  14.587  0.6366  0.5311 -0.3444
 3049TIP3   OH230637   3.561   1.330  14.446 -0.6769  0.0149  0.3874
 3049TIP3    H130638   3.529   1.387  14.516 -1.0670  0.5244 -0.1944
 3049TIP3    H230639   3.656   1.330  14.455 -0.8848 -2.7932  3.1472
 3050TIP3   OH230640   3.052   1.218   0.080 -0.8167 -0.3115 -0.0408
 3050TIP3    H130641   3.013   1.136   0.109 -0.1228 -0.3213  0.8693
 3050TIP3    H230642   3.142   1.215   0.111 -0.3421  0.1336 -1.3081
 3051TIP3   OH230643   2.946   2.142   3.091  0.1711 -0.6067 -0.0736
 3051TIP3    H130644   2.955   2.221   3.038  0.3855 -1.2200 -0.9647
 3051TIP3    H230645   3.026   2.137   3.142 -0.5901  0.6822  1.2712
 3052TIP3   OH230646   5.107   1.841  11.826 -0.1182  0.0461  0.3203
 3052TIP3    H130647   5.025   1.793  11.816 -0.1947 -0.0188  1.1951
 3052TIP3    H230648   5.082   1.933  11.816 -0.1778 -0.0157 -0.1108
 3053TIP3   OH230649   3.016   4.028   0.109  0.3456  0.4263  0.4012
 3053TIP3    H130650   2.942   4.073   0.068 -0.2724  0.7260  1.8143
 3053TIP3    H230651   3.093   4.066   0.068 -0.2701 -0.3705 -1.5966
 3054TIP3   OH230652   3.525   3.373  11.017 -0.0954 -0.1616  0.0711
 3054TIP3    H130653   3.606   3.367  10.966  0.5379 -0.8978  1.1305
 3054TIP3    H230654   3.457   3.339  10.959  0.1393  1.6609 -1.2820
 3055TIP3   OH230655   5.927   3.145   1.646  0.1204  0.2343 -0.7430
 3055TIP3    H130656   5.921   3.237   1.620  1.4105  0.2235 -1.0853
 3055TIP3    H230657   6.020   3.124   1.639 -0.0430 -0.8416  0.2184
 3056TIP3   OH230658   0.663   6.424   3.878 -0.1636 -0.1229  0.0112
 3056TIP3    H130659   0.585   6.425   3.823  0.1359  0.2958 -0.4147
 3056TIP3    H230660   0.728   6.376   3.827 -0.2826 -0.8856  0.5659
 3057TIP3   OH230661   0.609   2.679   3.912  0.2749  0.3095  0.1371
 3057TIP3    H130662   0.698   2.663   3.882  0.2449 -0.4700  0.4637
 3057TIP3    H230663   0.598   2.621   3.987 -0.2424  0.9718  0.5856
 3058TIP3   OH230664   0.173   0.196   4.062  0.1613  0.2335 -0.4087
 3058TIP3    H130665   0.112   0.137   4.018 -0.1550  0.4785 -0.2964
 3058TIP3    H230666   0.175   0.166   4.153 -0.2135  0.5758 -0.2902
 3059TIP3   OH230667   6.388   4.747  15.543  0.0866  0.6100  1.0934
 3059TIP3    H130668   6.359   4.696  15.619 -0.4249  0.0783  0.5489
 3059TIP3    H230669   6.465   4.794  15.573 -0.4060  0.7922  2.0951
 3060TIP3   OH230670   3.692   0.738   4.981 -0.3196  0.3180  0.1785
 3060TIP3    H130671   3.610   0.739   4.931 -1.1236  0.0839  1.4804
 3060TIP3    H230672   3.681   0.805   5.048  0.1973 -0.3268  0.9153
 3061TIP3   OH230673   3.722   4.091   5.215  0.1585 -0.0490 -0.2841
 3061TIP3    H130674   3.785   4.110   5.146  0.4005  0.4866  0.0769
 3061TIP3    H230675   3.764   4.023   5.268  1.4539  1.9003  1.2841
 3062TIP3   OH230676   1.427   4.762   3.895 -0.0912  0.7309  0.1725
 3062TIP3    H130677   1.413   4.703   3.969  2.3136  1.4258  1.2414
 3062TIP3    H230678   1.432   4.849   3.935 -1.2408  1.4016 -1.1111
 3063TIP3   OH230679   4.278   4.858   1.338  0.1243 -0.0878  0.8323
 3063TIP3    H130680   4.327   4.939   1.321  0.3284 -0.3281  0.2382
 3063TIP3    H230681   4.186   4.884   1.333  0.1366 -0.4774 -2.4955
 3064TIP3   OH230682   5.192   2.387  12.964  0.1204  0.0543  0.1068
 3064TIP3    H130683   5.166   2.431  13.045  1.5713 -0.1489  0.7040
 3064TIP3    H230684   5.288   2.389  12.965  0.1872 -1.4739 -0.7586
 3065TIP3   OH230685   0.749   4.527   1.174  0.2799  0.3551 -0.2625
 3065TIP3    H130686   0.690   4.526   1.249  2.4165  4.1269  1.5937
 3065TIP3    H230687   0.824   4.474   1.202  0.9537  1.5326  0.1831
 3066TIP3   OH230688   6.507   5.675   3.063  0.0463  0.0371  0.8019
 3066TIP3    H130689   6.450   5.665   3.140 -1.2528  0.2465 -0.1153
 3066TIP3    H230690   6.467   5.619   2.997  1.4496 -0.5279  0.4282
 3067TIP3   OH230691   6.487   6.778  15.167  0.1025  0.0233 -0.5785
 3067TIP3    H130692   6.540   6.702  15.189 -0.9058 -0.7405 -0.8024
 3067TIP3    H230693   6.513   6.801  15.078  1.6248  0.9806  0.0850
 3068TIP3   OH230694   6.260   3.447   5.218  0.1225 -0.4352  0.0607
 3068TIP3    H130695   6.264   3.434   5.123 -2.7643 -2.0775  0.0988
 3068TIP3    H230696   6.195   3.516   5.230 -0.2564 -0.9201  0.8678
 3069TIP3   OH230697   0.976   4.545   3.086 -0.5202  0.3575 -0.0872
 3069TIP3    H130698   0.991   4.552   3.180 -1.1371  1.0539 -0.0361
 3069TIP3    H230699   0.895   4.494   3.079 -1.7553  2.2813 -0.1624
 3070TIP3   OH230700   0.037   0.246   1.646 -0.4314 -0.2381  0.2843
 3070TIP3    H130701  -0.041   0.240   1.591  0.1995 -3.3833 -0.3191
 3070TIP3    H230702   0.004   0.233   1.735 -0.8773  0.7437  0.2745
 3071TIP3   OH230703   2.200   1.439   1.741 -0.4090  0.5094  0.5671
 3071TIP3    H130704   2.174   1.355   1.779  0.8211 -0.0527  0.2026
 3071TIP3    H230705   2.142   1.449   1.665 -0.7426  0.1106  0.7651
 3072TIP3   OH230706   1.991   3.760   0.044  0.2213  0.3111 -0.2983
 3072TIP3    H130707   1.935   3.795  -0.026 -0.9715  0.9767  0.9614
 3072TIP3    H230708   1.964   3.808   0.123  1.4815 -0.4915  0.6412
 3073TIP3   OH230709   6.131   4.894   3.299 -0.3528  0.1364  0.1976
 3073TIP3    H130710   6.166   4.938   3.376 -0.0215 -0.4577  0.3947
 3073TIP3    H230711   6.133   4.801   3.322  0.0535 -0.0690 -0.6540
 3074TIP3   OH230712   4.591   2.634   3.013 -0.3992  1.0001  0.2288
 3074TIP3    H130713   4.530   2.658   3.083  0.7313  1.7581  0.9827
 3074TIP3    H230714   4.536   2.605   2.941 -1.5618 -0.8777  1.8413
 3075TIP3   OH230715   2.010   6.131   0.466  0.0022 -0.0921  0.3019
 3075TIP3    H130716   2.039   6.123   0.375  0.7966  0.0669  0.5357
 3075TIP3    H230717   2.073   6.191   0.506 -1.0817  0.8338  0.6400
 3076TIP3   OH230718   6.549   2.654  17.067 -0.1997  0.2235  0.0629
 3076TIP3    H130719   6.478   2.606  17.026 -0.8537  0.4470  0.9194
 3076TIP3    H230720   6.522   2.664  17.159  1.0797  0.0242  0.4718
 3077TIP3   OH230721   3.066   3.512   2.160 -0.4737 -0.0777 -0.2852
 3077TIP3    H130722   3.032   3.600   2.176 -1.2199 -0.7765  2.2359
 3077TIP3    H230723   3.150   3.526   2.116  0.1701  1.9799  1.5151
 3078TIP3   OH230724   6.438   6.700  14.321 -0.5260 -0.0226 -0.0799
 3078TIP3    H130725   6.469   6.765  14.258 -0.3578 -0.3229 -0.3107
 3078TIP3    H230726   6.499   6.627  14.311 -1.1640 -0.5266 -0.3685
 3079TIP3   OH230727   1.125   2.342  16.826  0.1879  0.2775  0.1764
 3079TIP3    H130728   1.173   2.271  16.870  0.7177 -0.1508 -1.0603
 3079TIP3    H230729   1.166   2.347  16.740 -0.5409  1.4101 -0.0950
 3080TIP3   OH230730   6.024   1.936  10.900 -0.0378 -0.4355  0.2215
 3080TIP3    H130731   6.079   1.908  10.827  1.0126  1.0531  0.4061
 3080TIP3    H230732   6.059   1.889  10.976  0.0761 -0.5629  0.0893
 3081TIP3   OH230733   6.335   1.679  15.467  0.3935  0.5225 -0.5794
 3081TIP3    H130734   6.274   1.605  15.472  0.8226  0.1950 -0.1845
 3081TIP3    H230735   6.306   1.739  15.536  0.3220  0.5181 -0.6047
 3082TIP3   OH230736   1.398   1.505   4.701 -0.2573  0.0507 -0.1279
 3082TIP3    H130737   1.369   1.458   4.779 -1.7521 -1.1912 -1.4028
 3082TIP3    H230738   1.386   1.597   4.722 -2.0618 -0.3254  0.5931
 3083TIP3   OH230739   0.786   6.657  11.790  0.0799  0.5846  0.4263
 3083TIP3    H130740   0.766   6.576  11.744 -1.7618 -0.1417  2.4380
 3083TIP3    H230741   0.846   6.704  11.732 -0.0792 -1.5005 -1.4541
 3084TIP3   OH230742   0.098   5.301   5.490  0.5635  0.1178  0.6809
 3084TIP3    H130743   0.182   5.286   5.447  1.2732 -1.0034  2.4214
 3084TIP3    H230744   0.117   5.366   5.558 -0.1688  0.5353  0.4961
 3085TIP3   OH230745   3.622   1.913  14.762 -0.2846  0.0451  0.3446
 3085TIP3    H130746   3.579   1.978  14.818  0.7003 -0.2655  1.5011
 3085TIP3    H230747   3.674   1.964  14.701 -2.9177  0.4631 -1.6565
 3086TIP3   OH230748   6.341   5.252  11.266  0.1453 -0.3330  0.4212
 3086TIP3    H130749   6.269   5.258  11.328  1.1651 -0.8934  1.7103
 3086TIP3    H230750   6.333   5.329  11.210 -0.0412  0.8901  2.1056
 3087TIP3   OH230751   5.905   1.551  15.083 -0.6973 -0.0023 -0.1976
 3087TIP3    H130752   5.823   1.581  15.044 -1.0859 -2.2758 -1.2075
 3087TIP3    H230753   5.973   1.589  15.026 -0.9001  3.2637  1.5964
 3088TIP3   OH230754   2.743   3.462   1.194 -0.2945 -0.5393  0.6168
 3088TIP3    H130755   2.710   3.543   1.232  0.8687 -0.6219  1.8750
 3088TIP3    H230756   2.817   3.438   1.250 -0.3183 -2.2114 -0.0267
 3089TIP3   OH230757   3.115   0.935  15.502 -0.7263  0.2792  0.5155
 3089TIP3    H130758   3.096   0.952  15.410  0.8880  1.4811  0.3616
 3089TIP3    H230759   3.170   1.009  15.529 -0.1564 -0.6788  2.1017
 3090TIP3   OH230760   0.265   0.560  13.000  0.5212 -0.3717 -0.1295
 3090TIP3    H130761   0.188   0.504  12.998  1.5204 -1.7481 -0.1852
 3090TIP3    H230762   0.229   0.648  13.014 -1.0528 -0.9936 -0.1155
 3091TIP3   OH230763   6.357   0.886  15.527  0.4883  0.1229 -1.1038
 3091TIP3    H130764   6.417   0.906  15.455  1.3936  0.1895 -0.3476
 3091TIP3    H230765   6.401   0.920  15.605 -1.2077  1.5188 -0.7024
 3092TIP3   OH230766   4.413   5.438   1.555 -0.2404  0.2368 -0.2899
 3092TIP3    H130767   4.492   5.487   1.535 -1.5790  1.8170 -1.9530
 3092TIP3    H230768   4.361   5.497   1.610 -1.2978  0.2137 -1.2296
 3093TIP3   OH230769   0.482   3.199   0.928  0.1826  0.4308  0.6658
 3093TIP3    H130770   0.563   3.230   0.888  0.6451 -2.0553 -0.4471
 3093TIP3    H230771   0.505   3.182   1.019  0.9624 -0.3991  0.3169
 3094TIP3   OH230772   5.582   0.982   2.365 -0.3541  0.2966 -0.3976
 3094TIP3    H130773   5.677   0.973   2.361 -0.0324  0.5189  4.0976
 3094TIP3    H230774   5.549   0.895   2.345  0.9051 -0.2665 -0.0788
 3095TIP3   OH230775   0.087   1.001  11.654  0.3202 -0.1976  0.4446
 3095TIP3    H130776   0.047   0.936  11.596  1.6714 -0.7578  0.1284
 3095TIP3    H230777   0.178   1.006  11.625  0.3776  1.3689  0.8913
 3096TIP3   OH230778   6.422   4.339   0.359 -0.0174  0.4912 -0.1844
 3096TIP3    H130779   6.330   4.317   0.345  0.2145 -2.0635  1.9986
 3096TIP3    H230780   6.423   4.388   0.441  0.5343  0.7598 -0.3455
 3097TIP3   OH230781   6.279   2.173  12.287  0.4734  0.7924 -0.2767
 3097TIP3    H130782   6.254   2.090  12.329  1.6413  0.5084 -0.1290
 3097TIP3    H230783   6.342   2.147  12.220  1.3443  1.6452  0.2183
 3098TIP3   OH230784   5.985   6.760   2.068 -0.2687 -0.1125  0.1754
 3098TIP3    H130785   6.068   6.714   2.054 -0.6055 -1.0055  1.0893
 3098TIP3    H230786   5.919   6.691   2.068 -0.8083  0.3969  1.2599
 3099TIP3   OH230787   3.107   5.604  11.170 -0.3686 -0.6755 -0.3103
 3099TIP3    H130788   3.184   5.649  11.134 -0.6324  0.0120 -0.0301
 3099TIP3    H230789   3.039   5.619  11.104 -0.8482  0.5714  0.4412
 3100TIP3   OH230790   1.704   1.345  15.178  0.2871 -0.8193  0.0867
 3100TIP3    H130791   1.638   1.339  15.247  0.4429 -0.6592  0.2531
 3100TIP3    H230792   1.731   1.255  15.162 -0.7818 -0.9877 -0.7754
 3101TIP3   OH230793   2.111   4.068   4.506 -0.1626  0.2130  0.4166
 3101TIP3    H130794   2.051   4.124   4.554 -2.4614 -0.4746 -1.5427
 3101TIP3    H230795   2.110   3.985   4.554 -2.7674 -0.6072 -0.9764
 3102TIP3   OH230796   2.964   1.895   1.822  0.3230  0.3201  0.8354
 3102TIP3    H130797   2.940   1.843   1.898  3.0335  0.5967  1.9429
 3102TIP3    H230798   3.060   1.893   1.821  0.3829  2.1560 -1.2817
 3103TIP3   OH230799   4.085   1.026   2.006 -0.0687  0.4006 -0.7144
 3103TIP3    H130800   4.029   1.096   1.973 -3.6367 -1.4854  1.1419
 3103TIP3    H230801   4.088   0.962   1.934  0.2296  0.7794 -1.0424
 3104TIP3   OH230802   3.427   3.517   5.682  0.0667 -0.5033 -0.4637
 3104TIP3    H130803   3.440   3.499   5.589 -0.9452 -2.5511 -0.2226
 3104TIP3    H230804   3.342   3.478   5.703  0.4380 -0.3690  1.4162
 3105TIP3   OH230805   3.874   4.877   4.556  0.1286  0.7734  0.5783
 3105TIP3    H130806   3.827   4.799   4.587  0.7321  1.1110  2.4455
 3105TIP3    H230807   3.823   4.951   4.590  1.7794  1.1439  2.3572
 3106TIP3   OH230808   0.155   6.731  14.340  0.2329 -0.6341  0.8477
 3106TIP3    H130809   0.131   6.777  14.421  0.4835 -0.7255  0.9718
 3106TIP3    H230810   0.250   6.721  14.345  0.2030 -0.9972  0.7319
 3107TIP3   OH230811   2.191   0.621   5.986 -0.7392  0.2140 -0.1171
 3107TIP3    H130812   2.279   0.609   5.949  0.3145  0.6846  2.1790
 3107TIP3    H230813   2.191   0.568   6.066 -2.5872  0.1654 -0.1225
 3108TIP3   OH230814   0.834   5.056   5.026 -0.0060  0.2658  0.3958
 3108TIP3    H130815   0.877   4.989   5.080 -1.2120  0.2258  1.3501
 3108TIP3    H230816   0.874   5.138   5.053  0.9482  0.0114 -0.2354
 3109TIP3   OH230817   5.719   5.372   5.614 -0.2127  0.0430  0.1616
 3109TIP3    H130818   5.669   5.419   5.681  2.1747 -0.2606  2.2075
 3109TIP3    H230819   5.763   5.441   5.565 -0.7063  0.1841 -0.0912
 3110TIP3   OH230820   6.464   1.611  14.558  0.5456  0.0305 -0.2954
 3110TIP3    H130821   6.410   1.608  14.637 -0.5640  0.0632 -1.0318
 3110TIP3    H230822   6.485   1.704  14.547 -0.2418  0.1733 -0.6513
 3111TIP3   OH230823   6.353   5.270   2.721  0.1762  0.4449  0.5786
 3111TIP3    H130824   6.321   5.286   2.632  1.6701  1.2861  0.1810
 3111TIP3    H230825   6.326   5.180   2.741  0.4426  0.0061 -0.9935
 3112TIP3   OH230826   2.410   5.093   1.937  0.1827  0.5980  0.1065
 3112TIP3    H130827   2.394   5.071   1.845 -0.1028 -1.7254  0.6825
 3112TIP3    H230828   2.504   5.080   1.949 -0.0377 -0.7007  0.5276
 3113TIP3   OH230829   4.821   0.557  11.359  0.0033 -0.5414 -0.1824
 3113TIP3    H130830   4.760   0.504  11.409  1.3662  1.3651  3.7793
 3113TIP3    H230831   4.903   0.554  11.409  1.2599  2.0319 -1.9125
 3114TIP3   OH230832   3.829   2.922  14.713 -0.2605  0.3647 -0.2299
 3114TIP3    H130833   3.755   2.877  14.674 -0.2584  0.6888 -0.6056
 3114TIP3    H230834   3.893   2.853  14.730 -1.0471 -0.0792  1.0497
 3115TIP3   OH230835   3.246   6.674  12.929 -0.3523  0.3096  0.3279
 3115TIP3    H130836   3.333   6.650  12.959 -1.4303 -0.2138  3.2470
 3115TIP3    H230837   3.245   6.770  12.933 -0.2334  0.2779  1.3225
 3116TIP3   OH230838   4.799   1.313   2.200 -0.0712  0.7961  0.3551
 3116TIP3    H130839   4.873   1.254   2.184 -0.0591  0.8211  0.3186
 3116TIP3    H230840   4.722   1.258   2.191 -0.1240  1.1036 -1.2154
 3117TIP3   OH230841   5.355   1.193  15.998  0.7538  0.1800  0.2949
 3117TIP3    H130842   5.422   1.259  16.014  0.0604  0.6980  1.0916
 3117TIP3    H230843   5.290   1.208  16.066 -0.8123  0.4943 -1.2327
 3118TIP3   OH230844   4.419   0.035   4.375 -0.2889  0.4152  0.4692
 3118TIP3    H130845   4.427   0.106   4.439  3.3234  0.3188  0.2448
 3118TIP3    H230846   4.466   0.067   4.298 -1.2075 -1.0476 -0.7315
 3119TIP3   OH230847   4.342   5.060   5.146 -0.2351  0.1054 -0.2887
 3119TIP3    H130848   4.394   5.010   5.210  0.0269  0.5714 -0.1371
 3119TIP3    H230849   4.251   5.042   5.170 -0.1411  1.2823  1.0138
 3120TIP3   OH230850   3.874   2.537   5.618  0.1496 -0.1599  0.2109
 3120TIP3    H130851   3.920   2.456   5.597  0.8258  0.4327 -0.6353
 3120TIP3    H230852   3.902   2.559   5.706  1.7238  0.3295 -0.3892
 3121TIP3   OH230853   2.482   6.801   1.716 -0.7739 -0.0315 -0.3815
 3121TIP3    H130854   2.467   6.735   1.648  0.0882 -0.7030  0.0694
 3121TIP3    H230855   2.532   6.870   1.672 -0.7114 -0.1995 -0.5746
 3122TIP3   OH230856   3.541   1.428   2.307  0.1809  0.1589 -0.7354
 3122TIP3    H130857   3.572   1.501   2.253  1.3143  0.5554  0.4274
 3122TIP3    H230858   3.515   1.469   2.390 -2.4858 -0.3050 -1.2926
 3123TIP3   OH230859   6.405   1.593   2.630 -0.2501  0.2335  0.3474
 3123TIP3    H130860   6.492   1.601   2.669 -0.0352 -0.4816  0.0393
 3123TIP3    H230861   6.421   1.590   2.536 -0.6958  1.1326  0.2419
 3124TIP3   OH230862   5.187   3.957  10.724  0.6790 -0.4467 -0.3332
 3124TIP3    H130863   5.113   3.958  10.784 -1.1031  1.3485 -2.4590
 3124TIP3    H230864   5.243   3.887  10.756 -1.8558 -1.7602  1.3985
 3125TIP3   OH230865   4.731   5.911   5.537  0.2646 -0.4980  0.1228
 3125TIP3    H130866   4.775   5.971   5.478 -0.4680 -0.3403 -0.2749
 3125TIP3    H230867   4.762   5.824   5.510 -0.1787 -0.4363 -0.5937
 3126TIP3   OH230868   3.100   1.760   3.727 -0.5029 -0.4343  0.1288
 3126TIP3    H130869   3.006   1.772   3.734 -0.5826 -0.2631 -1.0957
 3126TIP3    H230870   3.137   1.847   3.743 -0.6584 -0.1253 -1.1413
 3127TIP3   OH230871   5.716   6.119  11.648  0.0182 -0.1933  0.2945
 3127TIP3    H130872   5.716   6.213  11.627  0.0275  0.0870  1.5048
 3127TIP3    H230873   5.654   6.081  11.586 -0.5979  0.7387  0.3228
 3128TIP3   OH230874   5.833   6.610   2.315 -0.0167  0.2956 -0.2608
 3128TIP3    H130875   5.780   6.628   2.238  2.2186  1.2237 -1.6254
 3128TIP3    H230876   5.857   6.696   2.349  1.0998 -0.0971 -0.0200
 3129TIP3   OH230877   6.672   4.174   1.613 -0.1757 -0.5964  0.1881
 3129TIP3    H130878   6.603   4.164   1.548  0.0970  0.4636 -0.2721
 3129TIP3    H230879   6.626   4.181   1.697 -0.5785 -0.7055 -0.0229
 3130TIP3   OH230880   3.853   6.343  13.409  0.7765  0.5093 -0.2796
 3130TIP3    H130881   3.906   6.379  13.479  2.9977  0.7234 -2.0313
 3130TIP3    H230882   3.790   6.412  13.388 -0.2860  0.2127  1.8752
 3131TIP3   OH230883   2.929   5.500   4.856  0.2629 -0.2058 -0.0499
 3131TIP3    H130884   2.879   5.579   4.834  0.2077  0.2002  1.4361
 3131TIP3    H230885   2.865   5.442   4.896  0.7592 -0.0649  0.9851
 3132TIP3   OH230886   3.312   5.039   3.393  0.2253 -0.7508 -0.1392
 3132TIP3    H130887   3.243   5.095   3.359 -0.0105 -1.2994 -0.5753
 3132TIP3    H230888   3.303   5.045   3.488  0.4881  0.2916 -0.1773
 3133TIP3   OH230889   1.281   3.874   3.788  0.3763  0.1272 -0.6929
 3133TIP3    H130890   1.288   3.909   3.699 -0.8179  0.4410 -0.6757
 3133TIP3    H230891   1.188   3.852   3.797  0.1350  1.7983  1.1136
 3134TIP3   OH230892   6.160   3.920   3.097 -0.4109  0.2794  0.0801
 3134TIP3    H130893   6.123   3.968   3.023 -0.2245 -0.0022 -0.2007
 3134TIP3    H230894   6.211   3.850   3.056 -1.0593 -0.4349  0.4830
 3135TIP3   OH230895   5.046   0.129   3.579  0.2578 -0.0308  0.6099
 3135TIP3    H130896   5.010   0.216   3.561 -1.9070 -0.7905  1.0012
 3135TIP3    H230897   4.969   0.077   3.605  1.4775 -2.1122  0.1508
 3136TIP3   OH230898   6.092   0.256   3.952  0.2732  0.1853 -0.8426
 3136TIP3    H130899   5.999   0.242   3.973  0.2474  2.0697  0.3626
 3136TIP3    H230900   6.107   0.201   3.874 -1.0828 -2.4466  0.6732
 3137TIP3   OH230901   1.454   1.787   6.150  0.2069  0.2783 -0.3535
 3137TIP3    H130902   1.439   1.777   6.056 -0.5987 -1.1092 -0.0906
 3137TIP3    H230903   1.415   1.708   6.189 -0.8031  1.5466  1.2791
 3138TIP3   OH230904   2.236   5.209   0.039 -0.4227 -0.1925  0.5431
 3138TIP3    H130905   2.217   5.162   0.120  1.6504 -1.4581  0.3296
 3138TIP3    H230906   2.201   5.153  -0.031  0.0770 -0.3419  0.4115
 3139TIP3   OH230907   4.850   6.617  11.557  0.3594  0.1868  0.0149
 3139TIP3    H130908   4.850   6.606  11.462 -0.7984  1.9867 -0.2182
 3139TIP3    H230909   4.775   6.675  11.574  0.5318 -0.1602  2.0247
 3140TIP3   OH230910   1.548   4.696  13.180 -0.0838 -0.2785 -0.5470
 3140TIP3    H130911   1.635   4.710  13.144  0.3369  2.1851  1.2942
 3140TIP3    H230912   1.549   4.606  13.212  2.1367  0.0441  0.3610
 3141TIP3   OH230913   1.872   1.920  11.814 -0.6882 -0.2169 -0.2763
 3141TIP3    H130914   1.851   2.009  11.785 -0.5136 -0.6360 -1.7053
 3141TIP3    H230915   1.889   1.929  11.908 -1.2406  1.1593 -0.3010
 3142TIP3   OH230916   6.584   1.647   3.160 -0.2103 -0.3080 -0.6381
 3142TIP3    H130917   6.551   1.686   3.080 -2.1897 -0.3224  0.1361
 3142TIP3    H230918   6.650   1.709   3.192 -0.3674  0.3445 -1.5786
 3143TIP3   OH230919   0.268   5.893  17.233 -0.2997 -0.4983 -0.3298
 3143TIP3    H130920   0.213   5.865  17.160 -0.0021 -1.8580 -0.0458
 3143TIP3    H230921   0.354   5.907  17.194 -0.4714  0.1323 -0.4910
 3144TIP3   OH230922   2.795   2.032  12.132 -0.6539 -0.4176 -0.4012
 3144TIP3    H130923   2.845   2.111  12.154  1.0840 -0.7951 -2.8114
 3144TIP3    H230924   2.742   2.058  12.058 -0.9985 -1.1798 -0.4145
 3145TIP3   OH230925   0.314   0.424   1.589 -0.2423  0.2032  0.0193
 3145TIP3    H130926   0.306   0.329   1.594 -1.8145  0.3829  1.7491
 3145TIP3    H230927   0.347   0.449   1.675 -1.1686  1.3338  0.0534
 3146TIP3   OH230928   2.546   6.375   6.035 -0.0536  0.4710  0.2475
 3146TIP3    H130929   2.521   6.299   6.087  0.9471 -1.5712 -2.1969
 3146TIP3    H230930   2.565   6.443   6.100 -1.9824 -1.0107  2.4266
 3147TIP3   OH230931   2.310   0.006   3.092 -0.2779  0.4030  0.5019
 3147TIP3    H130932   2.310  -0.062   3.160 -0.7206  1.1782  1.2909
 3147TIP3    H230933   2.218   0.025   3.076 -0.1776  0.1369 -0.4141
 3148TIP3   OH230934   4.125   3.541   0.992  0.2661  0.1046  0.5889
 3148TIP3    H130935   4.168   3.573   1.071  0.2806 -1.1155  1.0892
 3148TIP3    H230936   4.171   3.585   0.920  1.1488  0.2077  1.2011
 3149TIP3   OH230937   6.026   3.806   1.630  0.4047 -0.6511 -0.0884
 3149TIP3    H130938   5.967   3.730   1.629  1.7313 -1.7351  1.1804
 3149TIP3    H230939   6.026   3.835   1.721  0.3353  0.5370 -0.4661
 3150TIP3   OH230940   3.299   3.062   2.183 -0.3116  0.7361  0.1208
 3150TIP3    H130941   3.374   3.105   2.140 -1.0068  0.2264 -1.6780
 3150TIP3    H230942   3.252   3.132   2.226  1.4593  1.0052  1.6814
 3151TIP3   OH230943   5.736   0.366  16.697  0.5964 -0.1759 -0.2978
 3151TIP3    H130944   5.781   0.363  16.612 -2.4434  2.6959 -2.1486
 3151TIP3    H230945   5.656   0.317  16.683  1.1602 -1.7225  1.7016
 3152TIP3   OH230946   5.675   3.378  12.034 -0.3320 -1.3120  0.2571
 3152TIP3    H130947   5.629   3.347  11.956 -1.4392  0.6845  0.1019
 3152TIP3    H230948   5.640   3.324  12.106 -3.1588  0.3706  0.1913
 3153TIP3   OH230949   1.390   3.603   1.752  0.4567 -0.3380 -0.2007
 3153TIP3    H130950   1.441   3.658   1.811  0.0285 -0.4291  0.2589
 3153TIP3    H230951   1.334   3.552   1.810 -0.0863 -0.3084 -0.7002
 3154TIP3   OH230952   6.347   6.607   4.056  0.0503  0.4217 -0.1821
 3154TIP3    H130953   6.403   6.637   3.984 -0.1386  2.2502  0.4312
 3154TIP3    H230954   6.259   6.635   4.032 -0.1087  0.4643  0.4463
 3155TIP3   OH230955   5.950   1.238  14.102  0.8918  0.3524 -0.5358
 3155TIP3    H130956   5.986   1.195  14.179  0.5313  0.1849 -0.4577
 3155TIP3    H230957   5.911   1.167  14.050 -0.1334  0.6341 -0.1721
 3156TIP3   OH230958   5.791   1.638  11.258  0.1930 -0.2919 -0.0583
 3156TIP3    H130959   5.777   1.674  11.170  1.2743  2.2464  0.7909
 3156TIP3    H230960   5.765   1.546  11.250 -1.5158  0.3637 -2.5596
 3157TIP3   OH230961   4.924   4.861   1.150  0.2518  0.7822 -0.3427
 3157TIP3    H130962   4.935   4.769   1.126  0.0094  0.7782 -0.4397
 3157TIP3    H230963   4.965   4.910   1.079 -0.8851  0.7823 -1.0067
 3158TIP3   OH230964   5.581   1.050   1.938  0.4709 -0.5092 -0.3349
 3158TIP3    H130965   5.585   1.055   1.843 -1.3120 -1.1515 -0.4563
 3158TIP3    H230966   5.595   0.958   1.958  1.9134 -0.2056  0.0950
 3159TIP3   OH230967   0.628   1.937  11.733 -0.4962  0.1426  0.0133
 3159TIP3    H130968   0.582   1.862  11.771 -2.0746 -0.6269 -3.2144
 3159TIP3    H230969   0.589   2.013  11.776 -0.7293 -0.7427  1.4141
 3160TIP3   OH230970   1.935   3.185   5.123 -0.0787  0.2591 -0.3124
 3160TIP3    H130971   1.991   3.129   5.070 -1.0879 -0.2719 -0.8363
 3160TIP3    H230972   1.990   3.213   5.196  1.0041  0.1528 -1.0852
 3161TIP3   OH230973   2.361   3.612  14.260 -0.4121  0.3351  0.1545
 3161TIP3    H130974   2.403   3.672  14.322 -1.7417  0.8701  0.5626
 3161TIP3    H230975   2.319   3.669  14.196 -1.9912 -0.1387  0.7441
 3162TIP3   OH230976   3.486   2.236   5.818 -0.1770  0.5472  0.0829
 3162TIP3    H130977   3.538   2.305   5.859  0.9154  0.8102 -1.7305
 3162TIP3    H230978   3.547   2.190   5.761 -1.3488 -0.7434 -0.1637
 3163TIP3   OH230979   5.860   5.827   2.732  0.1537  0.7825 -0.0678
 3163TIP3    H130980   5.804   5.815   2.808  1.9592  1.0284  1.3306
 3163TIP3    H230981   5.810   5.789   2.659 -0.1264 -2.6299  1.8095
 3164TIP3   OH230982   0.391   1.599   2.394 -0.4036 -0.5115 -0.1443
 3164TIP3    H130983   0.373   1.614   2.487  0.2161 -0.9960  0.0602
 3164TIP3    H230984   0.305   1.598   2.353 -0.6321  0.5639  0.2880
 3165TIP3   OH230985   3.643   1.666   3.149  0.4887 -0.0979  0.1984
 3165TIP3    H130986   3.578   1.618   3.201 -0.9010  1.8510  0.3029
 3165TIP3    H230987   3.699   1.598   3.112 -0.4343 -1.6986  1.6766
 3166TIP3   OH230988   6.569   2.522   4.069 -0.7627  0.1146  0.4283
 3166TIP3    H130989   6.547   2.464   3.996 -1.2136  0.2198  0.4807
 3166TIP3    H230990   6.661   2.545   4.054 -0.8865  0.2268 -0.1686
 3167TIP3   OH230991   0.616   6.446   3.562  0.4428 -0.0007 -0.4748
 3167TIP3    H130992   0.545   6.499   3.598  0.2663 -0.8467  0.4519
 3167TIP3    H230993   0.605   6.360   3.602  0.1799 -1.0182 -2.6678
 3168TIP3   OH230994   1.307   5.649   4.230 -0.6779 -0.1599  0.4959
 3168TIP3    H130995   1.343   5.671   4.315  1.9982  0.4169 -0.7511
 3168TIP3    H230996   1.236   5.587   4.250 -1.0374  1.0491  3.1972
 3169TIP3   OH230997   6.484   5.817  13.633 -0.3373  0.1115 -0.2234
 3169TIP3    H130998   6.558   5.870  13.605  0.4385 -2.0953 -2.6248
 3169TIP3    H230999   6.491   5.813  13.728  0.4366  2.9899 -0.1271
 3170TIP3   OH231000   5.697   0.770  12.709 -0.1915  0.0830  0.4410
 3170TIP3    H131001   5.642   0.737  12.637  1.0829  0.9127 -0.9570
 3170TIP3    H231002   5.712   0.693  12.764 -2.2541 -0.2840  0.5398
 3171TIP3   OH231003   0.443   2.638   3.045  0.6406  0.4990 -0.0952
 3171TIP3    H131004   0.386   2.652   3.120  0.5665 -2.3125  0.4217
 3171TIP3    H231005   0.459   2.726   3.010 -1.7987  1.5627  1.3523
 3172TIP3   OH231006   0.754   0.391   5.990  0.4853  0.2665  0.1028
 3172TIP3    H131007   0.837   0.346   6.003 -0.5112 -1.4478  0.7134
 3172TIP3    H231008   0.775   0.466   5.935  2.5252  0.1672  0.7278
 3173TIP3   OH231009   4.150   6.124  12.076 -0.6934 -0.2910 -0.6978
 3173TIP3    H131010   4.105   6.039  12.079 -1.7465  0.2676 -0.2291
 3173TIP3    H231011   4.165   6.146  12.167 -1.1435  0.3920 -0.7847
 3174TIP3   OH231012   1.800   2.927  12.982 -0.0485 -0.2519 -0.6493
 3174TIP3    H131013   1.727   2.931  13.043  0.9865 -1.1703  0.6954
 3174TIP3    H231014   1.845   3.011  12.991  2.0879 -1.6440  2.4456
 3175TIP3   OH231015   1.446   4.852  14.988 -0.5522  0.4658  0.1941
 3175TIP3    H131016   1.370   4.851  14.930  0.1499 -0.7472 -0.7224
 3175TIP3    H231017   1.488   4.937  14.970 -0.1543 -0.0295 -1.3363
 3176TIP3   OH231018   5.753   6.340  12.376 -0.0019  0.3660  0.0156
 3176TIP3    H131019   5.840   6.320  12.341  1.0696  1.9335  1.7280
 3176TIP3    H231020   5.732   6.426  12.340  0.3287  1.1882  1.7706
 3177TIP3   OH231021   0.611   5.914   3.218 -0.1748  0.0973  0.2541
 3177TIP3    H131022   0.593   5.977   3.148 -1.8647 -0.5248  0.1171
 3177TIP3    H231023   0.558   5.838   3.196  1.5108 -1.2408  0.6496
 3178TIP3   OH231024   3.419   3.939  14.139 -0.4902  0.4644  0.0562
 3178TIP3    H131025   3.478   3.868  14.116 -0.0248  0.2719  1.7497
 3178TIP3    H231026   3.416   3.995  14.061  1.6140  0.2736 -0.1858
 3179TIP3   OH231027   4.001   1.732  15.369 -0.2668  0.2220  0.0864
 3179TIP3    H131028   4.069   1.746  15.434  0.4106  1.0132 -0.7723
 3179TIP3    H231029   4.048   1.724  15.286 -1.0490 -1.6561 -0.2073
 3180TIP3   OH231030   4.234   6.160  12.338 -0.0673 -0.2587 -0.4368
 3180TIP3    H131031   4.218   6.251  12.360  1.2043  0.4993 -2.4947
 3180TIP3    H231032   4.305   6.133  12.396 -1.1111 -0.2813  0.8686
 3181TIP3   OH231033   0.636   5.488  11.781  0.2096 -0.1942 -0.0429
 3181TIP3    H131034   0.731   5.501  11.780 -0.0833  2.1889 -1.0989
 3181TIP3    H231035   0.624   5.399  11.813  2.7710 -0.2454  0.8853
 3182TIP3   OH231036   2.115   2.997  13.666  0.2290  0.0265 -0.0528
 3182TIP3    H131037   2.070   3.068  13.712  0.2850 -0.3000  0.5232
 3182TIP3    H231038   2.196   2.985  13.715 -0.0480 -0.8218  0.2237
 3183TIP3   OH231039   2.502   5.218  12.245  0.1913 -0.4021  0.1959
 3183TIP3    H131040   2.561   5.209  12.170 -0.4886 -1.9317 -0.1644
 3183TIP3    H231041   2.414   5.209  12.209 -0.3377  2.4747  0.6462
 3184TIP3   OH231042   6.107   0.871  10.792 -0.9091  0.3265 -0.0429
 3184TIP3    H131043   6.121   0.800  10.855  3.1387 -2.0243 -3.3405
 3184TIP3    H231044   6.162   0.942  10.822  0.5300 -0.5622 -0.5419
 3185TIP3   OH231045   2.365   1.299  12.172  1.1137  0.4505 -0.0422
 3185TIP3    H131046   2.288   1.241  12.168  1.0327  0.3057  2.5716
 3185TIP3    H231047   2.425   1.263  12.107 -0.7675  0.1553 -1.6445
 3186TIP3   OH231048   4.666   3.447   4.394 -0.4471 -0.3310 -0.3135
 3186TIP3    H131049   4.673   3.488   4.308 -2.2642  4.3754  1.5896
 3186TIP3    H231050   4.587   3.394   4.390 -0.3196 -0.4281 -1.6437
 3187TIP3   OH231051   3.364   3.883   5.330 -0.0579 -0.5823 -0.3778
 3187TIP3    H131052   3.426   3.905   5.399 -1.6615 -0.7106  1.1418
 3187TIP3    H231053   3.307   3.816   5.369 -0.7587 -0.9338 -1.9421
 3188TIP3   OH231054   6.612   2.910   2.049  0.5802  0.3529  0.5499
 3188TIP3    H131055   6.526   2.913   2.091 -0.3071  1.9426 -1.2920
 3188TIP3    H231056   6.616   2.823   2.009 -1.2327  1.1458 -1.4486
 3189TIP3   OH231057   0.936   0.390  14.034  0.0005  0.8543 -0.6003
 3189TIP3    H131058   0.966   0.476  14.003  0.3485  0.3507 -1.6684
 3189TIP3    H231059   1.009   0.356  14.086 -0.7768  1.9198  1.2602
 3190TIP3   OH231060   6.577   0.629  16.615  0.0847 -0.2062 -0.4102
 3190TIP3    H131061   6.510   0.660  16.676 -0.4801 -0.0282 -1.1089
 3190TIP3    H231062   6.613   0.551  16.657 -1.0149 -0.6769 -0.3132
 3191TIP3   OH231063   1.435   1.185   5.709  0.7384 -0.5982 -0.2810
 3191TIP3    H131064   1.482   1.211   5.788  0.8959  0.4483 -0.7048
 3191TIP3    H231065   1.386   1.106   5.734 -0.9178  0.9360  1.4381
 3192TIP3   OH231066   0.688   4.983   4.769  0.1184  0.0470  0.1359
 3192TIP3    H131067   0.662   5.073   4.752 -0.7542  0.1616  1.9526
 3192TIP3    H231068   0.641   4.959   4.849  1.0149 -1.7304  0.1572
 3193TIP3   OH231069   3.816   0.243  14.117 -0.0108 -0.2768 -0.0702
 3193TIP3    H131070   3.792   0.195  14.037 -0.2609  1.7437 -1.2456
 3193TIP3    H231071   3.797   0.182  14.188  2.8675 -3.2133 -1.6728
 3194TIP3   OH231072   1.517   0.763   0.431 -0.1419 -0.1550 -0.0778
 3194TIP3    H131073   1.513   0.675   0.392 -0.1285 -1.4663  2.8137
 3194TIP3    H231074   1.572   0.813   0.370  2.2450 -2.9276 -0.3422
 3195TIP3   OH231075   1.495   3.635  11.417  0.4785 -0.3235 -0.3216
 3195TIP3    H131076   1.427   3.701  11.410 -0.0407 -0.8231  0.0045
 3195TIP3    H231077   1.546   3.644  11.336 -0.9803 -1.0699 -1.3397
 3196TIP3   OH231078   1.627   5.034  17.277  0.1501  0.0949  0.2397
 3196TIP3    H131079   1.533   5.027  17.296  0.3979  0.1766  1.5300
 3196TIP3    H231080   1.655   5.112  17.325  0.5043  1.1559 -1.6650
 3197TIP3   OH231081   6.811   2.776  15.777 -0.4587  0.0966 -0.0769
 3197TIP3    H131082   6.769   2.855  15.811 -0.4875  2.0183 -4.2630
 3197TIP3    H231083   6.904   2.794  15.781 -0.4737  0.5413 -1.3400
 3198TIP3   OH231084   1.395   4.995  12.298 -0.1429 -0.3468 -0.2531
 3198TIP3    H131085   1.386   4.919  12.240 -0.5436 -0.5521  0.0719
 3198TIP3    H231086   1.310   5.039  12.293  0.3472  0.5145 -1.0369
 3199TIP3   OH231087   1.822   4.964   1.603  0.2631  0.2860  0.0530
 3199TIP3    H131088   1.747   4.936   1.551  0.9133 -0.1977 -0.6342
 3199TIP3    H231089   1.883   4.890   1.599  0.9590  0.8387  0.2428
 3200TIP3   OH231090   1.551   5.955  11.199  0.3965  0.0990  0.1171
 3200TIP3    H131091   1.578   6.010  11.273 -1.8628  0.7086  0.5298
 3200TIP3    H231092   1.523   5.872  11.240 -3.3674  1.3564  0.2907
 3201TIP3   OH231093   6.748   3.900  13.248 -0.2317 -0.2587  0.9926
 3201TIP3    H131094   6.735   3.847  13.170  0.8836 -0.5757  1.0101
 3201TIP3    H231095   6.661   3.906  13.288 -0.1379 -3.4445  1.8610
 3202TIP3   OH231096   5.144   0.560   1.284 -0.0447 -0.4217 -0.4193
 3202TIP3    H131097   5.235   0.556   1.252 -0.1313 -0.1453 -0.7042
 3202TIP3    H231098   5.134   0.482   1.337  0.5545 -0.1349  0.1212
 3203TIP3   OH231099   4.690   4.169  11.141 -0.7108  0.3633  0.1441
 3203TIP3    H131100   4.619   4.120  11.183  0.8375 -1.1280  1.0604
 3203TIP3    H231101   4.750   4.189  11.212  1.1481 -0.7807 -1.0759
 3204TIP3   OH231102   4.008   1.744  17.280  0.4604 -0.2287  0.1472
 3204TIP3    H131103   4.013   1.661  17.231 -0.4560  0.1007 -0.5011
 3204TIP3    H231104   3.943   1.796  17.233  0.6971  0.6869  0.8280
 3205TIP3   OH231105   4.692   3.099   5.902 -0.2659  0.3122 -0.0599
 3205TIP3    H131106   4.617   3.101   5.962 -0.3644  1.6500 -0.2135
 3205TIP3    H231107   4.666   3.037   5.834 -1.0311  0.3818  0.1637
 3206TIP3   OH231108   0.068   2.849   4.771  0.1116 -0.0265  0.4428
 3206TIP3    H131109   0.031   2.929   4.734 -1.6353 -1.0701 -0.1234
 3206TIP3    H231110   0.040   2.849   4.862 -1.1804 -0.7307  0.0579
 3207TIP3   OH231111   6.253   2.666  14.194 -0.2942 -0.2134  0.3094
 3207TIP3    H131112   6.297   2.607  14.256 -1.0127 -0.9732  0.1082
 3207TIP3    H231113   6.278   2.633  14.108  1.1456  1.1784  0.1874
 3208TIP3   OH231114   0.752   4.673  13.128  0.1199 -0.6571  0.0657
 3208TIP3    H131115   0.766   4.629  13.213  0.7754 -0.1291  0.2386
 3208TIP3    H231116   0.820   4.637  13.072 -0.2673 -0.9489 -0.2172
 3209TIP3   OH231117   0.485   3.635  14.039  0.3931  0.2264  0.5642
 3209TIP3    H131118   0.421   3.564  14.031  1.3474 -0.5516 -0.5068
 3209TIP3    H231119   0.541   3.624  13.962  1.6059  1.0940  1.3116
 3210TIP3   OH231120   3.753   4.613   0.900 -0.0706 -0.0504  0.0580
 3210TIP3    H131121   3.809   4.551   0.852  0.9679 -0.0021  1.1642
 3210TIP3    H231122   3.773   4.596   0.992  0.9938  2.6029  0.3687
 3211TIP3   OH231123   3.445   0.685   3.114 -0.7183 -0.3463 -0.2040
 3211TIP3    H131124   3.449   0.765   3.063  1.6413 -0.0842  0.3234
 3211TIP3    H231125   3.519   0.632   3.082  0.1805 -0.6085  2.1746
 3212TIP3   OH231126   1.393   3.294  13.487 -0.2758 -0.1883  0.1596
 3212TIP3    H131127   1.324   3.301  13.422 -1.6509 -1.3712  1.4728
 3212TIP3    H231128   1.388   3.204  13.519  1.8647 -0.2991  0.2904
 3213TIP3   OH231129   1.632   4.845   1.436 -0.7147  0.5913 -0.3395
 3213TIP3    H131130   1.559   4.908   1.431  1.2992  2.9826 -0.7450
 3213TIP3    H231131   1.634   4.804   1.350 -1.6186  0.4701 -0.3073
 3214TIP3   OH231132   3.277   5.268   3.071  0.0313 -0.0391  0.2748
 3214TIP3    H131133   3.289   5.173   3.072  0.0448 -0.0812 -1.7064
 3214TIP3    H231134   3.238   5.286   2.985 -0.0654  1.7383  0.6740
 3215TIP3   OH231135   6.057   1.106  13.765 -0.0492  0.1959  0.3050
 3215TIP3    H131136   6.081   1.199  13.770 -1.4778  0.4917  1.9208
 3215TIP3    H231137   6.025   1.085  13.852 -2.0669 -1.1951 -0.7430
 3216TIP3   OH231138   0.295   0.337  13.865  0.1292  0.1642  0.3601
 3216TIP3    H131139   0.340   0.292  13.793  0.4531 -0.8479  1.1747
 3216TIP3    H231140   0.365   0.372  13.919 -0.0824 -0.3195  0.9518
 3217TIP3   OH231141   5.952   1.671  13.496  0.0510  0.1895 -0.0627
 3217TIP3    H131142   5.880   1.637  13.443 -1.8169 -0.2006  2.6484
 3217TIP3    H231143   5.997   1.593  13.529 -1.2108  0.3457  2.1083
 3218TIP3   OH231144   6.191   3.347  13.975  0.3037 -0.2523  0.1216
 3218TIP3    H131145   6.118   3.405  13.998  0.1610 -0.0929 -0.6976
 3218TIP3    H231146   6.214   3.303  14.057  1.6901  2.3874  1.2365
 3219TIP3   OH231147   1.085   2.649  16.381 -0.1642  0.4217  0.0284
 3219TIP3    H131148   1.149   2.631  16.449  0.1771  2.3071  0.2153
 3219TIP3    H231149   1.130   2.626  16.299  0.0808 -0.0628  0.3000
 3220TIP3   OH231150   2.366   5.787   4.060 -0.2117 -0.2195 -0.2970
 3220TIP3    H131151   2.376   5.878   4.088  0.3733 -0.0600 -1.0155
 3220TIP3    H231152   2.422   5.737   4.118 -2.3694 -0.4315  1.6961
 3221TIP3   OH231153   3.979   0.690  14.872 -0.2188  0.4011 -0.3946
 3221TIP3    H131154   3.957   0.597  14.873  1.3334  0.0142 -0.9671
 3221TIP3    H231155   4.015   0.708  14.959 -1.2498  0.6586 -0.0134
 3222TIP3   OH231156   0.543   3.869   4.515  0.6226 -0.0528  0.4756
 3222TIP3    H131157   0.532   3.910   4.430  2.0513  1.4372  0.9765
 3222TIP3    H231158   0.492   3.923   4.575  4.2695  2.4310  1.5155
 3223TIP3   OH231159   1.601   4.513  12.061  0.1211  0.4151  0.2176
 3223TIP3    H131160   1.652   4.455  12.004  0.7937  2.0934 -0.9070
 3223TIP3    H231161   1.511   4.484  12.048  0.6584 -2.0755  1.6479
 3224TIP3   OH231162   6.684   5.071  13.715 -0.0072  0.7989 -0.0697
 3224TIP3    H131163   6.640   5.152  13.691 -1.2339  0.3444  0.5958
 3224TIP3    H231164   6.777   5.086  13.695 -0.3720  2.0105 -0.8363
 3225TIP3   OH231165   6.444   4.760  16.152  0.2020 -0.3281  0.4750
 3225TIP3    H131166   6.403   4.676  16.133  1.2384 -0.4308 -1.4757
 3225TIP3    H231167   6.410   4.820  16.085  0.4740  0.4639  1.0290
 3226TIP3   OH231168   3.554   4.806  14.876 -0.0349 -0.1779  0.5468
 3226TIP3    H131169   3.495   4.853  14.818  1.2317  1.0175  0.1886
 3226TIP3    H231170   3.624   4.774  14.818  0.6575  0.0712  1.2276
 3227TIP3   OH231171   0.724   1.734  12.701 -0.5783  0.0016  0.2611
 3227TIP3    H131172   0.706   1.708  12.610 -0.2795 -0.2623  0.2816
 3227TIP3    H231173   0.799   1.793  12.694 -1.4173  1.0810  0.1844
 3228TIP3   OH231174   5.695   5.844  12.066  0.4807 -0.5756 -0.5353
 3228TIP3    H131175   5.643   5.911  12.022 -0.5843 -2.4760 -2.2651
 3228TIP3    H231176   5.721   5.784  11.996  2.9809 -0.9822  0.6819
 3229TIP3   OH231177   0.233   4.444  13.053  0.0944 -0.2964  0.0178
 3229TIP3    H131178   0.327   4.462  13.062  0.1290 -1.5657  2.6122
 3229TIP3    H231179   0.217   4.448  12.958  2.8633 -0.5508 -0.5060
 3230TIP3   OH231180   6.576   0.575  13.244  0.7403  0.3162  0.0351
 3230TIP3    H131181   6.563   0.640  13.175  1.6331  0.2865 -0.1709
 3230TIP3    H231182   6.669   0.583  13.267  1.1291 -1.6408 -0.7674
 3231TIP3   OH231183   0.811   0.675  12.722 -0.4143  0.4377  0.2341
 3231TIP3    H131184   0.754   0.609  12.683 -0.7284  0.0983  1.2526
 3231TIP3    H231185   0.786   0.757  12.679 -1.7333  0.3102  0.7270
 3232TIP3   OH231186   1.000   4.438   2.616  0.1779  0.0443  0.3430
 3232TIP3    H131187   1.086   4.418   2.653  0.0617 -1.4669 -0.1762
 3232TIP3    H231188   1.006   4.531   2.590  2.6296 -0.7730 -2.3202
 3233TIP3   OH231189   6.686   0.283   0.668  0.6111  0.2312 -0.1454
 3233TIP3    H131190   6.615   0.300   0.729  1.5112  0.9973  0.7068
 3233TIP3    H231191   6.651   0.310   0.582 -0.6986 -0.9858 -0.0110
 3234TIP3   OH231192   0.677   4.149   5.371 -0.3861 -0.0064 -0.4436
 3234TIP3    H131193   0.617   4.168   5.443 -0.0166  0.3911 -0.2343
 3234TIP3    H231194   0.730   4.228   5.363 -0.4658 -0.0265 -1.1980
 3235TIP3   OH231195   1.787   2.905  11.478 -1.1232 -0.1221  0.3750
 3235TIP3    H131196   1.784   2.998  11.454  0.3430 -0.2119 -0.1783
 3235TIP3    H231197   1.868   2.896  11.529 -0.6095 -1.3415 -0.6281
 3236TIP3   OH231198   2.610   3.572   0.925 -0.3702 -0.4908 -0.0029
 3236TIP3    H131199   2.612   3.608   0.836 -3.4233 -1.3484 -0.4765
 3236TIP3    H231200   2.678   3.504   0.925  0.3964  0.2573 -1.3438
 3237TIP3   OH231201   6.103   4.909   2.803  0.0143  0.4629  0.5793
 3237TIP3    H131202   6.159   4.974   2.762 -1.1882  2.0489  1.4007
 3237TIP3    H231203   6.149   4.884   2.883 -0.3297  1.6286  1.1571
 3238TIP3   OH231204   0.772   5.679   4.860  0.2838  0.1566 -0.2717
 3238TIP3    H131205   0.851   5.691   4.912 -0.5648 -0.6982  1.2541
 3238TIP3    H231206   0.771   5.585   4.840 -0.5041  0.0998  0.0045
 3239TIP3   OH231207   5.377   4.720   0.507  0.5582 -0.5571 -0.1835
 3239TIP3    H131208   5.424   4.637   0.514  1.4945  0.0146  0.3298
 3239TIP3    H231209   5.434   4.785   0.548 -0.0141  0.4098 -0.8696
 3240TIP3   OH231210   4.875   0.132   2.052 -0.2653 -0.0423  0.2366
 3240TIP3    H131211   4.831   0.112   1.969 -1.6480 -1.0687  1.1991
 3240TIP3    H231212   4.892   0.046   2.091  0.9691  0.4155  0.7148
 3241TIP3   OH231213   5.593   1.066  17.194 -0.0478 -0.2705 -0.5377
 3241TIP3    H131214   5.500   1.040  17.196  0.2818 -1.3941  0.7557
 3241TIP3    H231215   5.638   0.991  17.155  0.1439  0.8841 -2.5871
 3242TIP3   OH231216   1.700   0.871  16.802 -0.3690 -0.4340  0.0748
 3242TIP3    H131217   1.694   0.778  16.779  1.3608 -0.3844 -0.6167
 3242TIP3    H231218   1.697   0.872  16.898  2.6185 -1.4803  0.2377
 3243TIP3   OH231219   6.169   4.646  11.012  0.8662  0.6830  0.0349
 3243TIP3    H131220   6.150   4.696  10.933  0.6669 -0.3893 -0.6002
 3243TIP3    H231221   6.172   4.554  10.983  3.2720  0.4748  0.7812
 3244TIP3   OH231222   4.798   4.483   4.083  0.6774  0.1779 -0.1749
 3244TIP3    H131223   4.730   4.439   4.135 -1.9243  1.4942 -2.3579
 3244TIP3    H231224   4.829   4.553   4.140  0.9027 -1.0027  1.1974
 3245TIP3   OH231225   1.976   4.752   4.747  0.1932 -0.5578 -0.7473
 3245TIP3    H131226   1.935   4.789   4.669  0.5733  0.0256 -0.6689
 3245TIP3    H231227   2.031   4.822   4.782 -0.4520 -0.6138  0.4005
 3246TIP3   OH231228   4.354   2.192  14.907 -0.3257  0.0197  0.3710
 3246TIP3    H131229   4.337   2.208  15.000  0.1663 -1.1480  0.6677
 3246TIP3    H231230   4.408   2.113  14.906  0.4060  0.5338 -0.8638
 3247TIP3   OH231231   2.226   4.715   0.731 -0.3084  0.9394 -0.3471
 3247TIP3    H131232   2.295   4.719   0.797 -0.4473 -0.6153 -0.0907
 3247TIP3    H231233   2.254   4.777   0.664  0.2218  1.9639  0.7917
 3248TIP3   OH231234   3.537   2.932   1.724  0.4788 -0.1309 -0.5491
 3248TIP3    H131235   3.452   2.935   1.769  0.5889  1.6197 -0.4012
 3248TIP3    H231236   3.531   2.856   1.666 -0.8612 -0.5337  0.0926
 3249TIP3   OH231237   1.317   1.909   5.559 -0.4717  0.0504  0.0586
 3249TIP3    H131238   1.299   2.003   5.567 -0.7913  0.0489 -0.6993
 3249TIP3    H231239   1.331   1.881   5.650  1.0016  1.1087  0.1829
 3250TIP3   OH231240   4.472   5.237   4.338 -0.7218 -0.0249  0.1969
 3250TIP3    H131241   4.432   5.231   4.251  2.0982  2.1898 -1.3210
 3250TIP3    H231242   4.534   5.163   4.341 -1.4013 -0.5832  0.6652
 3251TIP3   OH231243   0.871   2.513   2.764 -0.2856  0.4920  0.2748
 3251TIP3    H131244   0.880   2.592   2.710 -0.4903  0.1845 -0.2201
 3251TIP3    H231245   0.786   2.523   2.807 -0.6986  0.1604 -0.4392
 3252TIP3   OH231246   0.888   5.272   0.900  0.4806  0.0201  0.4934
 3252TIP3    H131247   0.896   5.291   0.993 -0.0349 -0.3357  0.6130
 3252TIP3    H231248   0.959   5.321   0.859  1.2686 -0.5470  1.1709
 3253TIP3   OH231249   2.236   6.754  12.609 -0.5216 -0.0091 -0.0129
 3253TIP3    H131250   2.274   6.667  12.618 -0.7443 -0.2102 -0.9988
 3253TIP3    H231251   2.160   6.742  12.553 -1.1310  0.6569  0.6559
 3254TIP3   OH231252   2.264   3.919   2.202 -0.8938 -0.2034  0.3391
 3254TIP3    H131253   2.349   3.933   2.161 -1.4604  0.3517 -0.6455
 3254TIP3    H231254   2.251   3.996   2.258 -0.9339 -0.0771  0.1580
 3255TIP3   OH231255   6.438   3.429  12.309  0.2067 -0.7074 -0.3000
 3255TIP3    H131256   6.414   3.520  12.293  0.0343 -0.2735  2.3324
 3255TIP3    H231257   6.497   3.407  12.237 -1.1933  0.8919 -2.0070
 3256TIP3   OH231258   1.191   2.147   0.871 -0.0052 -0.2136 -0.0347
 3256TIP3    H131259   1.185   2.076   0.935  2.5111 -0.7018 -0.3050
 3256TIP3    H231260   1.189   2.227   0.924 -2.1772 -0.4718  0.3179
 3257TIP3   OH231261   0.869   3.603   2.000  0.2376  0.0430 -0.8172
 3257TIP3    H131262   0.828   3.682   1.963 -0.3492  0.7782  1.3245
 3257TIP3    H231263   0.796   3.550   2.032  0.7760 -0.0878  0.2167
 3258TIP3   OH231264   1.294   3.140   3.794 -0.5971 -0.3201  0.5198
 3258TIP3    H131265   1.211   3.101   3.822  0.1860 -0.0554  3.3011
 3258TIP3    H231266   1.271   3.229   3.767 -1.3062 -0.4366  0.7388
 3259TIP3   OH231267   5.017   0.084  17.289  0.7654 -0.2156  0.2205
 3259TIP3    H131268   5.102   0.129  17.284  0.9823 -0.5317  1.0647
 3259TIP3    H231269   5.038  -0.008  17.275  0.4487 -0.1975 -0.4130
 3260TIP3   OH231270   2.803   0.399   4.457 -0.9221  0.1818 -0.3226
 3260TIP3    H131271   2.759   0.351   4.528 -0.9484 -0.0247 -0.4787
 3260TIP3    H231272   2.815   0.334   4.388  0.6926 -0.0740  0.1734
 3261TIP3   OH231273   0.920   2.775   2.626  0.4886 -0.4718 -0.3305
 3261TIP3    H131274   0.965   2.722   2.561 -1.4608 -3.2429  0.4709
 3261TIP3    H231275   0.946   2.865   2.607  0.4982 -1.2847 -4.4945
 3262TIP3   OH231276   1.875   2.487   3.365 -0.0468 -0.0601  0.5592
 3262TIP3    H131277   1.784   2.517   3.365  0.0280  0.1641  1.1121
 3262TIP3    H231278   1.870   2.398   3.330 -0.7266 -0.7603  2.3893
 3263TIP3   OH231279   5.638   3.506   4.202  0.5400  0.0965 -0.2167
 3263TIP3    H131280   5.712   3.524   4.259 -0.5490 -2.0131  1.9354
 3263TIP3    H231281   5.610   3.418   4.226 -3.2633  1.1871 -0.3064
 3264TIP3   OH231282   2.271   4.282  15.662  0.2505  0.8451 -0.1067
 3264TIP3    H131283   2.345   4.255  15.608  0.7075 -2.6876  2.1798
 3264TIP3    H231284   2.303   4.357  15.711  2.6422 -1.0938  1.4197
 3265TIP3   OH231285   0.040   6.775  14.594  0.0680 -0.8576 -0.6000
 3265TIP3    H131286  -0.051   6.747  14.604  0.4808 -1.8417  0.4803
 3265TIP3    H231287   0.034   6.861  14.552 -1.4949  0.5817  2.4410
 3266TIP3   OH231288   1.783   6.628   3.076 -0.2777 -0.3561  0.2377
 3266TIP3    H131289   1.753   6.680   3.150  0.2671 -0.0446  0.2444
 3266TIP3    H231290   1.739   6.666   2.999 -1.0395 -0.8406  0.4245
 3267TIP3   OH231291   2.744   3.867   2.971  0.2414 -0.0725 -0.5048
 3267TIP3    H131292   2.656   3.891   2.943  1.1112  2.2963 -1.4117
 3267TIP3    H231293   2.760   3.923   3.048  0.3728 -1.6567  0.6440
 3268TIP3   OH231294   6.430   4.412   5.789  0.0647 -0.3192 -0.6569
 3268TIP3    H131295   6.393   4.467   5.720  0.4654 -0.3648 -0.9038
 3268TIP3    H231296   6.485   4.348   5.744 -0.2696 -0.8313 -0.3602
 3269TIP3   OH231297   0.296   5.351   5.291  0.1106  0.0915  0.0524
 3269TIP3    H131298   0.289   5.263   5.255  1.2079 -0.8922  2.1135
 3269TIP3    H231299   0.311   5.407   5.215 -0.5293 -1.5015 -1.2885
 3270TIP3   OH231300   6.535   2.033   2.870  0.2965  0.4579  0.0385
 3270TIP3    H131301   6.625   2.016   2.841  0.4711 -0.8951  1.3355
 3270TIP3    H231302   6.481   1.991   2.804  0.6377 -0.0253  0.0650
 3271TIP3   OH231303   0.987   6.380  12.897  0.3638  0.1176  0.4081
 3271TIP3    H131304   0.996   6.287  12.877  2.9705  0.4513 -0.0750
 3271TIP3    H231305   0.940   6.382  12.981 -3.7534 -1.4643 -1.6900
 3272TIP3   OH231306   2.507   0.893  13.298  0.7648 -0.2739  0.5323
 3272TIP3    H131307   2.556   0.909  13.378 -1.1919 -3.0661  2.3741
 3272TIP3    H231308   2.455   0.972  13.285  0.5104 -0.1127  2.4693
 3273TIP3   OH231309   3.023   2.449  12.891 -0.9681  0.1244  0.5579
 3273TIP3    H131310   3.059   2.427  12.805 -0.0038  2.2127  0.3938
 3273TIP3    H231311   3.052   2.377  12.948  0.4925 -0.0366 -0.3493
 3274TIP3   OH231312   0.947   2.329  16.173 -0.5758  1.1840  0.5949
 3274TIP3    H131313   0.923   2.237  16.165  0.1935  1.0283 -0.0002
 3274TIP3    H231314   0.866   2.377  16.158 -1.5773  0.5587  3.5691
 3275TIP3   OH231315   4.417   0.852  16.926 -0.0792 -0.1795 -0.1954
 3275TIP3    H131316   4.376   0.842  17.012 -0.2739 -0.8407 -0.3592
 3275TIP3    H231317   4.345   0.839  16.863  0.2145 -0.5101 -0.4674
 3276TIP3   OH231318   0.219   6.128  10.887  0.1011 -0.2198 -0.0315
 3276TIP3    H131319   0.195   6.065  10.819 -0.5503  0.4737 -0.4462
 3276TIP3    H231320   0.257   6.202  10.839 -0.1250  0.1624  0.3711
 3277TIP3   OH231321   3.075   2.668  15.032  0.3501  0.3386  0.5141
 3277TIP3    H131322   3.043   2.733  14.969  1.1686  1.4552  1.2259
 3277TIP3    H231323   3.069   2.585  14.986 -0.0979  1.0038 -0.6505
 3278TIP3   OH231324   1.951   0.186  11.005 -0.0425  0.1715  0.4619
 3278TIP3    H131325   1.919   0.100  10.979 -2.6920  1.2456  0.0163
 3278TIP3    H231326   2.027   0.202  10.949 -0.3773 -1.2845 -0.4187
 3279TIP3   OH231327   2.847   5.763  11.926  0.5337  0.0062  0.1423
 3279TIP3    H131328   2.801   5.828  11.979 -0.2988 -1.8255  1.7084
 3279TIP3    H231329   2.807   5.772  11.839  0.5336  1.6690  0.2875
 3280TIP3   OH231330   0.156   2.610   0.693  0.3100  0.0913  0.1062
 3280TIP3    H131331   0.176   2.519   0.717  0.1046 -0.0599 -0.2837
 3280TIP3    H231332   0.167   2.660   0.774 -0.2929 -0.3936  0.4917
 3281TIP3   OH231333   2.289   5.168  12.642  0.1326 -0.1242  0.3793
 3281TIP3    H131334   2.328   5.198  12.724 -2.6850  1.0011  1.3958
 3281TIP3    H231335   2.330   5.221  12.575  1.1956  0.2015  1.2730
 3282TIP3   OH231336   2.302   0.261  11.179 -0.5139  0.1503 -0.8014
 3282TIP3    H131337   2.392   0.251  11.213 -0.8700  0.0752  0.1373
 3282TIP3    H231338   2.294   0.354  11.161 -1.1667  0.6131  1.7538
 3283TIP3   OH231339   6.467   6.561  16.106 -0.4272  0.5119 -0.2941
 3283TIP3    H131340   6.457   6.606  16.190 -2.2353  0.1628 -0.3174
 3283TIP3    H231341   6.551   6.593  16.072 -1.3970  3.4676 -0.0620
 3284TIP3   OH231342   5.935   5.457  11.447 -0.0881 -0.5213 -0.1701
 3284TIP3    H131343   5.941   5.457  11.543 -0.0253 -0.7166 -0.1755
 3284TIP3    H231344   6.022   5.481  11.417 -0.2950  0.2675 -0.1623
 3285TIP3   OH231345   6.726   5.115   1.524  0.2424  0.1549 -0.7065
 3285TIP3    H131346   6.742   5.021   1.537 -0.1730  0.2289  0.4116
 3285TIP3    H231347   6.793   5.158   1.578 -0.6032  0.4902  0.0827
 3286TIP3   OH231348   3.021   2.113  11.741  0.0757 -0.0341  0.2065
 3286TIP3    H131349   3.026   2.078  11.652  0.7443  0.4611  0.0476
 3286TIP3    H231350   2.954   2.182  11.735 -0.8583 -0.9149  0.3999
 3287TIP3   OH231351   5.619   6.224   0.547 -0.6652 -0.0613 -0.6602
 3287TIP3    H131352   5.613   6.319   0.540 -2.6155  0.0581  1.8680
 3287TIP3    H231353   5.591   6.192   0.461  0.5438  1.6435 -1.7136
 3288TIP3   OH231354   2.354   6.032   3.202 -0.6286 -0.8483 -0.2650
 3288TIP3    H131355   2.396   6.115   3.182 -0.8141 -0.4853  0.8327
 3288TIP3    H231356   2.260   6.051   3.201 -0.6578 -0.9401  0.4299
 3289TIP3   OH231357   2.458   5.830  13.086  0.4130 -0.0899 -0.1722
 3289TIP3    H131358   2.453   5.735  13.100 -1.2141  0.0443  0.2762
 3289TIP3    H231359   2.372   5.862  13.112  0.4316  1.3245 -1.7923
 3290TIP3   OH231360   1.681   3.212  11.106  0.2424 -0.2096 -0.0257
 3290TIP3    H131361   1.714   3.266  11.034 -0.8541  1.2357  0.5423
 3290TIP3    H231362   1.731   3.240  11.182  1.4071 -1.7480 -0.1855
 3291TIP3   OH231363   4.419   5.933  13.146 -0.0315 -0.5708  0.2109
 3291TIP3    H131364   4.512   5.931  13.126  0.0659 -0.4032  0.6396
 3291TIP3    H231365   4.411   5.995  13.219 -0.4128 -0.9776  0.5152
 3292TIP3   OH231366   4.018   2.824   3.937 -0.0397 -0.4547 -0.3716
 3292TIP3    H131367   4.083   2.758   3.915  1.0346  0.8265 -1.1410
 3292TIP3    H231368   4.045   2.902   3.888 -1.2510  0.5738  0.5374
 3293TIP3   OH231369   0.586   6.030  11.001 -0.5704 -0.0131 -0.2246
 3293TIP3    H131370   0.569   6.064  11.088 -1.4547  1.7805 -1.0683
 3293TIP3    H231371   0.652   5.962  11.014  0.2751  1.1297  1.6709
 3294TIP3   OH231372   1.417   5.168   2.583 -0.3216 -0.0689  0.1115
 3294TIP3    H131373   1.373   5.219   2.650  1.4074  1.0152  0.4417
 3294TIP3    H231374   1.509   5.167   2.610  0.1067 -1.0362 -1.3435
 3295TIP3   OH231375   5.542   0.541   1.802  0.0208  0.4233  0.0234
 3295TIP3    H131376   5.481   0.518   1.732  0.1206  0.1425  0.0281
 3295TIP3    H231377   5.524   0.477   1.872  0.0260  0.6061  0.1930
 3296TIP3   OH231378   6.779   0.217   5.269 -0.0916 -0.1130  0.0074
 3296TIP3    H131379   6.752   0.300   5.230 -1.9431 -0.4804  0.4424
 3296TIP3    H231380   6.748   0.151   5.207 -2.4457 -0.6667  1.7013
 3297TIP3   OH231381   3.861   4.179   5.895 -0.1144  0.4523  0.2769
 3297TIP3    H131382   3.795   4.156   5.961 -1.4386  1.5292 -0.6261
 3297TIP3    H231383   3.942   4.189   5.944 -0.9945  0.7843  1.6814
 3298TIP3   OH231384   1.972   4.151   5.601 -0.1043 -0.0056  0.4056
 3298TIP3    H131385   1.966   4.064   5.562 -0.7808  1.0867 -1.9841
 3298TIP3    H231386   1.974   4.134   5.696 -1.2968 -2.5488  0.0214
 3299TIP3   OH231387   0.066   1.105   5.917  0.5428  0.0702  0.3171
 3299TIP3    H131388   0.096   1.042   5.852 -1.0531 -1.1884  0.7839
 3299TIP3    H231389   0.096   1.069   6.001  3.1411  1.9975  0.3029
 3300TIP3   OH231390   2.531   1.240   2.095 -0.3959 -0.1031  0.0680
 3300TIP3    H131391   2.577   1.161   2.066 -1.8693 -1.5394  1.5326
 3300TIP3    H231392   2.546   1.304   2.025 -0.7087 -2.2532 -1.9978
 3301TIP3   OH231393   2.611   0.072  15.035 -0.0864  0.1720 -0.0080
 3301TIP3    H131394   2.554   0.056  14.960 -1.1730 -0.1848  0.8754
 3301TIP3    H231395   2.581   0.155  15.071  0.5010  0.3966 -0.0354
 3302TIP3   OH231396   6.463   5.847   6.276 -0.0503  0.2161  0.2778
 3302TIP3    H131397   6.500   5.758   6.274  0.0199  0.2015  1.3945
 3302TIP3    H231398   6.370   5.836   6.256 -0.0423 -0.1148  0.4256
 3303TIP3   OH231399   2.407   1.235  16.146  0.7432  0.3743 -0.3039
 3303TIP3    H131400   2.324   1.207  16.107  0.3408 -1.4392  1.7629
 3303TIP3    H231401   2.455   1.154  16.161  1.3530  1.1027  1.8564
 3304TIP3   OH231402   2.409   6.662  12.947  0.8780  0.1075 -0.0253
 3304TIP3    H131403   2.344   6.592  12.949  0.2847  0.6242 -0.6735
 3304TIP3    H231404   2.437   6.672  13.038 -1.0298  0.8499  0.5156
 3305TIP3   OH231405   3.278   2.667   4.967  0.3147 -0.3733 -0.7348
 3305TIP3    H131406   3.351   2.607   4.949  1.3889 -0.0382  2.3175
 3305TIP3    H231407   3.311   2.753   4.943 -0.2666 -0.6029 -2.4666
 3306TIP3   OH231408   0.311   1.426   3.521 -0.2545 -0.6278  0.2188
 3306TIP3    H131409   0.348   1.511   3.498  0.6624 -0.7984  1.0625
 3306TIP3    H231410   0.352   1.403   3.604  0.9936 -2.7968 -0.9413
 3307TIP3   OH231411   1.260   3.400  12.182 -0.8385 -0.0384 -0.4083
 3307TIP3    H131412   1.175   3.412  12.138 -0.6699 -1.2536 -1.0945
 3307TIP3    H231413   1.277   3.306  12.175 -1.1370 -0.3780  2.9218
 3308TIP3   OH231414   4.431   4.316  14.381  0.5211  0.3764  0.3630
 3308TIP3    H131415   4.427   4.363  14.464 -0.6623  1.8331 -0.5038
 3308TIP3    H231416   4.504   4.356  14.333  0.9476 -0.1961  0.5196
 3309TIP3   OH231417   5.981   1.926   4.786  0.2748  0.0784 -0.4207
 3309TIP3    H131418   6.033   1.959   4.713 -0.2453 -0.7971 -1.1863
 3309TIP3    H231419   5.913   1.991   4.798  0.7083  0.5210 -0.3243
 3310TIP3   OH231420   4.311   4.098   0.615 -0.4649 -0.2540  0.3369
 3310TIP3    H131421   4.361   4.044   0.677 -0.6905 -0.7296  0.1078
 3310TIP3    H231422   4.228   4.115   0.660 -1.4024 -2.2070 -0.5880
 3311TIP3   OH231423   5.837   3.083  14.578  0.0019 -0.1139  0.7421
 3311TIP3    H131424   5.892   3.160  14.564 -0.4919  0.3637  1.4267
 3311TIP3    H231425   5.780   3.080  14.501  1.1147 -0.7349 -0.0838
 3312TIP3   OH231426   2.474   4.608   2.810  0.1949  0.2827  0.7761
 3312TIP3    H131427   2.451   4.655   2.890  0.3543  0.3366  0.7885
 3312TIP3    H231428   2.539   4.543   2.837 -0.4890 -0.3735  0.8799
 3313TIP3   OH231429   6.603   1.845  13.238 -0.4884 -0.6167  0.4005
 3313TIP3    H131430   6.664   1.777  13.211  0.1250  0.0560  0.0875
 3313TIP3    H231431   6.523   1.798  13.261 -0.1801 -1.4083 -0.1444
 3314TIP3   OH231432   2.014   6.241  16.104 -0.5637 -0.3986 -0.5244
 3314TIP3    H131433   1.994   6.330  16.134 -0.4932  0.2888 -2.4823
 3314TIP3    H231434   1.936   6.190  16.126 -0.6709  0.1693  0.4533
 3315TIP3   OH231435   4.844   1.208   2.644  0.3448  0.6786  0.1027
 3315TIP3    H131436   4.765   1.245   2.605  0.3209  0.8487  0.3184
 3315TIP3    H231437   4.881   1.278   2.696 -0.7291 -0.1565  2.0600
 3316TIP3   OH231438   3.295   6.607   4.594  0.0676 -0.3810  0.4489
 3316TIP3    H131439   3.207   6.578   4.615  0.2415 -0.8429  0.5450
 3316TIP3    H231440   3.346   6.588   4.673  0.0703  0.6787  0.7186
 3317TIP3   OH231441   5.613   3.726   1.662  0.6129  0.4430 -0.1501
 3317TIP3    H131442   5.595   3.775   1.741 -0.0377 -1.5867  1.0038
 3317TIP3    H231443   5.585   3.783   1.590  1.2105  2.2817  1.0739
 3318TIP3   OH231444   4.958   4.478   3.334 -0.4782 -0.0386 -0.3740
 3318TIP3    H131445   4.925   4.388   3.341 -0.3966 -0.0555 -0.2004
 3318TIP3    H231446   4.927   4.509   3.249 -2.4617  0.5511  0.5320
 3319TIP3   OH231447   4.811   4.691   2.718 -0.3943  0.1989 -0.1931
 3319TIP3    H131448   4.849   4.631   2.655  0.1387 -1.9358  2.1040
 3319TIP3    H231449   4.752   4.637   2.771 -1.1222  2.0128  0.9080
 3320TIP3   OH231450   4.869   2.259   4.788  0.0328 -0.5761 -0.3323
 3320TIP3    H131451   4.794   2.308   4.821  0.3308 -1.0434  1.0472
 3320TIP3    H231452   4.838   2.168   4.781  0.1233 -0.5710 -0.8692
 3321TIP3   OH231453   1.403   5.831  14.017  0.1482  0.0435 -0.1158
 3321TIP3    H131454   1.448   5.915  14.022 -2.2129  1.3177  0.0127
 3321TIP3    H231455   1.361   5.831  13.932 -0.9285 -0.4497  0.4037
 3322TIP3   OH231456   0.762   6.626  16.745 -0.5180  0.3351  0.7794
 3322TIP3    H131457   0.768   6.593  16.656  0.3011  2.0886  0.1553
 3322TIP3    H231458   0.733   6.551  16.797 -0.5202 -0.8319 -0.8735
 3323TIP3   OH231459   2.945   1.770   2.089  0.2654  0.3258  0.6680
 3323TIP3    H131460   2.914   1.761   2.179  0.2482  2.7986  0.9372
 3323TIP3    H231461   3.035   1.738   2.091  0.0540 -0.2068  1.4341
 3324TIP3   OH231462   5.841   6.752  15.650  0.1506 -0.4818  0.0019
 3324TIP3    H131463   5.840   6.659  15.626  0.9979 -0.0372 -1.8444
 3324TIP3    H231464   5.755   6.784  15.622 -0.9998 -1.1703  2.6408
 3325TIP3   OH231465   1.297   3.260  14.384 -0.7941  0.5998 -0.7031
 3325TIP3    H131466   1.317   3.328  14.319 -0.0604  1.0393 -0.0226
 3325TIP3    H231467   1.256   3.307  14.456  1.2455  0.5906  0.5033
 3326TIP3   OH231468   2.601   3.888   1.610  0.8406 -0.5154 -0.4417
 3326TIP3    H131469   2.561   3.934   1.536 -1.6066  0.3000  1.3292
 3326TIP3    H231470   2.660   3.952   1.650  0.3398 -0.1780 -0.2485
 3327TIP3   OH231471   6.078   0.857   2.155  0.3673  0.4312  0.3544
 3327TIP3    H131472   6.149   0.914   2.124  0.1893  1.8986  2.4917
 3327TIP3    H231473   6.022   0.915   2.206 -1.5138 -1.0594  0.0117
 3328TIP3   OH231474   1.257   0.819   1.143 -0.2571 -0.0085 -0.1809
 3328TIP3    H131475   1.280   0.774   1.061  0.4203 -0.5719  0.3191
 3328TIP3    H231476   1.272   0.754   1.211  2.5561  1.5289  0.7499
 3329TIP3   OH231477   0.221   3.280   5.991 -0.0844 -0.2425 -0.1430
 3329TIP3    H131478   0.264   3.364   5.972 -0.7762  0.9397  3.1583
 3329TIP3    H231479   0.291   3.225   6.027 -0.1991 -0.1750  0.1824
 3330TIP3   OH231480   1.768   2.803  11.750 -0.2372  0.1945  0.2868
 3330TIP3    H131481   1.752   2.869  11.683  1.5559 -0.0373 -0.3871
 3330TIP3    H231482   1.849   2.761  11.724  1.1393  0.8654  3.1905
 3331TIP3   OH231483   4.950   4.821   3.953 -0.0019  0.0543  0.2833
 3331TIP3    H131484   4.870   4.771   3.939 -0.4371  1.0720 -0.9939
 3331TIP3    H231485   5.018   4.771   3.908 -0.1861 -0.0818  0.1570
 3332TIP3   OH231486   2.158   2.153   1.778 -0.5854 -0.4547 -0.5599
 3332TIP3    H131487   2.082   2.205   1.806  0.3332  1.0312 -0.7641
 3332TIP3    H231488   2.150   2.148   1.683 -0.3084 -0.1130 -0.6006
 3333TIP3   OH231489   4.769   0.424   1.557  0.2319  0.2744  0.3432
 3333TIP3    H131490   4.811   0.382   1.632 -1.0669  0.4710  1.2074
 3333TIP3    H231491   4.704   0.360   1.527 -0.0948  0.6895  0.1561
 3334TIP3   OH231492   0.693   4.927  13.164  0.1644 -0.2117 -0.0869
 3334TIP3    H131493   0.716   4.838  13.136 -1.1907 -0.1444 -1.4899
 3334TIP3    H231494   0.598   4.927  13.169  0.1900  1.0029  0.4647
 3335TIP3   OH231495   1.858   3.346   4.133  0.4727  0.1172  0.1041
 3335TIP3    H131496   1.861   3.391   4.217  3.6042  0.2753 -0.0445
 3335TIP3    H231497   1.815   3.263   4.151 -1.1411  1.1934  1.3246
 3336TIP3   OH231498   0.782   0.915   0.655 -0.1385 -0.2932  0.5036
 3336TIP3    H131499   0.818   0.916   0.744 -0.6135  0.4756  0.6926
 3336TIP3    H231500   0.835   0.978   0.607  1.5109 -2.2838 -0.3256
 3337TIP3   OH231501   0.100   2.639   5.386 -0.3096  0.1075  0.0441
 3337TIP3    H131502   0.070   2.680   5.467 -2.0558 -0.9779 -0.0311
 3337TIP3    H231503   0.066   2.550   5.390  1.0149 -0.4710 -1.1221
 3338TIP3   OH231504   0.363   4.261  12.679 -0.1771 -0.4292 -0.1291
 3338TIP3    H131505   0.284   4.308  12.653  0.7168 -0.6068 -3.3463
 3338TIP3    H231506   0.337   4.170  12.686 -0.3217 -0.4456 -0.8917
 3339TIP3   OH231507   2.384   5.943   0.748 -0.3186 -0.8621  0.3859
 3339TIP3    H131508   2.468   5.898   0.749  1.4034  2.1808  1.1653
 3339TIP3    H231509   2.339   5.913   0.827  0.6521 -1.4222  0.7282
 3340TIP3   OH231510   3.103   6.344  16.712  0.1532  0.0732  0.2919
 3340TIP3    H131511   3.112   6.253  16.741 -0.9547 -0.3932 -0.7928
 3340TIP3    H231512   3.040   6.382  16.772  2.1487  0.7275  2.0400
 3341TIP3   OH231513   5.416   1.540  13.253 -0.1834  0.0285  0.4778
 3341TIP3    H131514   5.394   1.539  13.346 -1.9095  0.1090  0.0869
 3341TIP3    H231515   5.390   1.627  13.223  0.2073 -0.0551 -0.1139
 3342TIP3   OH231516   5.669   4.854  15.974  0.4534  0.5144  0.3938
 3342TIP3    H131517   5.742   4.865  15.913 -0.7728  1.6065 -0.9173
 3342TIP3    H231518   5.681   4.766  16.011  0.6205 -0.6274 -2.2491
 3343TIP3   OH231519   3.512   5.238  16.568  0.7845  0.7578  0.4852
 3343TIP3    H131520   3.602   5.246  16.600  0.3164  0.9350  1.8021
 3343TIP3    H231521   3.485   5.150  16.596  0.7594  0.4441 -0.4907
 3344TIP3   OH231522   4.380   1.094  10.730  0.5219 -0.7409  0.0055
 3344TIP3    H131523   4.348   1.107  10.641  0.3470 -0.6530  0.0810
 3344TIP3    H231524   4.445   1.163  10.742  0.0494 -0.3271  0.1886
 3345TIP3   OH231525   3.262   0.284   0.020 -0.2765  0.0849  0.2995
 3345TIP3    H131526   3.269   0.359  -0.039 -1.4310 -1.0827 -1.3661
 3345TIP3    H231527   3.243   0.322   0.105 -1.6451  1.6443 -0.6697
 3346TIP3   OH231528   3.847   5.403   5.731 -0.3688  0.1470 -0.1974
 3346TIP3    H131529   3.822   5.412   5.823 -1.2361  0.6782 -0.4710
 3346TIP3    H231530   3.782   5.456   5.683  0.8946  1.0120 -0.9990
 3347TIP3   OH231531   2.951   6.374   5.280  0.7548 -0.5149  0.6572
 3347TIP3    H131532   3.027   6.424   5.310  0.6795 -1.7013  2.8941
 3347TIP3    H231533   2.883   6.440   5.267  2.2029  0.6037 -1.6733
 3348TIP3   OH231534   6.334   0.245  15.730  0.0858  0.4424  0.0581
 3348TIP3    H131535   6.313   0.339  15.725  0.5548  0.6340  1.5092
 3348TIP3    H231536   6.251   0.201  15.711 -0.1582  1.1474 -0.5456
 3349TIP3   OH231537   4.207   5.317  10.999  0.5537 -0.5527  0.2960
 3349TIP3    H131538   4.137   5.287  11.057 -1.1755  1.4303 -0.7045
 3349TIP3    H231539   4.169   5.313  10.912  0.8542  2.7024 -0.0425
 3350TIP3   OH231540   1.883   0.096  12.698  0.1014  0.3951 -0.2805
 3350TIP3    H131541   1.843   0.023  12.745 -0.6310  1.4665  0.7597
 3350TIP3    H231542   1.821   0.115  12.627 -0.0473  0.4510 -0.1364
 3351TIP3   OH231543   0.482   5.713  11.702 -0.1238 -0.7633 -0.2759
 3351TIP3    H131544   0.517   5.755  11.623 -0.2613  0.0527  0.0963
 3351TIP3    H231545   0.537   5.635  11.713  1.1339  0.1194 -0.1036
 3352TIP3   OH231546   3.808   5.783   6.288  0.6329  0.8253  0.3086
 3352TIP3    H131547   3.861   5.706   6.268 -0.0786  0.2716  0.5504
 3352TIP3    H231548   3.851   5.854   6.240 -0.8001 -0.4088 -2.9728
 3353TIP3   OH231549   4.031   1.315  13.052  0.5263  0.3149 -0.3926
 3353TIP3    H131550   4.076   1.389  13.012  1.4608  0.9259  1.7390
 3353TIP3    H231551   3.953   1.353  13.092  1.5993  0.3532  1.7012
 3354TIP3   OH231552   1.149   6.072   0.604  0.0072  0.0150  0.2244
 3354TIP3    H131553   1.211   5.999   0.592 -0.9378 -0.9134  0.9007
 3354TIP3    H231554   1.199   6.150   0.579  1.6252 -0.6636  1.2814
 3355TIP3   OH231555   0.554   5.216   4.771 -0.2391  0.4369  0.4392
 3355TIP3    H131556   0.549   5.212   4.867 -0.1792 -2.7678  0.3599
 3355TIP3    H231557   0.468   5.246   4.744 -0.2360  1.4368  1.5099
 3356TIP3   OH231558   1.082   6.618  15.045  0.2054  0.0230 -0.1237
 3356TIP3    H131559   1.013   6.650  14.986  0.8415 -0.7290 -1.2926
 3356TIP3    H231560   1.157   6.605  14.988  1.6983  1.9356  1.3260
 3357TIP3   OH231561   1.313   2.268  16.137 -0.7049 -0.4048  0.8373
 3357TIP3    H131562   1.397   2.291  16.097 -0.7196 -0.3248  0.8524
 3357TIP3    H231563   1.261   2.347  16.131 -0.5687 -0.2728  1.3830
 3358TIP3   OH231564   0.979   3.864   5.567  0.6151 -0.2723 -0.4463
 3358TIP3    H131565   0.896   3.830   5.532  1.1894 -1.0308 -1.0956
 3358TIP3    H231566   1.011   3.924   5.499  1.0886 -0.7503 -0.6499
 3359TIP3   OH231567   4.843   4.705   0.138  0.2512  0.2875  0.1618
 3359TIP3    H131568   4.840   4.661   0.223  1.1377 -0.1899 -0.0430
 3359TIP3    H231569   4.804   4.642   0.077 -1.0506  0.9163  0.3208
 3360TIP3   OH231570   4.959   6.455   2.017  0.8353 -0.2000  0.0244
 3360TIP3    H131571   5.014   6.435   2.092  3.0087  0.2418 -1.4104
 3360TIP3    H231572   4.995   6.402   1.946  0.2469  1.1136 -1.2798
 3361TIP3   OH231573   2.272   4.232   1.645 -0.3735  1.0055 -0.4059
 3361TIP3    H131574   2.285   4.213   1.738 -1.6774  0.4959 -0.3029
 3361TIP3    H231575   2.300   4.323   1.634  1.7639  0.4158  0.0414
 3362TIP3   OH231576   4.532   3.626   2.390  0.3273  0.5971 -0.1068
 3362TIP3    H131577   4.544   3.546   2.339 -1.0900  0.6202 -0.4824
 3362TIP3    H231578   4.507   3.693   2.326 -0.3187  0.8983  0.4512
 3363TIP3   OH231579   1.558   4.902  16.482 -0.4706 -0.0238  0.1220
 3363TIP3    H131580   1.500   4.973  16.510 -0.3609 -0.8692  2.5869
 3363TIP3    H231581   1.500   4.835  16.448 -0.9049 -0.4137  1.5763
 3364TIP3   OH231582   6.383   3.573   6.908  0.3044 -0.3831  0.0633
 3364TIP3    H131583   6.469   3.598   6.941  0.2514  1.0121 -0.7983
 3364TIP3    H231584   6.331   3.654   6.914 -0.0151 -0.3705 -2.4104
 3365TIP3   OH231585   3.023   6.317   1.517 -0.5484  0.7500 -0.2690
 3365TIP3    H131586   3.064   6.395   1.480  0.3092  1.3868  1.9421
 3365TIP3    H231587   3.064   6.244   1.471 -1.2421  1.5824 -2.2472
 3366TIP3   OH231588   2.023   3.578  16.161 -0.1363 -0.0959 -0.1476
 3366TIP3    H131589   2.075   3.638  16.215  0.6922 -0.3822 -0.6136
 3366TIP3    H231590   2.039   3.608  16.071 -2.3560  1.0516 -0.2009
 3367TIP3   OH231591   3.121   6.711  10.560  0.2393  0.2144  0.7258
 3367TIP3    H131592   3.212   6.685  10.575  1.4886  2.9498 -1.4208
 3367TIP3    H231593   3.084   6.639  10.508  1.7886 -0.0731 -0.0336
 3368TIP3   OH231594   4.286   0.317  12.521  0.0616 -0.0220 -0.0982
 3368TIP3    H131595   4.371   0.360  12.530  0.7077 -1.6116  1.6594
 3368TIP3    H231596   4.306   0.232  12.482 -0.5738 -0.8327  1.3050
 3369TIP3   OH231597   1.598   1.906  16.014  0.3195  0.1100 -0.5693
 3369TIP3    H131598   1.531   1.948  16.067 -0.2059 -0.4821 -0.7488
 3369TIP3    H231599   1.662   1.974  15.996 -0.6589  0.9048 -1.0897
 3370TIP3   OH231600   2.310   6.190  13.911  0.0703  0.1834 -0.1745
 3370TIP3    H131601   2.277   6.230  13.831  2.2437 -1.9798 -2.2300
 3370TIP3    H231602   2.384   6.245  13.937  0.3710 -0.0358 -0.5655
 3371TIP3   OH231603   6.191   5.382  13.229  0.0322 -0.0938  0.4448
 3371TIP3    H131604   6.114   5.376  13.285  1.0710 -1.6872  1.7549
 3371TIP3    H231605   6.262   5.405  13.288  1.0465 -1.2002 -0.3200
 3372TIP3   OH231606   1.610   4.878   2.019 -0.2097 -0.5493  0.8063
 3372TIP3    H131607   1.665   4.931   2.076 -0.0207  0.8402 -0.6431
 3372TIP3    H231608   1.671   4.833   1.961 -0.5770  1.7295 -1.4420
 3373TIP3   OH231609   4.319   6.533   3.733  0.3568 -0.6710 -0.1450
 3373TIP3    H131610   4.378   6.465   3.763  3.5476  1.2080 -1.9243
 3373TIP3    H231611   4.297   6.582   3.812  0.5744 -1.8242  0.6388
 3374TIP3   OH231612   5.714   2.638   5.257 -0.0125  0.0306  0.4787
 3374TIP3    H131613   5.632   2.593   5.275  0.1782  0.2349  1.9309
 3374TIP3    H231614   5.762   2.635   5.340  1.2095  0.3994 -0.1953
 3375TIP3   OH231615   3.199   4.984  11.448 -0.0583  0.1727 -0.2983
 3375TIP3    H131616   3.269   5.033  11.405  0.7429  0.4285  1.2794
 3375TIP3    H231617   3.212   4.894  11.420 -0.2333  0.4967 -1.4786
 3376TIP3   OH231618   6.081   4.002   5.243  0.0967 -0.0867  0.5606
 3376TIP3    H131619   6.170   4.008   5.211 -0.1508  0.0395 -0.1118
 3376TIP3    H231620   6.082   4.047   5.327  0.6767 -0.1416  0.5805
 3377TIP3   OH231621   1.647   4.121   5.540 -0.5150 -0.6147  0.0971
 3377TIP3    H131622   1.661   4.152   5.629  1.2773 -0.9461 -0.0519
 3377TIP3    H231623   1.619   4.030   5.551 -0.9304 -0.4590  0.3410
 3378TIP3   OH231624   6.019   4.053   1.086  0.2176  0.0820 -0.1346
 3378TIP3    H131625   5.992   4.119   1.150 -3.1633 -1.4068  0.1237
 3378TIP3    H231626   6.067   3.989   1.136 -0.2952  0.1607  0.4651
 3379TIP3   OH231627   2.010   1.535   2.399 -0.2121 -0.4963  0.0353
 3379TIP3    H131628   1.997   1.611   2.455 -2.6861 -0.4991 -0.4591
 3379TIP3    H231629   1.970   1.560   2.315 -2.2335 -2.7800  0.2616
 3380TIP3   OH231630   0.097   4.288   4.738 -0.1911  0.4315 -0.4175
 3380TIP3    H131631   0.052   4.364   4.702 -0.2380  0.5751 -0.0532
 3380TIP3    H231632   0.028   4.236   4.780  0.2871  1.7464  2.0794
 3381TIP3   OH231633   5.525   6.800  16.942 -0.0467 -0.7130  0.1175
 3381TIP3    H131634   5.494   6.799  16.852  0.6350 -0.4762 -0.1229
 3381TIP3    H231635   5.616   6.770  16.937  0.3963  0.5118  0.5630
 3382TIP3   OH231636   3.781   4.011   3.612 -0.2000  0.6843  0.4474
 3382TIP3    H131637   3.861   4.053   3.579 -0.7979  0.8663 -0.8342
 3382TIP3    H231638   3.807   3.968   3.693  0.8652  1.9576  0.7940
 3383TIP3   OH231639   0.210   1.422  14.312  0.6239  0.1451 -0.7109
 3383TIP3    H131640   0.275   1.404  14.244 -0.0034  0.9601 -1.5445
 3383TIP3    H231641   0.125   1.409  14.268  0.1494 -4.5367  1.3192
 3384TIP3   OH231642   1.093   1.809   1.649 -0.5608 -0.1886  0.0503
 3384TIP3    H131643   1.054   1.848   1.727  0.7334 -0.7966  1.0240
 3384TIP3    H231644   1.038   1.733   1.630 -1.8557  0.8948 -0.6269
 3385TIP3   OH231645   3.049   2.753   6.596  0.0824  0.2659  0.4802
 3385TIP3    H131646   3.051   2.845   6.621 -0.4838  0.1120  1.1290
 3385TIP3    H231647   3.106   2.747   6.519 -1.7840  1.6152 -1.0640
 3386TIP3   OH231648   5.269   6.631  12.826  0.2798 -0.1527  0.2552
 3386TIP3    H131649   5.250   6.700  12.762  1.2124 -1.0338 -1.0085
 3386TIP3    H231650   5.289   6.677  12.907  2.3603  1.1439 -0.9445
 3387TIP3   OH231651   2.557   2.198  13.696  0.2608  0.4652 -0.5612
 3387TIP3    H131652   2.470   2.169  13.667 -0.3291 -0.0613  1.6321
 3387TIP3    H231653   2.615   2.172  13.625 -1.3445  0.6588 -1.9955
 3388TIP3   OH231654   2.857   6.102  11.253  0.4529  0.8134  0.3954
 3388TIP3    H131655   2.841   6.167  11.184 -0.9351  0.3123  0.2207
 3388TIP3    H231656   2.773   6.095  11.299  0.1898 -1.8245 -0.4236
 3389TIP3   OH231657   1.856   4.834  14.525 -0.3072  0.1093  0.5186
 3389TIP3    H131658   1.895   4.888  14.457  1.0870 -0.3875  0.8984
 3389TIP3    H231659   1.929   4.783  14.560 -1.7030 -2.5985 -0.3344
 3390TIP3   OH231660   1.780   2.181   1.746  0.4135 -0.3219  0.7043
 3390TIP3    H131661   1.718   2.111   1.726  1.6065 -1.4953  1.0455
 3390TIP3    H231662   1.752   2.213   1.832 -1.3986  1.0479 -0.3755
 3391TIP3   OH231663   3.952   0.897   2.645 -0.1389  0.6731 -0.2121
 3391TIP3    H131664   4.002   0.909   2.726  0.7311  0.8622 -0.7827
 3391TIP3    H231665   3.888   0.829   2.667  0.9618 -0.2282  0.2486
 3392TIP3   OH231666   5.488   3.204  15.174 -0.1771  0.4254 -0.4979
 3392TIP3    H131667   5.535   3.139  15.227 -2.5700 -1.9801 -1.2076
 3392TIP3    H231668   5.557   3.257  15.134  1.7342  0.5109  2.8051
 3393TIP3   OH231669   2.103   0.600  11.215  0.0366  0.7477  0.0004
 3393TIP3    H131670   2.016   0.638  11.206  0.3756  1.7095  0.6360
 3393TIP3    H231671   2.089   0.520  11.265 -0.4100  1.2628  0.7260
 3394TIP3   OH231672   5.411   5.367   0.827  0.3806 -0.5465 -0.4084
 3394TIP3    H131673   5.365   5.426   0.885  1.9141  0.3792 -0.1006
 3394TIP3    H231674   5.435   5.421   0.752 -0.4025 -1.4026 -1.2942
 3395TIP3   OH231675   5.988   6.105   3.344 -0.4078 -0.1944 -0.0346
 3395TIP3    H131676   5.969   6.115   3.251 -1.4819  0.7921  0.2716
 3395TIP3    H231677   5.913   6.144   3.388  0.4346  0.0243  1.2465
 3396TIP3   OH231678   6.336   4.496   2.172 -0.2251 -0.3025 -1.0478
 3396TIP3    H131679   6.270   4.508   2.241  0.3978 -1.1796 -0.2854
 3396TIP3    H231680   6.315   4.411   2.134 -0.0010 -0.2323 -1.3281
 3397TIP3   OH231681   4.072   0.235  14.938 -0.5033  0.2309 -0.1254
 3397TIP3    H131682   4.077   0.140  14.929 -0.9829  0.1968 -0.0100
 3397TIP3    H231683   3.978   0.255  14.943 -0.5274  0.8976 -2.3531
 3398TIP3   OH231684   2.525   5.127  13.295 -0.6541  0.1186  0.1571
 3398TIP3    H131685   2.586   5.129  13.221  0.4048  0.9166  1.0390
 3398TIP3    H231686   2.487   5.039  13.291  0.1373 -0.2019 -0.7464
 3399TIP3   OH231687   0.097   6.141  13.475  0.0422  0.0262 -0.7215
 3399TIP3    H131688   0.130   6.186  13.397  0.1625 -0.9502 -1.2447
 3399TIP3    H231689   0.016   6.098  13.446 -1.3892  1.9003  0.4050
 3400TIP3   OH231690   4.797   4.814   5.500  0.2997  0.1476 -0.3539
 3400TIP3    H131691   4.718   4.762   5.488 -0.2983  0.9002  0.3267
 3400TIP3    H231692   4.851   4.761   5.559  0.0687 -0.1026 -0.3638
 3401TIP3   OH231693   1.706   6.804   2.840 -0.5832  0.4331  0.0135
 3401TIP3    H131694   1.616   6.771   2.837 -0.4520 -0.1793  2.0485
 3401TIP3    H231695   1.698   6.892   2.878 -0.3527  0.4458  0.0346
 3402TIP3   OH231696   6.570   1.493   6.423 -0.2112  0.8668  0.0869
 3402TIP3    H131697   6.598   1.559   6.486 -0.2283  0.7266  0.2442
 3402TIP3    H231698   6.625   1.507   6.347  0.7723  0.1447  0.6588
 3403TIP3   OH231699   3.677   6.663   2.303 -0.2904 -0.7323  1.1211
 3403TIP3    H131700   3.625   6.585   2.286  0.6485 -1.4049  1.3197
 3403TIP3    H231701   3.737   6.638   2.373  0.8904 -0.2361  0.3159
 3404TIP3   OH231702   2.804   4.700   5.226 -0.0265  0.4606 -0.5799
 3404TIP3    H131703   2.718   4.716   5.264 -0.3507  0.5672 -1.3589
 3404TIP3    H231704   2.864   4.706   5.301 -0.8298 -1.0472  0.2114
 3405TIP3   OH231705   1.280   0.124  12.512 -0.2122  0.7378 -0.1448
 3405TIP3    H131706   1.319   0.099  12.595 -0.1765  0.0163 -0.3786
 3405TIP3    H231707   1.334   0.081  12.445 -1.0795  0.1593 -0.4845
 3406TIP3   OH231708   2.260   2.879   2.407  0.1650  0.4190 -0.6022
 3406TIP3    H131709   2.220   2.803   2.366  0.6205  0.2211 -0.6780
 3406TIP3    H231710   2.249   2.950   2.344  1.5165 -0.0545 -1.3854
 3407TIP3   OH231711   1.618   2.877  15.064  0.1505  0.6083 -0.1615
 3407TIP3    H131712   1.546   2.940  15.066 -0.1445  0.3001 -0.8993
 3407TIP3    H231713   1.634   2.856  15.156  0.2170  1.7128  0.0864
 3408TIP3   OH231714   6.545   6.802   0.385 -0.1652 -0.6938 -0.0253
 3408TIP3    H131715   6.597   6.861   0.331  0.7832 -0.3811  1.2039
 3408TIP3    H231716   6.513   6.735   0.325 -0.6599  0.6707 -1.3041
 3409TIP3   OH231717   0.838   1.516  16.082 -0.0680 -0.0513 -0.0461
 3409TIP3    H131718   0.895   1.439  16.082 -1.0996 -0.8320  1.2447
 3409TIP3    H231719   0.893   1.587  16.116  0.8428 -0.2276 -1.1192
 3410TIP3   OH231720   3.028   2.635  15.627 -0.1478 -0.6525 -0.6773
 3410TIP3    H131721   3.007   2.592  15.709 -0.8817  1.4335  0.2725
 3410TIP3    H231722   3.023   2.566  15.561  1.3492 -2.5423  1.1350
 3411TIP3   OH231723   2.355   1.437   0.642 -0.3223  0.0800 -0.1680
 3411TIP3    H131724   2.329   1.429   0.551  0.3837 -0.1350 -0.3500
 3411TIP3    H231725   2.398   1.522   0.647 -1.9027  0.8778  0.3428
 3412TIP3   OH231726   5.521   2.060  11.079  0.1228 -0.0628  0.1230
 3412TIP3    H131727   5.566   2.041  10.997 -2.9768 -1.4223 -1.3334
 3412TIP3    H231728   5.445   2.112  11.053 -1.4801 -1.4186  1.9833
 3413TIP3   OH231729   3.374   5.341  15.238  0.5368 -0.2694 -0.5015
 3413TIP3    H131730   3.412   5.308  15.319 -1.7265 -1.0994  0.2614
 3413TIP3    H231731   3.333   5.424  15.264 -0.7532 -0.8602 -0.6453
 3414TIP3   OH231732   2.658   0.002   3.919 -0.2460  0.1349  0.1311
 3414TIP3    H131733   2.570   0.011   3.954 -0.3337  0.0299 -0.0642
 3414TIP3    H231734   2.668   0.075   3.858  0.6309  1.5383  1.8912
 3415TIP3   OH231735   1.704   0.522  11.241 -0.1591 -0.0478 -0.6660
 3415TIP3    H131736   1.768   0.452  11.251  1.1799  0.6806 -3.5409
 3415TIP3    H231737   1.631   0.482  11.192  0.0297  0.2029 -1.1621
 3416TIP3   OH231738   1.382   0.288   0.213 -0.2472  0.0059 -0.6348
 3416TIP3    H131739   1.289   0.291   0.191 -0.2062 -0.2893 -0.8497
 3416TIP3    H231740   1.420   0.228   0.149 -0.0034 -0.2990 -0.2090
 3417TIP3   OH231741   6.764   4.392  11.941  0.2666 -0.4194 -0.2796
 3417TIP3    H131742   6.810   4.440  12.011 -0.5731 -1.3401  0.9235
 3417TIP3    H231743   6.829   4.385  11.871  1.2342  0.2444  0.5239
 3418TIP3   OH231744   3.943   2.198  16.082  0.4746 -0.2452  0.6546
 3418TIP3    H131745   3.873   2.165  16.138  1.9316 -0.6642  2.2813
 3418TIP3    H231746   4.013   2.223  16.143  2.5670 -1.8005 -1.0191
 3419TIP3   OH231747   0.597   0.649  14.280  0.3316 -0.1478  0.0816
 3419TIP3    H131748   0.662   0.717  14.297  0.5017  0.2654 -2.0993
 3419TIP3    H231749   0.646   0.567  14.288  0.5969  0.0605  0.6464
 3420TIP3   OH231750   4.454   2.238   6.377 -0.1021  0.1222 -0.4617
 3420TIP3    H131751   4.505   2.168   6.419 -4.1353 -2.2172  0.7290
 3420TIP3    H231752   4.459   2.218   6.283  0.9684 -0.2119 -0.3414
 3421TIP3   OH231753   4.200   2.912   1.169  0.1114  0.0862  0.3008
 3421TIP3    H131754   4.191   2.936   1.076 -2.2361 -0.6504  0.2982
 3421TIP3    H231755   4.220   2.995   1.213  0.5984  0.5548 -0.7769
 3422TIP3   OH231756   3.473   4.579  11.066 -0.0821  0.4647  0.6528
 3422TIP3    H131757   3.403   4.514  11.080  1.3365 -1.0352  0.8733
 3422TIP3    H231758   3.435   4.642  11.005 -1.1438 -1.1135 -0.3575
 3423TIP3   OH231759   3.012   3.470  17.029 -0.3991  0.4707 -1.0245
 3423TIP3    H131760   3.100   3.434  17.043 -1.1268 -1.8206 -1.9648
 3423TIP3    H231761   2.964   3.446  17.108 -0.4784  0.7586 -0.9844
 3424TIP3   OH231762   4.313   6.253   5.759  0.0730  0.0152  0.2436
 3424TIP3    H131763   4.370   6.327   5.778 -0.8263  0.7884 -0.0376
 3424TIP3    H231764   4.320   6.242   5.664  0.8064 -0.7550  0.3869
 3425TIP3   OH231765   2.035   1.166  15.033 -0.2979 -0.8883  0.7675
 3425TIP3    H131766   2.059   1.258  15.045 -2.1764 -0.0296 -1.6126
 3425TIP3    H231767   1.970   1.149  15.101  0.5217 -0.6381  1.6128
 3426TIP3   OH231768   5.951   6.429   3.891  0.1140  0.1832  0.5065
 3426TIP3    H131769   5.996   6.358   3.846  1.2148  0.6480  0.8551
 3426TIP3    H231770   5.889   6.463   3.826 -1.5154 -2.0713  0.8472
 3427TIP3   OH231771   6.615   2.124   1.782 -0.0375 -0.2583 -0.2251
 3427TIP3    H131772   6.669   2.153   1.855  1.0293 -2.1168 -0.2481
 3427TIP3    H231773   6.552   2.195   1.770  1.7375  1.5005  0.4559
 3428TIP3   OH231774   2.360   2.905  16.608  0.0820  0.1221 -0.4980
 3428TIP3    H131775   2.370   2.811  16.619 -1.0075  0.1826  1.2485
 3428TIP3    H231776   2.273   2.916  16.569  0.7212  0.3399 -1.8685
 3429TIP3   OH231777   0.987   5.419   6.031 -0.0193  0.5918 -0.1802
 3429TIP3    H131778   0.990   5.512   6.050 -0.3322  0.3556  1.0201
 3429TIP3    H231779   1.072   5.400   5.990  1.0219  0.9217  1.8029
 3430TIP3   OH231780   2.638   2.186  11.935  0.2908 -0.4838 -0.0050
 3430TIP3    H131781   2.703   2.252  11.915  0.3868 -0.2126  1.1572
 3430TIP3    H231782   2.583   2.182  11.857  0.7795  0.3618 -0.4028
 3431TIP3   OH231783   3.438   5.329   1.732 -0.2426 -0.2114 -0.1549
 3431TIP3    H131784   3.369   5.351   1.794  0.5782  0.0016  0.6951
 3431TIP3    H231785   3.519   5.344   1.780  0.4522  1.6671 -1.8066
 3432TIP3   OH231786   1.860   6.807  12.004  0.6356  0.8462  0.0707
 3432TIP3    H131787   1.901   6.837  12.085  0.6738  1.2135 -0.0861
 3432TIP3    H231788   1.930   6.812  11.938  0.8356 -0.2371  0.1900
 3433TIP3   OH231789   3.910   2.741  14.097 -0.1226 -0.5022  0.6774
 3433TIP3    H131790   3.940   2.742  14.007 -0.4605 -0.9593  0.5544
 3433TIP3    H231791   3.848   2.813  14.103  2.6075  1.8433  1.5058
 3434TIP3   OH231792   2.806   5.747   2.233 -0.1218 -0.0335  0.2441
 3434TIP3    H131793   2.740   5.730   2.165  0.6928 -0.0066 -0.5557
 3434TIP3    H231794   2.876   5.685   2.214  0.3185  0.2973  0.7905
 3435TIP3   OH231795   5.784   6.438  17.024 -0.0343 -0.0361  0.0333
 3435TIP3    H131796   5.827   6.437  16.939  0.5277 -1.2538  0.3205
 3435TIP3    H231797   5.701   6.393  17.010 -0.6933  1.2166 -0.2319
 3436TIP3   OH231798   2.721   3.198   3.825 -0.2506  0.1591  0.4534
 3436TIP3    H131799   2.671   3.116   3.821  0.5461 -0.3003 -0.2249
 3436TIP3    H231800   2.770   3.192   3.908  1.0463 -0.7980 -0.3549
 3437TIP3   OH231801   0.801   2.168  13.170  0.2109 -0.2159 -0.2724
 3437TIP3    H131802   0.735   2.198  13.232  1.7954 -0.3433  1.5265
 3437TIP3    H231803   0.823   2.247  13.119 -0.7711 -0.0026 -0.3693
 3438TIP3   OH231804   2.682   6.656  13.528  0.3999 -0.0775  0.4597
 3438TIP3    H131805   2.757   6.643  13.587  1.8095 -0.8167 -1.4505
 3438TIP3    H231806   2.655   6.568  13.505 -0.3820  0.2098  0.2797
 3439TIP3   OH231807   2.953   5.640  13.428  0.1520  0.3046 -0.1405
 3439TIP3    H131808   2.927   5.552  13.399 -2.3945  0.5684  1.1866
 3439TIP3    H231809   2.915   5.649  13.515 -2.7978  4.0315 -1.6532
 3440TIP3   OH231810   2.162   0.157  12.070 -0.3688 -0.3561  0.2009
 3440TIP3    H131811   2.188   0.066  12.084  1.3370  0.0583 -0.2001
 3440TIP3    H231812   2.100   0.176  12.141  0.9667 -1.1485  1.5964
 3441TIP3   OH231813   3.138   3.281   1.963  0.1954  0.1800 -0.1808
 3441TIP3    H131814   3.222   3.277   2.008 -0.0652 -0.6262  0.2374
 3441TIP3    H231815   3.160   3.280   1.870  0.6462 -0.0698 -0.0730
 3442TIP3   OH231816   5.171   0.147   2.036 -0.0757 -0.0499 -0.8599
 3442TIP3    H131817   5.190   0.056   2.059 -0.6978 -0.1134 -0.5655
 3442TIP3    H231818   5.076   0.148   2.021 -0.1478  0.6519 -0.3767
 3443TIP3   OH231819   3.712   6.480  13.085  0.4391 -0.1090  0.1724
 3443TIP3    H131820   3.617   6.486  13.076  0.4819 -0.8918 -0.9698
 3443TIP3    H231821   3.739   6.567  13.115 -0.6650  0.0360  0.7622
 3444TIP3   OH231822   0.378   0.587   5.049 -0.5148  0.1100 -0.0256
 3444TIP3    H131823   0.459   0.628   5.019 -0.3262 -0.2246  0.0291
 3444TIP3    H231824   0.378   0.598   5.144 -0.1726 -0.5438  0.0540
 3445TIP3   OH231825   0.318   5.911   4.848  0.0467 -0.5893  0.4055
 3445TIP3    H131826   0.268   5.986   4.881  0.1025 -0.7430  0.8491
 3445TIP3    H231827   0.254   5.857   4.803  0.3338  0.6404 -1.5415
 3446TIP3   OH231828   3.991   6.201   2.453  0.7961  0.0185  0.0856
 3446TIP3    H131829   4.004   6.269   2.388 -0.2359  0.0583 -0.0728
 3446TIP3    H231830   3.909   6.159   2.429  1.3386 -1.1767  0.2767
 3447TIP3   OH231831   2.296   5.124  15.813 -0.4322 -0.5947 -0.0427
 3447TIP3    H131832   2.322   5.128  15.721 -1.9771  0.6624 -0.4510
 3447TIP3    H231833   2.352   5.057  15.851  1.7585  0.4124 -1.3930
 3448TIP3   OH231834   5.994   5.822  11.849 -0.3910  0.2327 -0.1535
 3448TIP3    H131835   5.976   5.841  11.757  0.7411 -1.0414 -0.6613
 3448TIP3    H231836   5.939   5.746  11.869 -0.0439  0.0109 -0.0246
 3449TIP3   OH231837   4.538   2.197   5.094  0.2058  0.0771 -0.4296
 3449TIP3    H131838   4.473   2.138   5.056  0.1518 -0.7430  0.8967
 3449TIP3    H231839   4.612   2.140   5.115  0.0631  0.4216  1.0762
 3450TIP3   OH231840   5.479   4.226   0.984 -0.5987 -0.3205 -0.0478
 3450TIP3    H131841   5.538   4.189   1.050 -1.0126  0.5362  0.8202
 3450TIP3    H231842   5.414   4.274   1.035 -2.0820 -1.2941 -0.9960
 3451TIP3   OH231843   1.216   5.455   3.038  0.0728 -0.0268 -0.0668
 3451TIP3    H131844   1.167   5.373   3.049  1.8152 -1.1401 -0.5273
 3451TIP3    H231845   1.292   5.445   3.096  0.7110  0.9205 -0.7406
 3452TIP3   OH231846   2.938   3.141   5.771 -0.7036 -0.0868  0.2951
 3452TIP3    H131847   2.881   3.146   5.848 -0.1682  0.0573  0.6866
 3452TIP3    H231848   2.881   3.166   5.698 -1.0396  0.4584  0.7362
 3453TIP3   OH231849   4.197   2.775  12.137 -0.9522  0.3639  0.0221
 3453TIP3    H131850   4.149   2.724  12.202 -0.2862 -1.4980 -0.9126
 3453TIP3    H231851   4.152   2.756  12.054  0.0930  0.2815 -0.5285
 3454TIP3   OH231852   5.355   4.895   6.032 -0.2610  0.7871 -0.3580
 3454TIP3    H131853   5.401   4.903   6.116  1.1167 -1.1433 -0.8917
 3454TIP3    H231854   5.306   4.813   6.040  0.0617  0.4725 -1.4963
 3455TIP3   OH231855   1.820   0.250  16.677 -0.4069 -0.0371 -0.8841
 3455TIP3    H131856   1.746   0.284  16.727  0.8533  2.1917 -0.4737
 3455TIP3    H231857   1.856   0.180  16.731 -2.4871 -1.4963 -1.3146
 3456TIP3   OH231858   1.934   3.003  14.965  0.0667  0.5460 -0.7747
 3456TIP3    H131859   1.995   2.932  14.985  0.3469  0.9450 -0.2043
 3456TIP3    H231860   1.911   3.040  15.051 -1.6508 -0.1588 -0.8927
 3457TIP3   OH231861   1.855   3.755  14.078 -0.6255  0.3850 -0.5892
 3457TIP3    H131862   1.774   3.746  14.027 -0.9496  0.9990 -0.1783
 3457TIP3    H231863   1.865   3.849  14.091  0.1087  0.3062 -0.5562
 3458TIP3   OH231864   4.370   3.953  12.227  0.2221 -0.3241  0.2252
 3458TIP3    H131865   4.351   4.044  12.249  0.4626 -0.2598  0.1703
 3458TIP3    H231866   4.284   3.912  12.220  0.1202 -0.1660  0.5169
 3459TIP3   OH231867   1.547   2.766   4.442  0.1083 -0.3238 -0.7205
 3459TIP3    H131868   1.478   2.715   4.399  1.2886 -1.4248 -1.3703
 3459TIP3    H231869   1.612   2.700   4.467  2.4857  1.0393 -3.1271
 3460TIP3   OH231870   1.576   3.937   3.324 -0.1237  0.6177 -0.3619
 3460TIP3    H131871   1.627   3.896   3.394 -0.3511  1.4340  0.2908
 3460TIP3    H231872   1.505   3.982   3.370 -2.5750 -2.0718 -1.3538
 3461TIP3   OH231873   5.739   5.593  12.805 -0.6234 -0.2225  0.1100
 3461TIP3    H131874   5.706   5.615  12.718  1.8715  1.5477 -0.4408
 3461TIP3    H231875   5.742   5.677  12.851  2.6988 -0.3368  0.2231
 3462TIP3   OH231876   2.141   5.152   1.363  0.0769 -0.8938 -0.1085
 3462TIP3    H131877   2.171   5.142   1.272  0.6698 -0.6092  0.0529
 3462TIP3    H231878   2.148   5.064   1.400 -1.8833 -1.3978 -0.8450
 3463TIP3   OH231879   6.800   3.397   3.222 -0.0684 -0.3147  0.1205
 3463TIP3    H131880   6.715   3.431   3.247  0.2999  1.7535 -1.3133
 3463TIP3    H231881   6.789   3.302   3.223 -2.2252 -0.0841  0.4634
 3464TIP3   OH231882   2.654   0.905  16.886 -0.1148  0.0763  0.0282
 3464TIP3    H131883   2.675   0.957  16.809  0.6643  0.4760  0.5179
 3464TIP3    H231884   2.560   0.921  16.900  0.0856  1.2380  0.0981
 3465TIP3   OH231885   3.817   6.610  15.599  0.2492 -0.0045  0.0343
 3465TIP3    H131886   3.890   6.576  15.547 -1.4982 -2.1598 -1.0932
 3465TIP3    H231887   3.760   6.653  15.535 -1.0235 -1.0937  0.4267
 3466TIP3   OH231888   0.955   6.052  11.588  0.5210  0.7794  0.1271
 3466TIP3    H131889   0.969   5.965  11.625 -1.1227  0.3897 -0.1312
 3466TIP3    H231890   0.910   6.036  11.504  1.6328  1.7952 -0.6800
 3467TIP3   OH231891   3.352   0.358  15.316 -0.0596  0.2042  0.5339
 3467TIP3    H131892   3.413   0.306  15.265 -0.9967 -0.2751 -0.1114
 3467TIP3    H231893   3.364   0.447  15.285  0.3777  0.1232  0.4730
 3468TIP3   OH231894   3.277   6.162  11.306 -0.5962 -0.1346  0.1187
 3468TIP3    H131895   3.253   6.075  11.337 -1.2418 -0.1818 -0.5086
 3468TIP3    H231896   3.343   6.192  11.368 -1.5629 -0.4050  1.3039
 3469TIP3   OH231897   1.585   6.358  12.515  0.3713 -0.0233 -0.1388
 3469TIP3    H131898   1.579   6.272  12.557  1.7779  0.4533  1.0913
 3469TIP3    H231899   1.553   6.419  12.582 -0.8226  0.3939 -1.0821
 3470TIP3   OH231900   0.264   0.781   0.934  0.0814  0.1519  0.8250
 3470TIP3    H131901   0.281   0.691   0.906 -0.0367  0.3909 -0.0437
 3470TIP3    H231902   0.342   0.829   0.905  0.5176  0.1834  2.0204
 3471TIP3   OH231903   5.500   0.076   3.249 -0.3345 -0.9775 -0.1919
 3471TIP3    H131904   5.489   0.125   3.331 -0.6174 -0.4014 -0.5772
 3471TIP3    H231905   5.569   0.013   3.269  0.6169  0.1242  0.0628
 3472TIP3   OH231906   3.848   0.659   5.760  0.0819 -0.5485 -0.1466
 3472TIP3    H131907   3.907   0.617   5.697 -1.4622  0.8889 -2.5991
 3472TIP3    H231908   3.904   0.718   5.811  1.3032 -1.5933 -0.2668
 3473TIP3   OH231909   1.882   4.439   2.954  0.3381 -0.0015  0.0384
 3473TIP3    H131910   1.816   4.396   2.900 -0.7136 -0.3456  1.5578
 3473TIP3    H231911   1.939   4.368   2.983 -0.5343 -0.1806  1.3497
 3474TIP3   OH231912   3.824   4.923  14.868  0.1872  0.1048  0.5506
 3474TIP3    H131913   3.827   4.935  14.774  1.0456 -0.6707  0.4794
 3474TIP3    H231914   3.902   4.967  14.901  0.6104 -0.8091  0.7712
 3475TIP3   OH231915   6.437   5.547  15.586 -0.9073  0.3069 -0.5776
 3475TIP3    H131916   6.367   5.551  15.520 -0.8066  0.7391 -0.6578
 3475TIP3    H231917   6.493   5.622  15.566 -1.2837  0.8757  0.4592
 3476TIP3   OH231918   2.600   0.980   1.945 -0.1485  0.0956 -0.0424
 3476TIP3    H131919   2.695   0.979   1.943 -0.1012  0.6871  1.3525
 3476TIP3    H231920   2.575   1.034   1.869  0.5919 -0.5432 -0.7500
 3477TIP3   OH231921   6.080   4.081  14.463 -0.1101  0.1628  0.0927
 3477TIP3    H131922   6.069   3.987  14.476 -0.0828 -0.1975 -2.3391
 3477TIP3    H231923   6.022   4.120  14.528 -0.6468 -1.5356  0.6734
 3478TIP3   OH231924   3.817   2.593  14.438 -0.5316 -0.0423 -0.0516
 3478TIP3    H131925   3.741   2.551  14.479 -0.5456  1.1588  1.1772
 3478TIP3    H231926   3.779   2.655  14.375 -0.5277 -1.0675 -1.0703
 3479TIP3   OH231927   1.134   1.676  12.665 -0.1500 -0.2168  0.1283
 3479TIP3    H131928   1.080   1.744  12.706 -0.2570 -0.5086  0.4739
 3479TIP3    H231929   1.130   1.602  12.726 -1.6716 -1.2609 -1.1894
 3480TIP3   OH231930   4.232   4.694   2.011  0.5098  0.2799 -0.1601
 3480TIP3    H131931   4.144   4.683   1.976 -0.2381  1.3566  1.3005
 3480TIP3    H231932   4.241   4.623   2.075  0.5112  0.4780  0.0598
 3481TIP3   OH231933   2.488   5.469   2.374 -0.1352  0.2367  0.3125
 3481TIP3    H131934   2.467   5.376   2.363 -0.6127  0.4570 -0.7500
 3481TIP3    H231935   2.577   5.477   2.338  0.3025  0.0147  1.3200
 3482TIP3   OH231936   0.595   0.802  16.916 -0.2100  0.2304 -0.4893
 3482TIP3    H131937   0.679   0.810  16.962  0.9662 -2.1326 -2.1260
 3482TIP3    H231938   0.570   0.711  16.927 -2.3288  0.7854 -0.4693
 3483TIP3   OH231939   2.142   5.843   3.392 -0.0171 -0.0635 -0.2325
 3483TIP3    H131940   2.182   5.928   3.409  3.1243 -1.2069 -1.4809
 3483TIP3    H231941   2.170   5.788   3.465  1.9810 -1.2752 -1.8769
 3484TIP3   OH231942   0.625   2.818   6.596 -0.5272 -0.5877  0.2764
 3484TIP3    H131943   0.629   2.861   6.681 -0.5650 -0.4870  0.2278
 3484TIP3    H231944   0.599   2.888   6.535  3.0935  0.2339 -0.4441
 3485TIP3   OH231945   2.110   0.780   3.698  0.4827 -0.2383 -0.1497
 3485TIP3    H131946   2.046   0.709   3.700 -1.4038  1.4276  0.2186
 3485TIP3    H231947   2.168   0.759   3.624 -1.4266 -0.9852 -1.4676
 3486TIP3   OH231948   3.958   5.793   4.451  0.1245  0.0875  0.0321
 3486TIP3    H131949   3.913   5.840   4.522  1.4359  1.3841  0.0227
 3486TIP3    H231950   3.973   5.859   4.384  3.4163  0.0748  0.6744
 3487TIP3   OH231951   3.604   1.470  11.192 -0.1084 -0.4125 -0.0847
 3487TIP3    H131952   3.619   1.502  11.103  0.9429  0.7515  0.4912
 3487TIP3    H231953   3.663   1.522  11.246 -0.3230 -1.5053  1.2286
 3488TIP3   OH231954   6.671   4.155  11.841 -0.6420 -0.2469 -0.3069
 3488TIP3    H131955   6.698   4.237  11.881 -1.3017 -0.4519  0.5916
 3488TIP3    H231956   6.640   4.179  11.754 -0.5034  0.4134 -0.1754
 3489TIP3   OH231957   5.946   3.291  15.157 -0.3158  0.3585 -0.8595
 3489TIP3    H131958   5.953   3.353  15.229 -1.3882 -0.3726 -0.1238
 3489TIP3    H231959   6.033   3.251  15.150  0.0311  1.0621 -0.5542
 3490TIP3   OH231960   4.201   5.193  13.784  0.3496  0.0255 -0.0278
 3490TIP3    H131961   4.169   5.283  13.785 -0.2567 -0.1976  1.2326
 3490TIP3    H231962   4.138   5.145  13.731  0.0267  0.1177  0.2685
 3491TIP3   OH231963   1.885   6.424   4.873 -0.1213  0.0662  0.2850
 3491TIP3    H131964   1.819   6.477   4.916 -0.6326 -0.1372 -0.2428
 3491TIP3    H231965   1.838   6.378   4.803  0.5504 -0.1638 -0.0251
 3492TIP3   OH231966   0.805   6.396  15.994  0.4768 -0.2059  0.5248
 3492TIP3    H131967   0.864   6.321  16.007  0.0727 -0.2605  2.2440
 3492TIP3    H231968   0.718   6.360  16.007  0.0144 -0.2145 -2.4783
 3493TIP3   OH231969   2.541   4.697   5.279 -0.5239  0.5590  0.2146
 3493TIP3    H131970   2.560   4.656   5.364  2.8376  1.7658  0.1293
 3493TIP3    H231971   2.501   4.781   5.302  0.0765  0.7403  0.6168
 3494TIP3   OH231972   0.692   6.749   4.142  0.4582  0.2373 -0.4322
 3494TIP3    H131973   0.725   6.831   4.105  1.2342 -0.9860 -2.5648
 3494TIP3    H231974   0.755   6.683   4.112  0.5941 -0.9743  2.3419
 3495TIP3   OH231975   2.995   4.289  12.535 -0.1831 -0.0469  0.4028
 3495TIP3    H131976   3.078   4.337  12.531  0.5740 -1.1866  1.8620
 3495TIP3    H231977   2.970   4.292  12.627 -2.0190  0.6649 -0.0943
 3496TIP3   OH231978   0.587   1.421  15.076  0.2036 -0.5145 -0.0710
 3496TIP3    H131979   0.501   1.406  15.036  0.3853  0.2090 -0.7553
 3496TIP3    H231980   0.568   1.439  15.168 -0.6510  2.2878 -0.7340
 3497TIP3   OH231981   3.776   2.647   4.015  0.2898 -0.1711 -0.0712
 3497TIP3    H131982   3.861   2.638   4.059  0.8569 -0.0810 -1.1276
 3497TIP3    H231983   3.797   2.689   3.932 -0.6750 -1.0199 -0.7472
 3498TIP3   OH231984   6.360   5.714   4.361  0.1095 -0.0709 -0.2390
 3498TIP3    H131985   6.301   5.673   4.297 -0.3072  0.4006 -0.1607
 3498TIP3    H231986   6.303   5.741   4.432  0.4306  0.3315 -0.1340
 3499TIP3   OH231987   1.441   3.800   2.917 -0.0816 -1.0769 -0.6927
 3499TIP3    H131988   1.478   3.871   2.969 -1.4683 -0.5410 -0.4138
 3499TIP3    H231989   1.499   3.726   2.932  0.5743 -0.3966  0.1369
 3500TIP3   OH231990   2.819   3.383   3.660  0.0855 -0.7593 -0.5273
 3500TIP3    H131991   2.828   3.474   3.689 -0.6183 -0.8617  0.0321
 3500TIP3    H231992   2.816   3.332   3.741 -0.7179 -1.1627 -0.7996
 3501TIP3   OH231993   6.484   3.771  14.235  0.4937 -0.7252 -0.7474
 3501TIP3    H131994   6.525   3.807  14.313 -0.6507 -1.3549  0.1566
 3501TIP3    H231995   6.503   3.835  14.166 -0.0093  0.7399  0.4399
 3502TIP3   OH231996   1.443   1.704   5.173  0.7387  0.6707  0.9369
 3502TIP3    H131997   1.416   1.796   5.172 -0.3055  0.3726 -1.0230
 3502TIP3    H231998   1.383   1.662   5.234  1.1396  1.2596  1.7414
 3503TIP3   OH231999   6.361   0.338  13.238  0.4507  0.2364 -0.3194
 3503TIP3    H132000   6.310   0.381  13.169  0.5276  0.9864  0.0877
 3503TIP3    H232001   6.439   0.392  13.248  0.5645 -0.0132  0.1831
 3504TIP3   OH232002   4.710   0.336   4.294 -0.0688  0.1266 -0.1310
 3504TIP3    H132003   4.801   0.305   4.302  1.0210  3.4710  1.2695
 3504TIP3    H232004   4.713   0.398   4.221 -2.1492 -2.7168 -2.7296
 3505TIP3   OH232005   3.518   4.083   0.119  0.1811 -0.1669 -0.2519
 3505TIP3    H132006   3.512   4.022   0.046 -0.2417  0.3039 -0.6196
 3505TIP3    H232007   3.427   4.113   0.132  0.6519  1.8121 -1.3085
 3506TIP3   OH232008   5.217   0.886   4.164  0.0370 -0.0232 -0.0198
 3506TIP3    H132009   5.250   0.796   4.164  1.9759  0.6182 -2.4335
 3506TIP3    H232010   5.176   0.897   4.079 -0.9281  1.1540  0.5790
 3507TIP3   OH232011   6.200   3.029   5.582  0.2621 -0.3200 -0.0666
 3507TIP3    H132012   6.132   3.001   5.521  0.3360 -2.0940  0.6297
 3507TIP3    H232013   6.157   3.027   5.668  0.5808  0.6880  0.1268
 3508TIP3   OH232014   1.062   4.857   4.309  0.6107  0.5134  0.4988
 3508TIP3    H132015   0.996   4.823   4.250  0.5637  1.0085  0.2595
 3508TIP3    H232016   1.013   4.890   4.385  0.6225  0.4214  0.5454
 3509TIP3   OH232017   3.616   2.837  13.364  0.2863  0.4597 -0.3668
 3509TIP3    H132018   3.702   2.861  13.328  0.8610 -1.4114 -0.2999
 3509TIP3    H232019   3.569   2.920  13.370  3.0185  1.9388  2.1114
 3510TIP3   OH232020   2.240   2.083  16.746 -0.1152 -0.7102  0.0044
 3510TIP3    H132021   2.295   2.043  16.814  0.6751 -0.3885 -0.4437
 3510TIP3    H232022   2.180   2.140  16.795  0.5206 -0.4022  0.4254
 3511TIP3   OH232023   1.735   5.296   0.675 -0.2167 -0.4423  0.4399
 3511TIP3    H132024   1.747   5.201   0.678  1.1839 -0.4002 -2.4065
 3511TIP3    H232025   1.672   5.310   0.605  1.7567  0.8983 -1.0977
 3512TIP3   OH232026   3.735   3.329  15.510 -0.1483 -0.4056 -0.0962
 3512TIP3    H132027   3.791   3.252  15.503  0.0702 -0.2017 -0.6368
 3512TIP3    H232028   3.661   3.309  15.452  0.9426  0.6717 -1.9120
 3513TIP3   OH232029   5.857   1.647  12.735 -0.6213  0.6771 -0.0983
 3513TIP3    H132030   5.846   1.653  12.830  0.2856  0.4579  0.0313
 3513TIP3    H232031   5.784   1.593  12.705 -0.1371 -0.4315  0.6548
 3514TIP3   OH232032   1.097   6.321   4.374  0.2097 -0.0898 -0.2714
 3514TIP3    H132033   1.099   6.416   4.367 -0.0880  0.1085  2.1190
 3514TIP3    H232034   1.005   6.298   4.366  0.3278 -0.2395 -1.3272
 3515TIP3   OH232035   3.314   2.999   3.724 -0.1704  0.1235  0.4419
 3515TIP3    H132036   3.396   2.972   3.767 -1.0855 -2.0018  0.9003
 3515TIP3    H232037   3.264   3.041   3.793 -0.0251  0.2088  0.4968
 3516TIP3   OH232038   3.630   6.352   1.394 -0.1149  0.0636 -0.1481
 3516TIP3    H132039   3.690   6.414   1.352 -2.3265  1.7377 -0.9048
 3516TIP3    H232040   3.604   6.292   1.324  0.4442 -0.5141  0.1268
 3517TIP3   OH232041   1.852   5.888   1.466 -0.1162  0.0619  0.2855
 3517TIP3    H132042   1.903   5.863   1.389  0.7363  0.0050  0.8585
 3517TIP3    H232043   1.802   5.964   1.439  0.0306 -0.0807 -0.3853
 3518TIP3   OH232044   0.047   1.303   2.097  0.4893 -0.4025 -0.1487
 3518TIP3    H132045   0.001   1.253   2.030  2.7329 -0.6733 -1.5371
 3518TIP3    H232046   0.074   1.238   2.161 -1.5588 -0.1593  0.9845
 3519TIP3   OH232047   1.502   6.629   0.443 -0.0656  0.3240  0.5502
 3519TIP3    H132048   1.438   6.647   0.374 -0.0787  1.1427  0.7719
 3519TIP3    H232049   1.587   6.652   0.405  0.1189 -0.8466  0.2261
 3520TIP3   OH232050   5.195   1.968   4.598 -0.1214  0.9069 -0.1587
 3520TIP3    H132051   5.276   1.952   4.550 -0.8666  0.0997 -1.1663
 3520TIP3    H232052   5.220   2.029   4.668  1.4893  0.1413 -0.0410
 3521TIP3   OH232053   1.416   6.586  14.031 -0.0062  0.7373  0.1006
 3521TIP3    H132054   1.325   6.584  14.003 -0.1159  2.6843  0.2514
 3521TIP3    H232055   1.461   6.526  13.971 -1.1853  0.6003 -0.6629
 3522TIP3   OH232056   5.773   3.754   2.140  0.5865 -0.0849  0.3011
 3522TIP3    H132057   5.816   3.677   2.176  0.4581 -0.0683  0.4927
 3522TIP3    H232058   5.739   3.800   2.217  0.0823 -0.1837  0.1384
 3523TIP3   OH232059   1.713   3.141  13.501 -0.1145  0.0852  0.2919
 3523TIP3    H132060   1.765   3.134  13.421 -2.5149 -1.6176 -1.1509
 3523TIP3    H232061   1.678   3.230  13.498 -2.9439 -1.0525 -2.3268
 3524TIP3   OH232062   0.689   3.390   0.201  0.7786 -1.1695  0.1558
 3524TIP3    H132063   0.620   3.327   0.181 -2.5914  2.4999 -0.2872
 3524TIP3    H232064   0.734   3.403   0.117  0.2141 -1.4946 -0.1982
 3525TIP3   OH232065   0.306   5.660  13.487  0.0081  0.1290 -0.1566
 3525TIP3    H132066   0.217   5.624  13.480 -0.6217  1.2026  1.7713
 3525TIP3    H232067   0.292   5.753  13.506  1.5063 -0.0908  2.2634
 3526TIP3   OH232068   0.787   4.123   2.189 -0.4111  0.1498  0.0422
 3526TIP3    H132069   0.810   4.204   2.234 -2.3023  0.4516  0.5291
 3526TIP3    H232070   0.691   4.123   2.188 -0.4366 -0.2162 -3.2868
 3527TIP3   OH232071   2.660   5.154  10.752 -0.3742  0.2726  0.3754
 3527TIP3    H132072   2.640   5.168  10.844  1.4257 -0.7672  0.9401
 3527TIP3    H232073   2.701   5.236  10.724  1.1929 -0.2201  1.1312
 3528TIP3   OH232074   2.206   2.266  12.457  0.2046  0.3154  0.2886
 3528TIP3    H132075   2.210   2.216  12.375  1.0616  3.5358 -1.7056
 3528TIP3    H232076   2.115   2.262  12.483 -0.2150 -0.2263 -1.1804
 3529TIP3   OH232077   1.521   5.648   3.403  0.1268  0.3451  0.1585
 3529TIP3    H132078   1.492   5.648   3.495 -1.3381  0.2278 -0.2819
 3529TIP3    H232079   1.486   5.730   3.368  1.0678  0.6041 -0.1901
 3530TIP3   OH232080   2.747   2.941   2.100 -0.7973  0.2097  0.1325
 3530TIP3    H132081   2.757   3.001   2.026 -0.4129 -1.7387 -1.4322
 3530TIP3    H232082   2.657   2.954   2.129 -1.4614 -0.1189 -1.7023
 3531TIP3   OH232083   0.784   0.918  12.174  0.1756 -0.2478 -0.2495
 3531TIP3    H132084   0.741   0.849  12.224  0.2154  0.4779  0.7977
 3531TIP3    H232085   0.737   0.920  12.090 -0.0307 -1.3182 -0.1660
 3532TIP3   OH232086   5.414   4.181  13.714 -0.6521  0.2100  0.2786
 3532TIP3    H132087   5.508   4.169  13.727 -0.2851  2.1292 -0.3282
 3532TIP3    H232088   5.398   4.272  13.740 -2.9624 -1.0335  3.6179
 3533TIP3   OH232089   2.487   4.061   5.124 -0.1453  0.5652  0.0494
 3533TIP3    H132090   2.540   4.081   5.047 -1.4565 -1.3625 -1.4026
 3533TIP3    H232091   2.428   3.991   5.095 -0.2941 -0.5838  2.9511
 3534TIP3   OH232092   1.432   2.369   1.471  0.7585 -0.1038  0.3114
 3534TIP3    H132093   1.382   2.422   1.533  1.2710 -1.6565  2.0991
 3534TIP3    H232094   1.428   2.280   1.506  1.8383 -0.8590 -1.3906
 3535TIP3   OH232095   5.631   0.296  14.422  0.4749 -0.1854 -0.4016
 3535TIP3    H132096   5.653   0.388  14.407 -0.8400 -0.3515 -3.7851
 3535TIP3    H232097   5.541   0.298  14.452 -0.2598 -0.4400 -2.4995
 3536TIP3   OH232098   4.601   2.798   0.823  0.3681  0.0799  0.0226
 3536TIP3    H132099   4.603   2.892   0.809  2.0440 -0.0968 -1.0079
 3536TIP3    H232100   4.658   2.783   0.898  2.0275 -0.3448 -1.2983
 3537TIP3   OH232101   3.568   1.215  13.288 -0.4459  0.0174  0.2766
 3537TIP3    H132102   3.507   1.227  13.361  0.3586  1.4394  0.7241
 3537TIP3    H232103   3.528   1.146  13.235 -2.2165  0.6092  0.8054
 3538TIP3   OH232104   4.798   2.269  14.836 -0.5319 -0.7489 -0.5762
 3538TIP3    H132105   4.784   2.234  14.749 -1.7530  1.7711 -1.4397
 3538TIP3    H232106   4.735   2.341  14.844  0.6457  0.0940  1.7677
 3539TIP3   OH232107   4.083   2.625  11.628 -0.3683  0.3602  0.1731
 3539TIP3    H132108   4.177   2.623  11.647 -0.2341  0.1363 -0.5069
 3539TIP3    H232109   4.043   2.657  11.709  0.1549 -0.9996  0.9941
 3540TIP3   OH232110   2.583   1.479  12.495 -0.6516  0.2378  0.3048
 3540TIP3    H132111   2.505   1.446  12.449 -0.6009 -0.7142  0.8918
 3540TIP3    H232112   2.557   1.566  12.526 -1.9224 -0.5596  1.5638
 3541TIP3   OH232113   0.251   6.148   2.677  0.0991  0.0373  0.3546
 3541TIP3    H132114   0.162   6.182   2.677  0.7824  2.0195 -1.8498
 3541TIP3    H232115   0.301   6.211   2.624  2.5121 -1.7426  0.3914
 3542TIP3   OH232116   5.457   6.643   3.082 -0.4742 -0.9155 -0.4079
 3542TIP3    H132117   5.435   6.605   2.997 -0.5157 -1.0193 -0.3514
 3542TIP3    H232118   5.408   6.725   3.086  0.2609 -0.4450 -0.8814
 3543TIP3   OH232119   5.686   2.066   4.713  0.1069 -0.2757  0.1194
 3543TIP3    H132120   5.726   2.101   4.793 -1.3171  2.6415 -0.3860
 3543TIP3    H232121   5.725   2.117   4.642 -1.3690 -0.2828 -0.7276
 3544TIP3   OH232122   1.028   3.818  11.586 -0.4481  0.6300  0.1499
 3544TIP3    H132123   1.059   3.907  11.600  0.7092  0.2387  0.0885
 3544TIP3    H232124   0.975   3.823  11.507 -0.0735  1.1962 -0.0655
 3545TIP3   OH232125   3.609   5.431  11.205 -0.4632  0.0183  0.1326
 3545TIP3    H132126   3.691   5.475  11.228  0.1463 -1.4794  0.8493
 3545TIP3    H232127   3.590   5.375  11.280 -0.6884 -1.7400 -1.2274
 3546TIP3   OH232128   0.605   5.381  10.903  0.5846 -0.5783  0.3159
 3546TIP3    H132129   0.637   5.297  10.873  0.9585  0.1167 -1.3033
 3546TIP3    H232130   0.525   5.361  10.951 -0.1717 -1.7312 -1.3836
 3547TIP3   OH232131   1.635   4.634   3.494 -0.4015  0.8993  0.9157
 3547TIP3    H132132   1.579   4.556   3.495  1.4662 -0.5368 -1.2833
 3547TIP3    H232133   1.646   4.655   3.587 -3.5040  0.4786  1.4451
 3548TIP3   OH232134   5.430   5.564   2.208  0.2037  0.4120  0.1231
 3548TIP3    H132135   5.469   5.476   2.202  2.3839  1.4663 -1.9941
 3548TIP3    H232136   5.478   5.605   2.281  1.3298  0.8443 -0.8419
 3549TIP3   OH232137   1.309   5.202  12.589 -0.2555 -0.8204 -0.4997
 3549TIP3    H132138   1.300   5.133  12.655  3.3689 -0.8638  0.0749
 3549TIP3    H232139   1.318   5.156  12.506 -0.2507 -0.9252 -0.4412
 3550TIP3   OH232140   0.070   4.485  16.102 -0.2560  0.8853  0.6149
 3550TIP3    H132141   0.005   4.553  16.121  0.9661  2.0348  0.8289
 3550TIP3    H232142   0.138   4.498  16.169  0.8108  0.5471 -0.3819
 3551TIP3   OH232143   5.438   2.384  14.351 -0.1384  0.4947 -0.1339
 3551TIP3    H132144   5.508   2.404  14.413 -1.5266 -0.6767  1.8754
 3551TIP3    H232145   5.451   2.291  14.330 -0.8873  0.3494  0.0212
 3552TIP3   OH232146   5.052   4.795   5.885  0.6203  0.1530 -0.1884
 3552TIP3    H132147   5.023   4.717   5.933  1.4639  1.1395  1.9842
 3552TIP3    H232148   5.140   4.773   5.855  1.3060  0.6758  1.4074
 3553TIP3   OH232149   6.234   6.167  14.169 -0.2526 -0.0422 -0.4933
 3553TIP3    H132150   6.279   6.213  14.240 -0.4247  0.1028 -0.4756
 3553TIP3    H232151   6.206   6.084  14.207 -1.1135  0.4010 -0.1338
 3554TIP3   OH232152   3.872   2.493   3.515  0.3017 -0.7651  0.0772
 3554TIP3    H132153   3.913   2.457   3.594  1.0976  0.4237  0.2156
 3554TIP3    H232154   3.802   2.548   3.547  1.5007  0.8196  0.0269
 3555TIP3   OH232155   4.163   1.870  13.659  0.2023 -0.1737 -0.4093
 3555TIP3    H132156   4.207   1.956  13.658 -0.5794  0.2225 -1.7170
 3555TIP3    H232157   4.074   1.890  13.686  0.5496 -0.8462  1.2423
 3556TIP3   OH232158   0.534   1.983   2.085 -0.2563  0.2133 -0.1583
 3556TIP3    H132159   0.518   2.072   2.118  0.4365  0.5374 -0.6957
 3556TIP3    H232160   0.498   1.983   1.997  0.0042  0.0440 -0.2652
 3557TIP3   OH232161   5.868   6.152  15.614 -0.4834  0.2676  0.1568
 3557TIP3    H132162   5.887   6.159  15.521 -0.2797 -1.2033  0.0735
 3557TIP3    H232163   5.940   6.196  15.657 -0.6757  1.1175 -0.3851
 3558TIP3   OH232164   2.053   2.514   5.122  0.0391  0.0961  0.3096
 3558TIP3    H132165   2.089   2.501   5.034 -0.4675 -1.5989  0.3413
 3558TIP3    H232166   2.103   2.454   5.177 -1.6375 -0.9891  0.6661
 3559TIP3   OH232167   3.896   3.895  13.355  0.7517 -0.5928 -0.0200
 3559TIP3    H132168   3.884   3.850  13.271  1.4008 -0.1114 -0.3828
 3559TIP3    H232169   3.837   3.970  13.351  1.5413  0.0153 -0.4915
 3560TIP3   OH232170   0.290   0.661  15.870 -0.3220 -0.2323 -0.4928
 3560TIP3    H132171   0.299   0.595  15.938 -3.8417 -1.8264 -1.4729
 3560TIP3    H232172   0.255   0.738  15.916 -0.8899 -0.6789 -0.1665
 3561TIP3   OH232173   5.650   6.510  14.807  0.0312 -0.0982 -0.0462
 3561TIP3    H132174   5.741   6.538  14.808 -0.2420  0.8239  1.8579
 3561TIP3    H232175   5.621   6.519  14.898 -1.9312 -0.4406 -0.6080
 3562TIP3   OH232176   3.189   4.340  15.773 -0.2252  0.1065 -0.1174
 3562TIP3    H132177   3.261   4.280  15.752 -0.4583 -0.2652  0.1556
 3562TIP3    H232178   3.195   4.408  15.706  0.4921  0.1707  0.0021
 3563TIP3   OH232179   5.161   0.659   3.883  0.2446  0.4449  0.4843
 3563TIP3    H132180   5.117   0.581   3.850 -0.5963  1.0948  0.0709
 3563TIP3    H232181   5.245   0.626   3.917  0.5501 -0.4216 -1.0687
 3564TIP3   OH232182   4.945   5.433   1.858  0.1574 -0.7748  0.2936
 3564TIP3    H132183   4.987   5.347   1.859  0.5208 -0.6109 -0.5277
 3564TIP3    H232184   5.017   5.495   1.849 -0.2111 -0.4621 -0.5423
 3565TIP3   OH232185   5.199   0.593   6.255 -0.3144  0.7598  0.4499
 3565TIP3    H132186   5.234   0.643   6.328  1.3455  0.2696  0.0133
 3565TIP3    H232187   5.183   0.658   6.186 -0.9964  1.0899  0.9174
 3566TIP3   OH232188   2.982   1.730  11.657 -0.3232  0.0220  0.0475
 3566TIP3    H132189   2.970   1.646  11.613 -2.5701  0.6865 -0.6935
 3566TIP3    H232190   2.893   1.757  11.680  0.3109  2.4811 -0.2738
 3567TIP3   OH232191   4.693   4.680   3.901 -0.4241 -0.2851 -0.5998
 3567TIP3    H132192   4.725   4.593   3.927 -0.0924  0.2352  0.7721
 3567TIP3    H232193   4.661   4.719   3.982  0.3234  1.2492 -1.0183
 3568TIP3   OH232194   3.828   2.929   3.127  0.2358  0.7215  0.0966
 3568TIP3    H132195   3.860   2.975   3.050 -0.2709  0.7106 -0.1247
 3568TIP3    H232196   3.821   2.997   3.194 -2.4897  1.4295 -0.8099
 3569TIP3   OH232197   2.105   4.816   5.262 -0.1055 -0.5052 -0.5968
 3569TIP3    H132198   2.085   4.723   5.272 -0.6308 -0.2269  1.0601
 3569TIP3    H232199   2.188   4.827   5.310 -0.2052 -0.0689 -0.5283
 3570TIP3   OH232200   0.114   6.361   3.240 -0.5766  0.3385  0.6732
 3570TIP3    H132201   0.198   6.341   3.200 -0.7044  1.3896 -0.1267
 3570TIP3    H232202   0.052   6.363   3.166 -0.5568  3.7413  0.7073
 3571TIP3   OH232203   3.363   6.635   3.723 -0.0782 -0.8822 -0.0423
 3571TIP3    H132204   3.295   6.581   3.764  0.6044 -1.7616 -0.0505
 3571TIP3    H232205   3.401   6.579   3.655  2.5673 -1.4271  1.8163
 3572TIP3   OH232206   1.101   1.242  14.860 -0.6945  0.0234 -0.1170
 3572TIP3    H132207   1.066   1.181  14.925  0.2657 -1.6470 -1.1500
 3572TIP3    H232208   1.052   1.224  14.781 -1.6611  1.8648  0.0239
 3573TIP3   OH232209   3.917   3.954   6.200  1.0079  0.3452  0.0632
 3573TIP3    H132210   3.881   3.933   6.287  2.1528 -1.7248  0.0903
 3573TIP3    H232211   3.843   3.988   6.151  0.3876  1.7586  1.9197
 3574TIP3   OH232212   0.862   5.061   4.252  0.0156 -0.0206 -0.0471
 3574TIP3    H132213   0.940   5.110   4.278 -0.2380  0.4361 -0.1507
 3574TIP3    H232214   0.854   4.992   4.318  0.5970 -0.1647 -0.1217
 3575TIP3   OH232215   3.193   1.670   4.390 -0.3249  0.0200  0.6762
 3575TIP3    H132216   3.114   1.658   4.337  0.5221 -0.7343 -0.4577
 3575TIP3    H232217   3.262   1.624   4.341  0.9960  1.3732  1.2143
 3576TIP3   OH232218   6.262   4.076   4.655 -0.1247 -0.3765 -0.2436
 3576TIP3    H132219   6.179   4.028   4.661  0.1729 -0.8893 -0.2095
 3576TIP3    H232220   6.264   4.107   4.564  0.0305 -1.0692 -0.4808
 3577TIP3   OH232221   4.660   6.108  15.932  0.2019  0.0708 -0.6793
 3577TIP3    H132222   4.630   6.106  15.841  0.1858  0.2356 -0.6779
 3577TIP3    H232223   4.595   6.058  15.980  0.2396 -0.0615 -0.7665
 3578TIP3   OH232224   1.647   3.808  12.268 -0.1880 -0.1081 -1.0722
 3578TIP3    H132225   1.611   3.726  12.235 -0.3006  0.4707 -2.4149
 3578TIP3    H232226   1.705   3.839  12.199  0.4607  0.5515 -0.2458
 3579TIP3   OH232227   2.715   5.003   1.722  0.2580 -0.1889  0.3651
 3579TIP3    H132228   2.679   4.975   1.638  0.0112 -1.0260  0.7422
 3579TIP3    H232229   2.778   5.071   1.700 -0.2274  0.0050 -0.4506
 3580TIP3   OH232230   2.851   2.906  16.634 -0.1319 -0.1855 -0.9025
 3580TIP3    H132231   2.863   3.001  16.641  1.0693 -0.1425 -2.9081
 3580TIP3    H232232   2.773   2.896  16.579 -0.9420 -0.3709  0.2801
 3581TIP3   OH232233   1.226   3.771   5.970  0.2109  0.8411 -0.1067
 3581TIP3    H132234   1.312   3.738   5.996 -0.3015  0.2241  0.8084
 3581TIP3    H232235   1.164   3.720   6.021 -0.6345  2.4391  0.5029
 3582TIP3   OH232236   5.964   0.357  11.809 -0.7003 -0.2220  0.1435
 3582TIP3    H132237   6.006   0.292  11.866 -0.0365  0.0582 -0.0240
 3582TIP3    H232238   5.907   0.306  11.752  1.1685 -0.8598 -1.2040
 3583TIP3   OH232239   3.143   2.036  12.323  0.7181  0.5585 -0.1805
 3583TIP3    H132240   3.114   1.978  12.253 -1.5116 -0.9396  1.8779
 3583TIP3    H232241   3.069   2.094  12.339  0.6622 -0.0184  1.7996
 3584TIP3   OH232242   2.131   1.186   4.203  0.7652  0.2337 -0.4039
 3584TIP3    H132243   2.143   1.263   4.147  1.4085  0.9605  0.7224
 3584TIP3    H232244   2.191   1.200   4.276 -0.3842 -0.4759  0.6972
 3585TIP3   OH232245   1.107   0.295   1.698 -0.8040 -0.2169 -0.0189
 3585TIP3    H132246   1.070   0.238   1.629  0.8332 -1.0738 -0.1965
 3585TIP3    H232247   1.201   0.280   1.694 -0.0188  4.4778 -1.8424
 3586TIP3   OH232248   3.345   4.654  12.780 -0.2142 -0.0656 -0.3007
 3586TIP3    H132249   3.324   4.604  12.859  0.5065 -1.1712 -0.8075
 3586TIP3    H232250   3.427   4.698  12.801 -0.6433  0.6126 -0.0033
 3587TIP3   OH232251   6.551   3.735  12.226  0.5526  0.1275 -0.0003
 3587TIP3    H132252   6.486   3.805  12.221  0.1179 -0.2663  0.1262
 3587TIP3    H232253   6.563   3.720  12.319  2.3318  1.5845  0.0405
 3588TIP3   OH232254   5.828   4.011   1.584  0.4389  0.0955 -0.2480
 3588TIP3    H132255   5.895   3.943   1.580  0.0593 -0.3723  0.9222
 3588TIP3    H232256   5.767   3.990   1.514  1.6809  0.7146 -1.5308
 3589TIP3   OH232257   6.790   2.082  13.414 -0.0653 -0.1284  0.1662
 3589TIP3    H132258   6.784   2.002  13.361  1.3106  0.1319 -0.4075
 3589TIP3    H232259   6.719   2.074  13.478 -0.1959 -1.6086 -0.1453
 3590TIP3   OH232260   5.546   2.182   2.612 -0.0712 -0.3808 -0.3892
 3590TIP3    H132261   5.500   2.178   2.528 -2.1747 -0.4559  0.7295
 3590TIP3    H232262   5.555   2.091   2.639 -0.5413 -0.2981  0.0588
 3591TIP3   OH232263   6.384   5.818  16.341  1.0167 -0.3886 -0.0678
 3591TIP3    H132264   6.326   5.791  16.269 -0.6706 -0.7147  1.3844
 3591TIP3    H232265   6.382   5.913  16.338 -0.5512 -0.3816  0.6985
 3592TIP3   OH232266   5.273   3.099  11.062 -0.2037  0.0727  0.0214
 3592TIP3    H132267   5.274   3.006  11.038  1.0001  0.1034 -0.1198
 3592TIP3    H232268   5.183   3.128  11.047  0.2651 -0.1555 -3.5038
 3593TIP3   OH232269   1.294   4.456  11.769 -0.9822 -0.1377  0.5927
 3593TIP3    H132270   1.375   4.447  11.719 -0.6009  0.1720  1.1513
 3593TIP3    H232271   1.261   4.543  11.745 -0.2391  0.4501  1.7028
 3594TIP3   OH232272   3.994   1.360  11.972  0.0234  0.8047  0.0234
 3594TIP3    H132273   4.002   1.280  12.024  2.0155  0.7882 -0.2357
 3594TIP3    H232274   4.054   1.421  12.015 -1.4654  2.1487  0.2041
 3595TIP3   OH232275   1.183   6.800   2.393 -0.0589 -0.2948  0.0547
 3595TIP3    H132276   1.166   6.790   2.487 -1.7096  1.3767 -0.0468
 3595TIP3    H232277   1.250   6.867   2.388 -1.7871  1.4565 -0.0509
 3596TIP3   OH232278   5.958   2.301  11.430  0.0235  0.0426  0.1814
 3596TIP3    H132279   5.972   2.346  11.513  0.2606  0.7153 -0.2186
 3596TIP3    H232280   6.030   2.329  11.374 -0.4850  0.0950 -0.4610
 3597TIP3   OH232281   2.731   3.002   0.874  0.3057 -0.0102  0.1140
 3597TIP3    H132282   2.819   3.014   0.840 -0.8817  0.7362 -2.8690
 3597TIP3    H232283   2.702   2.918   0.836 -1.2163  1.0792 -1.2040
 3598TIP3   OH232284   1.032   4.599   5.611 -0.0251  0.3774 -0.0974
 3598TIP3    H132285   1.047   4.676   5.556 -1.3453 -0.7476 -2.1002
 3598TIP3    H232286   1.110   4.545   5.601 -0.6298 -0.2288 -1.5697
 3599TIP3   OH232287   3.777   5.122  11.598 -0.1386 -0.4412  0.2399
 3599TIP3    H132288   3.786   5.192  11.533 -0.0787 -1.4532 -0.8582
 3599TIP3    H232289   3.775   5.041  11.547 -2.7333 -1.1002  1.2860
 3600TIP3   OH232290   0.108   3.880  16.776  0.4589  0.3872  0.0719
 3600TIP3    H132291   0.115   3.894  16.870  2.7510  1.6642 -0.2289
 3600TIP3    H232292   0.084   3.967  16.741  0.5211  0.1395 -0.5956
 3601TIP3   OH232293   3.977   6.013  17.292 -0.0076 -0.1185 -0.3859
 3601TIP3    H132294   4.037   6.054  17.229 -0.1551  0.3340 -0.2336
 3601TIP3    H232295   3.976   6.073  17.367 -1.4254  0.3934 -0.7899
 3602TIP3   OH232296   3.425   2.664  12.968 -0.6820  0.3720  0.4602
 3602TIP3    H132297   3.472   2.581  12.955 -1.6764 -0.3212  1.1630
 3602TIP3    H232298   3.493   2.726  12.996 -0.2793 -0.7966  2.1791
 3603TIP3   OH232299   6.239   0.989  16.626  0.3521  0.5886 -0.2412
 3603TIP3    H132300   6.261   0.937  16.704  2.0500  0.0718 -1.0418
 3603TIP3    H232301   6.160   0.948  16.592  0.6003 -0.2884  0.2215
 3604TIP3   OH232302   6.187   3.803  16.147  0.0225  0.2855  0.1044
 3604TIP3    H132303   6.093   3.785  16.144 -0.2496  1.6533 -0.0652
 3604TIP3    H232304   6.223   3.731  16.198 -1.4294  0.8980  2.0701
 3605TIP3   OH232305   5.139   1.139   0.453 -0.2890  0.5412 -0.1694
 3605TIP3    H132306   5.198   1.182   0.390 -0.2686  0.2105 -0.3786
 3605TIP3    H232307   5.063   1.115   0.400 -0.6316  1.0075  0.1104
 3606TIP3   OH232308   5.835   0.461   0.887 -0.1872  0.0436  0.1742
 3606TIP3    H132309   5.775   0.533   0.906  0.2939  0.3936  0.3754
 3606TIP3    H232310   5.922   0.496   0.907  0.0837 -0.4629 -0.1037
 3607TIP3   OH232311   4.458   6.509   5.761  0.3827 -0.8347 -0.2054
 3607TIP3    H132312   4.541   6.554   5.776  0.9978 -1.5333 -1.4170
 3607TIP3    H232313   4.394   6.579   5.749  1.0595 -0.2849 -0.6271
 3608TIP3   OH232314   1.936   0.500   0.531  0.2959 -0.4611 -0.5725
 3608TIP3    H132315   1.884   0.507   0.611 -0.5505  1.3466 -1.2534
 3608TIP3    H232316   1.876   0.524   0.461  1.4975 -0.3613 -1.5825
 3609TIP3   OH232317   6.464   2.128   6.045  0.5406  0.5375  0.4151
 3609TIP3    H132318   6.438   2.216   6.073  1.8711  1.0750 -0.0424
 3609TIP3    H232319   6.441   2.125   5.952 -0.6083 -0.0232  0.7095
 3610TIP3   OH232320   2.341   3.652  15.396 -1.0943 -0.2046  0.2067
 3610TIP3    H132321   2.273   3.719  15.402 -0.7332  0.1724  0.0531
 3610TIP3    H232322   2.398   3.668  15.471 -0.4075  0.3151 -0.4331
 3611TIP3   OH232323   4.009   1.515  14.407  0.2482  0.1178  0.7058
 3611TIP3    H132324   3.978   1.533  14.319 -0.6270  0.9387  1.1635
 3611TIP3    H232325   3.970   1.430  14.430  0.9211 -0.3525  0.1085
 3612TIP3   OH232326   5.103   1.169  13.065  0.3041  0.5785  0.5844
 3612TIP3    H132327   5.095   1.258  13.031  0.8024  0.4468  0.1011
 3612TIP3    H232328   5.030   1.122  13.027  0.5122  0.5814  0.1800
 3613TIP3   OH232329   4.900   2.461   0.099 -0.1427 -0.1426 -0.4692
 3613TIP3    H132330   4.910   2.539   0.043  1.1837  0.5052  0.6288
 3613TIP3    H232331   4.863   2.394   0.041  0.6556  0.6871 -1.9650
 3614TIP3   OH232332   1.579   5.831   2.528 -0.5338  0.2725 -0.0491
 3614TIP3    H132333   1.497   5.816   2.482 -0.3475  0.1758 -0.3573
 3614TIP3    H232334   1.647   5.811   2.462 -0.2704  0.5925  0.1244
 3615TIP3   OH232335   0.771   2.696   5.265 -0.0106  0.5682  0.2213
 3615TIP3    H132336   0.727   2.761   5.210 -0.6339 -1.3490 -1.6111
 3615TIP3    H232337   0.864   2.705   5.244 -0.1507  0.5015 -0.4366
 3616TIP3   OH232338   6.768   2.563  16.684  0.0428  0.2641 -0.7260
 3616TIP3    H132339   6.773   2.583  16.777  1.5396 -0.9430 -0.5217
 3616TIP3    H232340   6.859   2.545  16.658 -0.6023 -1.3881 -1.9570
 3617TIP3   OH232341   1.076   5.348   1.494  0.3262  0.1940  0.0023
 3617TIP3    H132342   1.011   5.279   1.479  0.9355 -0.5902  0.8850
 3617TIP3    H232343   1.064   5.372   1.586  1.6624 -0.3690  0.3329
 3618TIP3   OH232344   5.289   1.228   3.583  0.3844  0.7854 -0.1217
 3618TIP3    H132345   5.337   1.182   3.514 -1.4703  1.0331 -1.6088
 3618TIP3    H232346   5.289   1.168   3.657  2.4950  0.5596 -0.2901
 3619TIP3   OH232347   4.025   5.398   2.088 -0.0003  0.1501 -0.3099
 3619TIP3    H132348   4.078   5.415   2.166 -1.8792 -1.9877  1.5125
 3619TIP3    H232349   3.958   5.466   2.089  0.2103  0.3568 -0.2789
 3620TIP3   OH232350   4.094   5.654  16.342 -0.0786 -0.2280 -0.0462
 3620TIP3    H132351   4.120   5.622  16.256  0.4500  0.1404 -0.0259
 3620TIP3    H232352   4.127   5.589  16.404 -0.6658 -0.6140 -0.1381
 3621TIP3   OH232353   2.700   1.178  16.755 -0.2430 -0.0037  0.2472
 3621TIP3    H132354   2.665   1.234  16.824 -0.0848  0.8896 -0.3873
 3621TIP3    H232355   2.745   1.238  16.695 -2.4915 -0.4229 -1.9583
 3622TIP3   OH232356   1.062   6.335  16.687 -0.0053  0.0757 -0.1616
 3622TIP3    H132357   1.132   6.390  16.652  0.5224 -0.9156 -0.6873
 3622TIP3    H232358   1.057   6.262  16.626 -1.6959  0.2788 -0.2929
 3623TIP3   OH232359   6.608   3.736  11.135  0.2536  0.6414 -0.1986
 3623TIP3    H132360   6.570   3.822  11.153  1.6446  1.1585  0.3869
 3623TIP3    H232361   6.545   3.693  11.078 -0.9759  1.6430  0.3786
 3624TIP3   OH232362   0.578   5.669  13.428 -0.1563  0.0840 -0.0752
 3624TIP3    H132363   0.597   5.752  13.384  1.0878 -0.2709 -0.2209
 3624TIP3    H232364   0.482   5.666  13.433 -0.2340  1.1806 -0.7310
 3625TIP3   OH232365   0.361   4.389   4.661 -0.3318 -0.4793 -0.0559
 3625TIP3    H132366   0.436   4.435   4.698 -1.8578  2.7027 -0.7241
 3625TIP3    H232367   0.296   4.388   4.732 -0.3136 -1.6126 -0.0498
 3626TIP3   OH232368   4.712   4.206   4.765 -0.2448 -0.1451 -0.0877
 3626TIP3    H132369   4.735   4.281   4.818  3.6419 -0.5706 -1.0140
 3626TIP3    H232370   4.633   4.170   4.806  2.1799 -0.0893  4.9862
 3627TIP3   OH232371   6.178   2.463   6.243 -0.1465 -0.3079 -0.0700
 3627TIP3    H132372   6.234   2.475   6.320 -0.1739  1.3075 -0.2772
 3627TIP3    H232373   6.122   2.541   6.243  0.3370  0.0637 -2.1096
 3628TIP3   OH232374   6.730   4.910  13.936 -0.1775  0.1632  0.1389
 3628TIP3    H132375   6.813   4.947  13.967 -0.5021  1.4944 -0.5328
 3628TIP3    H232376   6.709   4.961  13.858 -2.1824  0.5880  0.9203
 3629TIP3   OH232377   5.566   5.232   5.935 -0.2411  0.1418  0.1427
 3629TIP3    H132378   5.508   5.168   5.894 -2.8297  3.2801 -1.2846
 3629TIP3    H232379   5.510   5.280   5.996  1.6305  1.1143  1.1467
 3630TIP3   OH232380   4.423   2.672   1.030  0.0889  0.3216 -0.0917
 3630TIP3    H132381   4.392   2.663   0.940 -0.2975 -2.5602  0.2770
 3630TIP3    H232382   4.344   2.697   1.079 -0.8379 -2.8736  0.1684
 3631TIP3   OH232383   2.534   6.649   3.644 -0.0295  0.1663 -0.2116
 3631TIP3    H132384   2.510   6.651   3.737  0.6416  1.3269 -0.0617
 3631TIP3    H232385   2.533   6.556   3.622  0.5637 -0.1788  1.1553
 3632TIP3   OH232386   4.147   1.428   4.010 -0.1151  0.2946  0.2086
 3632TIP3    H132387   4.234   1.404   4.040 -0.0938 -0.8955 -0.7498
 3632TIP3    H232388   4.090   1.413   4.086  0.0638 -1.8206 -0.0456
 3633TIP3   OH232389   1.641   1.531   3.615  0.1869 -0.7653 -0.3000
 3633TIP3    H132390   1.699   1.499   3.684  1.0027  1.1950 -0.0582
 3633TIP3    H232391   1.692   1.598   3.570 -2.3284  1.9722  0.7693
 3634TIP3   OH232392   0.466   2.958   0.689  0.3360  0.4226  0.3899
 3634TIP3    H132393   0.491   3.030   0.746  0.0795  0.5009  0.4065
 3634TIP3    H232394   0.463   2.882   0.747  0.3652  0.4461  0.4223
 3635TIP3   OH232395   3.826   1.461  11.789  0.3188  0.3007 -0.3679
 3635TIP3    H132396   3.766   1.426  11.854 -0.8307 -0.9218 -2.0508
 3635TIP3    H232397   3.913   1.441  11.824 -0.2946 -2.5870 -0.3800
 3636TIP3   OH232398   1.239   3.668  12.635  0.1771  0.3635 -0.6838
 3636TIP3    H132399   1.273   3.646  12.548 -0.8677  1.0979 -1.2930
 3636TIP3    H232400   1.262   3.760  12.647 -0.0260  0.3723 -0.3470
 3637TIP3   OH232401   4.508   1.205   4.730  0.8814 -0.5574  0.3702
 3637TIP3    H132402   4.575   1.216   4.663  0.1583 -0.7493 -0.3925
 3637TIP3    H232403   4.456   1.285   4.725  0.5301 -0.7847  0.3567
 3638TIP3   OH232404   2.295   0.274  15.106  0.6263 -0.2629  0.1659
 3638TIP3    H132405   2.336   0.289  15.020  0.1756  0.6981  0.1050
 3638TIP3    H232406   2.292   0.179  15.115  1.7661 -0.3596 -0.3621
 3639TIP3   OH232407   0.707   0.199  11.737 -0.2173 -0.2828  0.9511
 3639TIP3    H132408   0.758   0.279  11.746  0.5871 -0.5807 -0.6744
 3639TIP3    H232409   0.716   0.175  11.644 -3.3754 -0.2890  0.5739
 3640TIP3   OH232410   2.242   4.361  14.723  0.1911 -0.3533 -0.0736
 3640TIP3    H132411   2.303   4.298  14.761  0.3066 -1.2760 -1.7012
 3640TIP3    H232412   2.293   4.440  14.711 -0.0520  0.2101  2.3533
 3641TIP3   OH232413   5.816   1.542   4.285 -0.0454  0.4254 -0.8559
 3641TIP3    H132414   5.797   1.611   4.348  0.5326 -1.1034  1.0508
 3641TIP3    H232415   5.871   1.584   4.220 -0.3070  1.9488 -0.1247
 3642TIP3   OH232416   0.265   5.788   1.067  0.0720 -0.1044 -0.0517
 3642TIP3    H132417   0.171   5.809   1.073 -0.0406 -0.5323 -0.2284
 3642TIP3    H232418   0.288   5.810   0.977  0.1745  0.1381  0.0351
 3643TIP3   OH232419   0.777   6.672  12.090  0.5338  0.1472 -0.0497
 3643TIP3    H132420   0.786   6.632  12.004 -3.8203 -1.1372 -0.0709
 3643TIP3    H232421   0.760   6.764  12.073  2.9122  0.5619 -0.3545
 3644TIP3   OH232422   3.877   2.218  13.421 -0.8980  0.1380 -0.6752
 3644TIP3    H132423   3.912   2.299  13.456 -0.6097  0.2705 -1.2635
 3644TIP3    H232424   3.836   2.175  13.496  1.1421 -0.3559  0.1955
 3645TIP3   OH232425   3.005   3.537  13.670 -0.2976 -0.3216  0.0428
 3645TIP3    H132426   2.933   3.475  13.680 -1.0504  0.4932 -0.1888
 3645TIP3    H232427   2.961   3.621  13.652  0.7250  0.0937 -0.5306
 3646TIP3   OH232428   1.413   0.876  15.319  0.4091  0.2564  0.1038
 3646TIP3    H132429   1.472   0.809  15.352  0.0459  0.2606  0.7612
 3646TIP3    H232430   1.406   0.939  15.390 -0.6965  0.0575  0.1757
 3647TIP3   OH232431   1.074   5.476  13.179  1.0181  0.1144  0.0606
 3647TIP3    H132432   1.011   5.414  13.216  1.0515 -0.5692 -1.0006
 3647TIP3    H232433   1.158   5.430  13.182  1.1186  0.2659 -0.3131
 3648TIP3   OH232434   1.098   0.353   0.531 -0.6437  0.1681  0.1503
 3648TIP3    H132435   1.142   0.332   0.614 -1.8899 -0.2751  0.7222
 3648TIP3    H232436   1.146   0.303   0.465  1.0561  1.4063  0.4426
 3649TIP3   OH232437   2.060   4.224  10.611  0.1301 -0.1745  0.1099
 3649TIP3    H132438   1.990   4.249  10.672  1.4808 -0.8678  1.9905
 3649TIP3    H232439   2.064   4.129  10.619  1.4093 -0.1189  0.1707
 3650TIP3   OH232440   1.084   4.650   5.934 -0.3779  0.0564 -0.0309
 3650TIP3    H132441   1.085   4.599   5.853 -1.3782 -1.6725  1.0085
 3650TIP3    H232442   1.171   4.690   5.939 -0.2579  0.0618 -1.8577
 3651TIP3   OH232443   4.984   1.167  13.495 -0.1186  0.6862 -0.0365
 3651TIP3    H132444   4.953   1.078  13.477 -0.8100  0.8861  0.1484
 3651TIP3    H232445   5.065   1.175  13.445 -0.0744 -0.0388 -0.0811
 3652TIP3   OH232446   1.686   5.308   4.226 -0.0626 -0.1361  0.5852
 3652TIP3    H132447   1.652   5.265   4.147  0.2443 -0.0206  0.3871
 3652TIP3    H232448   1.728   5.238   4.275 -1.1919 -0.4187  1.1788
 3653TIP3   OH232449   3.495   5.459   1.459 -0.2791 -0.2844  0.3976
 3653TIP3    H132450   3.571   5.424   1.413 -0.6431 -0.1490 -0.3191
 3653TIP3    H232451   3.475   5.395   1.527  0.5448 -0.2641  0.6617
 3654TIP3   OH232452   2.619   1.342  16.958 -0.0931  0.0349 -0.1698
 3654TIP3    H132453   2.614   1.437  16.956  0.8131  0.0784 -0.9310
 3654TIP3    H232454   2.643   1.321  17.048 -2.6606  0.3780  0.6206
 3655TIP3   OH232455   4.803   2.168  15.621  0.1958 -0.2908  0.1325
 3655TIP3    H132456   4.779   2.084  15.662 -1.0226 -0.3104 -0.5903
 3655TIP3    H232457   4.878   2.146  15.565  1.2502 -0.4538  1.5615
 3656TIP3   OH232458   1.756   0.807   4.215  0.4055 -0.0066 -0.7010
 3656TIP3    H132459   1.714   0.763   4.289  1.7261  1.4746  0.9998
 3656TIP3    H232460   1.816   0.869   4.256  0.2424  1.7635 -3.0194
 3657TIP3   OH232461   6.800   6.598  14.839 -0.1737 -0.3145  0.5028
 3657TIP3    H132462   6.710   6.627  14.857  0.3026  1.1716  0.5029
 3657TIP3    H232463   6.854   6.645  14.902  0.3426 -3.4131  2.4930
 3658TIP3   OH232464   3.978   4.181   0.269 -0.1345 -0.0019 -0.8991
 3658TIP3    H132465   3.916   4.182   0.197 -2.1720  1.4545  0.8096
 3658TIP3    H232466   3.942   4.241   0.334  2.0590 -0.6077  0.9976
 3659TIP3   OH232467   5.370   1.181   3.096  0.2751 -0.3984 -0.0042
 3659TIP3    H132468   5.341   1.245   3.030 -0.1905  0.1922  0.7566
 3659TIP3    H232469   5.290   1.134   3.120  0.8750 -2.2881 -1.6289
 3660TIP3   OH232470   1.667   3.784   1.714 -0.2522 -0.8612  0.0363
 3660TIP3    H132471   1.672   3.829   1.630 -0.6189 -0.9352 -0.0264
 3660TIP3    H232472   1.613   3.840   1.769  0.5870 -0.4562  0.4556
 3661TIP3   OH232473   3.516   1.981   6.235  0.1527 -1.0365 -0.4004
 3661TIP3    H132474   3.477   1.973   6.148 -0.9131  2.2864 -0.3188
 3661TIP3    H232475   3.476   1.911   6.286 -2.5756 -0.3316 -1.4752
 3662TIP3   OH232476   1.356   4.761  12.160 -0.6065 -0.5207 -0.2542
 3662TIP3    H132477   1.427   4.698  12.152 -0.6098 -0.5106 -0.3685
 3662TIP3    H232478   1.299   4.742  12.086  0.0218  0.4036 -0.9899
 3663TIP3   OH232479   3.225   1.832   1.929 -0.1204  0.2469 -0.4335
 3663TIP3    H132480   3.305   1.786   1.953 -0.2589  0.6875  0.9294
 3663TIP3    H232481   3.197   1.876   2.010 -3.3877 -2.3386 -0.0405
 3664TIP3   OH232482   6.009   6.616   6.523  0.0491 -0.3004 -0.3034
 3664TIP3    H132483   6.084   6.579   6.570  0.3010 -1.5254 -1.6282
 3664TIP3    H232484   5.949   6.542   6.510 -1.4938  0.7014  0.9154
 3665TIP3   OH232485   5.694   6.225   1.300 -0.3205  0.2580  0.2379
 3665TIP3    H132486   5.710   6.300   1.242 -1.2890  1.0914  1.0358
 3665TIP3    H232487   5.599   6.222   1.311 -0.1823 -0.1643  1.4203
 3666TIP3   OH232488   0.086   6.785   2.616  0.5400 -0.5517  0.1988
 3666TIP3    H132489   0.129   6.835   2.547 -0.4691  1.7526  1.1841
 3666TIP3    H232490   0.025   6.727   2.569 -1.5819  2.3772 -0.8161
 3667TIP3   OH232491   6.222   6.219  13.342  1.0125 -0.0282  0.2239
 3667TIP3    H132492   6.244   6.196  13.252 -1.5291 -2.5697  0.2030
 3667TIP3    H232493   6.215   6.315  13.341 -1.1635 -0.1547 -2.8189
 3668TIP3   OH232494   2.393   4.573   5.897  0.0086  0.1930 -0.5509
 3668TIP3    H132495   2.359   4.594   5.984  0.6361 -0.3425 -0.1689
 3668TIP3    H232496   2.316   4.575   5.840 -0.0341  3.0366 -0.4587
 3669TIP3   OH232497   0.122   2.200  15.478 -0.3486  0.1584  0.4567
 3669TIP3    H132498   0.213   2.175  15.464 -0.4622 -1.1447  1.9487
 3669TIP3    H232499   0.127   2.283  15.525  0.0839 -0.5757  1.7137
 3670TIP3   OH232500   3.231   1.295   4.560  0.2784 -0.0201 -0.2156
 3670TIP3    H132501   3.218   1.225   4.496  1.0163 -0.6853  0.3722
 3670TIP3    H232502   3.326   1.304   4.568  0.1895  0.2128  0.6244
 3671TIP3   OH232503   1.286   1.446   4.944  1.3973 -0.5091  0.2749
 3671TIP3    H132504   1.254   1.527   4.984  0.8187 -0.3122 -0.5656
 3671TIP3    H232505   1.302   1.388   5.018 -2.3783 -1.1341  0.7273
 3672TIP3   OH232506   5.674   4.623   1.989  0.1695 -0.2163  0.3484
 3672TIP3    H132507   5.585   4.657   1.996  0.6096  1.3636 -1.2433
 3672TIP3    H232508   5.716   4.680   1.924  2.6530 -0.2709  1.8429
 3673TIP3   OH232509   2.832   5.750   5.031  0.0244  0.0495 -0.3863
 3673TIP3    H132510   2.906   5.792   4.988 -0.6119  2.7036  1.0053
 3673TIP3    H232511   2.755   5.788   4.989 -0.5937  1.9816  2.2983
 3674TIP3   OH232512   0.175   0.529   0.351 -0.0608  0.5317  0.5134
 3674TIP3    H132513   0.092   0.481   0.342  0.0931  0.4641 -0.6667
 3674TIP3    H232514   0.158   0.614   0.310 -0.0228  1.1148  1.6924
 3675TIP3   OH232515   0.421   0.233   0.240 -0.4187 -0.3008  0.2723
 3675TIP3    H132516   0.402   0.312   0.291 -1.2554 -1.0553  1.1344
 3675TIP3    H232517   0.473   0.179   0.299  0.4363 -0.2600 -0.4374
 3676TIP3   OH232518   6.258   1.066  12.932 -0.0060  0.3450 -0.1706
 3676TIP3    H132519   6.186   1.129  12.931 -0.0177  0.3313 -0.1550
 3676TIP3    H232520   6.271   1.043  12.839 -0.9840 -0.7512 -0.0489
 3677TIP3   OH232521   0.684   5.732  12.661 -0.0456 -0.1571 -0.1233
 3677TIP3    H132522   0.754   5.690  12.711 -0.9462 -2.4284 -0.7296
 3677TIP3    H232523   0.723   5.747  12.575 -0.3403 -1.5385 -0.4997
 3678TIP3   OH232524   5.546   5.343   3.453  0.4654  0.2327  0.7228
 3678TIP3    H132525   5.610   5.278   3.423  0.3890  0.3779  0.2437
 3678TIP3    H232526   5.597   5.405   3.504  0.5284 -0.2417  1.2432
 3679TIP3   OH232527   4.399   1.186   1.730  0.0341 -0.5801  0.2327
 3679TIP3    H132528   4.488   1.206   1.758 -0.5419  0.7751  1.1842
 3679TIP3    H232529   4.409   1.123   1.659  1.7932  0.4516 -0.4703
 3680TIP3   OH232530   4.470   2.267   2.375  0.5503 -0.2854 -0.0695
 3680TIP3    H132531   4.559   2.259   2.409  1.2975  0.9313 -1.6711
 3680TIP3    H232532   4.446   2.358   2.392  0.0786 -0.2797 -0.7456
 3681TIP3   OH232533   1.477   5.456  11.939 -0.0211 -0.2949  0.2088
 3681TIP3    H132534   1.396   5.421  11.901 -0.6145  2.5915 -1.3486
 3681TIP3    H232535   1.448   5.528  11.995  1.5312  1.9451 -1.7725
 3682TIP3   OH232536   0.867   2.091   0.674  0.1414  0.0820 -0.0176
 3682TIP3    H132537   0.772   2.102   0.686  0.1379  1.3355 -1.0660
 3682TIP3    H232538   0.888   2.149   0.601  1.5723 -0.8720 -0.3748
 3683TIP3   OH232539   6.103   3.415  11.115  0.2903  0.5543  0.2423
 3683TIP3    H132540   6.022   3.414  11.166  1.3436 -0.0234  1.9889
 3683TIP3    H232541   6.153   3.488  11.151  0.7319  0.6321 -0.5122
 3684TIP3   OH232542   6.198   6.002   3.478 -0.2167  0.1956 -0.2098
 3684TIP3    H132543   6.169   5.911   3.481 -0.1257  0.1328 -1.1485
 3684TIP3    H232544   6.118   6.052   3.460  0.0853  0.1077 -1.8272
 3685TIP3   OH232545   2.295   1.199   5.912  0.0417 -0.0593  0.4221
 3685TIP3    H132546   2.384   1.164   5.909  0.4182  1.0510 -2.2538
 3685TIP3    H232547   2.307   1.294   5.921 -0.8497  0.1667 -0.6706
 3686TIP3   OH232548   4.711   2.592  16.179  0.0118  0.1163 -0.2066
 3686TIP3    H132549   4.772   2.664  16.163  0.4835 -0.7252 -2.4894
 3686TIP3    H232550   4.643   2.630  16.234  1.0866  1.8645 -0.0342
 3687TIP3   OH232551   0.682   1.189   2.749 -0.2208  0.0221 -0.4313
 3687TIP3    H132552   0.609   1.164   2.693 -2.1949  0.6255  1.8054
 3687TIP3    H232553   0.687   1.284   2.742  0.4915 -0.0379 -0.7578
 3688TIP3   OH232554   1.393   5.586  15.462 -0.1965  0.2414  0.4788
 3688TIP3    H132555   1.398   5.601  15.557  1.0098 -3.6096  1.0718
 3688TIP3    H232556   1.482   5.602  15.431 -0.1557 -0.3917  0.2814
 3689TIP3   OH232557   5.113   0.580   6.814 -0.5829 -0.0627  0.4229
 3689TIP3    H132558   5.107   0.575   6.718  0.5665  0.4030  0.3157
 3689TIP3    H232559   5.173   0.652   6.830 -0.1696 -0.6371  1.4850
 3690TIP3   OH232560   1.914   0.934  12.328  0.1422  0.9478  0.1025
 3690TIP3    H132561   1.832   0.983  12.333 -0.4228  0.0142  0.3249
 3690TIP3    H232562   1.963   0.975  12.258 -1.2567  0.4548 -1.2018
 3691TIP3   OH232563   1.195   2.438   2.189  0.6515 -0.0301 -0.8744
 3691TIP3    H132564   1.115   2.398   2.156  0.2987  0.5297 -0.6941
 3691TIP3    H232565   1.265   2.391   2.144  0.2214 -0.4521 -1.1062
 3692TIP3   OH232566   5.441   0.651  13.602  0.2616 -0.3078  0.2867
 3692TIP3    H132567   5.531   0.678  13.622  0.3434 -0.5737  0.2752
 3692TIP3    H232568   5.391   0.678  13.678  0.0642  1.3260 -0.3831
 3693TIP3   OH232569   3.764   3.317   4.531 -0.4993 -0.0009  0.5372
 3693TIP3    H132570   3.775   3.379   4.459  2.5332 -0.3013  0.6803
 3693TIP3    H232571   3.703   3.360   4.591 -0.2958  1.7917 -0.5159
 3694TIP3   OH232572   1.903   1.743   4.383 -0.4709 -0.0063  0.4434
 3694TIP3    H132573   1.821   1.744   4.333  0.1702  0.6877 -0.6196
 3694TIP3    H232574   1.896   1.667   4.440 -1.4190 -0.5441 -0.3812
 3695TIP3   OH232575   3.190   2.220   5.854 -0.4055 -0.4269  0.0838
 3695TIP3    H132576   3.175   2.281   5.782 -0.7167 -0.8846 -0.2359
 3695TIP3    H232577   3.285   2.222   5.867 -0.2373 -1.0855 -0.9870
 3696TIP3   OH232578   3.596   6.229   4.717 -0.2690 -0.3941  0.7399
 3696TIP3    H132579   3.688   6.218   4.742 -0.3427  0.6338  1.4976
 3696TIP3    H232580   3.597   6.239   4.622  0.4036 -0.3697  0.7488
 3697TIP3   OH232581   6.476   5.040   3.463 -0.6028 -0.2130  0.0706
 3697TIP3    H132582   6.469   5.011   3.372 -0.9723  2.0556 -0.6572
 3697TIP3    H232583   6.402   4.999   3.507 -0.4780 -1.2525 -0.6683
 3698TIP3   OH232584   4.470   6.585   4.482 -0.8853  0.0590 -0.2332
 3698TIP3    H132585   4.448   6.669   4.443 -1.9806 -0.9342 -1.8445
 3698TIP3    H232586   4.426   6.585   4.567 -0.3123  1.3739  0.0647
 3699TIP3   OH232587   6.468   2.653   6.023  0.3678 -0.4237  0.0866
 3699TIP3    H132588   6.402   2.709   6.064 -0.8342 -1.5594 -0.2370
 3699TIP3    H232589   6.530   2.634   6.093  0.3910  0.7115  0.3812
 3700TIP3   OH232590   2.358   5.349   5.457 -0.5551  0.2360 -0.5069
 3700TIP3    H132591   2.405   5.421   5.500 -1.4616  1.2605 -1.2093
 3700TIP3    H232592   2.267   5.362   5.482 -0.7694 -0.4861 -0.9179
 3701TIP3   OH232593   0.322   6.607   1.728  0.3934  0.3244  0.2091
 3701TIP3    H132594   0.268   6.683   1.752  0.3860  0.5111 -0.4074
 3701TIP3    H232595   0.358   6.576   1.812  0.0389  0.7353  0.5141
 3702TIP3   OH232596   1.562   6.044   3.880  0.1815 -0.2059 -0.7639
 3702TIP3    H132597   1.477   6.001   3.874 -0.1678  0.4296 -0.2982
 3702TIP3    H232598   1.621   5.975   3.912 -0.5644 -0.1242  0.8533
 3703TIP3   OH232599   3.179   1.902  15.523 -0.1006 -0.4275 -0.2711
 3703TIP3    H132600   3.216   1.814  15.525 -1.2717 -0.8896  1.2522
 3703TIP3    H232601   3.085   1.890  15.531 -0.3536  0.9330 -0.9187
 3704TIP3   OH232602   2.489   1.623  14.066  0.3663 -0.1230 -0.1186
 3704TIP3    H132603   2.427   1.689  14.095  1.4640  1.0539 -0.3862
 3704TIP3    H232604   2.571   1.645  14.111  0.3643 -2.2140  0.9698
 3705TIP3   OH232605   5.178   2.816   1.027  0.1435 -0.1667 -0.7644
 3705TIP3    H132606   5.190   2.745   1.090  0.6372  1.3271  0.8798
 3705TIP3    H232607   5.267   2.847   1.011 -0.3502  2.8468  1.8539
 3706TIP3   OH232608   5.852   0.117  13.241 -0.1454 -0.0450  0.6819
 3706TIP3    H132609   5.830   0.201  13.201  0.8950 -0.5398 -0.9902
 3706TIP3    H232610   5.947   0.117  13.248 -0.3416  0.4899  4.3069
 3707TIP3   OH232611   5.041   5.004   6.148 -0.0080 -0.1673 -0.1967
 3707TIP3    H132612   5.134   5.026   6.143 -0.4275  2.3060  1.7187
 3707TIP3    H232613   5.036   4.932   6.210  0.4545  1.2512  1.5413
 3708TIP3   OH232614   0.694   0.773  12.982 -0.1191  0.1407  0.2323
 3708TIP3    H132615   0.717   0.852  13.032 -2.4557  0.3125  1.1154
 3708TIP3    H232616   0.685   0.803  12.892  0.6201  0.5436  0.2861
 3709TIP3   OH232617   1.018   1.175  13.138 -0.1471 -0.0614  0.0518
 3709TIP3    H132618   1.074   1.141  13.068  0.9773 -0.8399  1.3048
 3709TIP3    H232619   1.020   1.270  13.127 -1.4938 -0.2348 -2.1033
 3710TIP3   OH232620   6.083   0.343  15.906 -0.1637 -0.1074  0.0824
 3710TIP3    H132621   6.066   0.431  15.870  1.7188 -0.4524 -1.7722
 3710TIP3    H232622   6.077   0.285  15.830  1.8282 -1.1507  0.6893
 3711TIP3   OH232623   3.707   0.667  15.454  0.2648  0.1949  0.4740
 3711TIP3    H132624   3.693   0.581  15.493  2.6968 -0.7260 -0.5572
 3711TIP3    H232625   3.621   0.694  15.422 -0.6784 -1.4668  1.5920
 3712TIP3   OH232626   6.417   0.242   0.756  0.2430  0.8153  0.4774
 3712TIP3    H132627   6.455   0.177   0.815  1.4970 -0.2647 -1.4577
 3712TIP3    H232628   6.361   0.191   0.698 -0.0881  1.7150 -0.0052
 3713TIP3   OH232629   2.632   6.193   3.702 -0.3386 -0.3607 -0.2190
 3713TIP3    H132630   2.610   6.182   3.794  1.0899 -0.7272  0.0998
 3713TIP3    H232631   2.726   6.172   3.697 -0.0806  0.9619 -1.5181
 3714TIP3   OH232632   2.212   3.114   2.279  0.3514 -0.1827 -0.3105
 3714TIP3    H132633   2.130   3.134   2.234  0.4072  0.4425 -0.1325
 3714TIP3    H232634   2.228   3.190   2.335  0.3002 -0.9375  0.7350
 3715TIP3   OH232635   3.164   1.751   3.260 -0.1896 -0.3835 -0.4586
 3715TIP3    H132636   3.138   1.813   3.192  1.8941 -0.8258 -1.7013
 3715TIP3    H232637   3.229   1.695   3.218  1.0481 -0.7587  1.8603
 3716TIP3   OH232638   4.189   4.462   2.191  0.4711  0.2428 -0.1939
 3716TIP3    H132639   4.105   4.415   2.191  0.4224  0.3286 -0.8938
 3716TIP3    H232640   4.183   4.519   2.267 -0.1798  0.3718 -0.3336
 3717TIP3   OH232641   6.134   0.891  12.536 -0.2286 -0.5445 -0.0155
 3717TIP3    H132642   6.163   0.824  12.475  1.0355  1.2376 -1.4498
 3717TIP3    H232643   6.039   0.892  12.528 -0.3044 -2.4981  0.4255
 3718TIP3   OH232644   5.724   2.248   1.758  0.0050  0.1159 -0.8112
 3718TIP3    H132645   5.787   2.234   1.687  0.8166  0.5067 -0.1676
 3718TIP3    H232646   5.683   2.332   1.738  0.5677  0.4474 -0.5568
 3719TIP3   OH232647   3.082   0.018  14.454  0.4417  0.1152 -0.5364
 3719TIP3    H132648   3.089  -0.057  14.395 -0.6659 -0.6505  0.2875
 3719TIP3    H232649   3.168   0.026  14.494  0.8572 -0.0821 -1.3953
 3720TIP3   OH232650   3.664   5.637   4.897 -0.5913 -0.3109 -0.0722
 3720TIP3    H132651   3.734   5.681   4.945 -0.3608 -0.7371 -0.0216
 3720TIP3    H232652   3.599   5.616   4.964 -0.5593 -0.3337 -0.0487
 3721TIP3   OH232653   4.485   0.069   5.711  0.3991  0.4141 -0.2146
 3721TIP3    H132654   4.544   0.010   5.758 -1.0945  1.1052  2.6315
 3721TIP3    H232655   4.406   0.017   5.696 -0.5094  1.3246  1.3336
 3722TIP3   OH232656   6.133   1.369   0.920 -0.2057  0.0370 -0.1954
 3722TIP3    H132657   6.202   1.319   0.964  1.4182  0.2970 -2.3534
 3722TIP3    H232658   6.180   1.427   0.860 -2.2822  0.6303 -1.2963
 3723TIP3   OH232659   2.493   3.516  11.465  0.5347  0.4747 -0.4277
 3723TIP3    H132660   2.445   3.540  11.387 -0.9178 -1.2192 -0.0926
 3723TIP3    H232661   2.481   3.589  11.525  0.0898  0.9517 -1.0980
 3724TIP3   OH232662   6.404   1.982   5.222  0.5511  0.2258 -0.4161
 3724TIP3    H132663   6.416   1.967   5.316 -2.7387  1.2482  0.2052
 3724TIP3    H232664   6.435   2.072   5.209  0.2926  0.3506 -0.1746
 3725TIP3   OH232665   4.349   5.594  11.415 -0.0783  0.4365 -0.1123
 3725TIP3    H132666   4.346   5.604  11.320 -2.1067 -2.6158 -0.4340
 3725TIP3    H232667   4.262   5.620  11.444  0.3491  0.8011  0.8497
 3726TIP3   OH232668   3.190   3.619   1.485 -0.3892  0.1236  0.5488
 3726TIP3    H132669   3.200   3.690   1.548  0.2889  2.1183 -1.7474
 3726TIP3    H232670   3.276   3.577   1.482  0.1939  1.3708 -0.5911
 3727TIP3   OH232671   0.342   1.651   0.395 -0.2267 -0.3292 -0.1450
 3727TIP3    H132672   0.265   1.596   0.411 -1.0967  0.8122 -0.3176
 3727TIP3    H232673   0.308   1.726   0.346  1.3854 -0.8866 -2.1827
 3728TIP3   OH232674   0.864   6.407  13.153 -0.9319 -0.8863 -0.2914
 3728TIP3    H132675   0.866   6.334  13.214  0.9774 -1.5778 -1.1453
 3728TIP3    H232676   0.791   6.388  13.094 -2.1136 -0.7388  1.0967
 3729TIP3   OH232677   0.077   3.571  16.326  0.0598 -0.1144 -0.7543
 3729TIP3    H132678   0.009   3.632  16.355  0.4731 -0.0779  0.1637
 3729TIP3    H232679   0.048   3.486  16.357  0.1270 -0.1907 -0.8981
 3730TIP3   OH232680   0.479   3.198   5.885  0.0684 -0.0165 -0.2533
 3730TIP3    H132681   0.489   3.135   5.813  1.0846  1.6086 -1.5872
 3730TIP3    H232682   0.542   3.169   5.951  1.9422  0.6816 -1.6782
 3731TIP3   OH232683   0.417   0.736  13.747 -0.2084  0.3921 -0.0083
 3731TIP3    H132684   0.393   0.800  13.679  2.0863  1.0204 -0.2689
 3731TIP3    H232685   0.473   0.673  13.702 -0.2379 -0.2669  0.8722
 3732TIP3   OH232686   5.020   2.397   5.272  0.1583  0.3521 -0.0805
 3732TIP3    H132687   5.062   2.312   5.261  2.8406  1.5708  0.3113
 3732TIP3    H232688   5.051   2.450   5.198 -1.6848  0.9102 -0.4652
 3733TIP3   OH232689   2.321   5.684   1.506  0.0270  0.0885  0.4353
 3733TIP3    H132690   2.347   5.772   1.532 -0.4131  0.8416 -1.5592
 3733TIP3    H232691   2.226   5.682   1.516 -0.0183  0.0097  0.0212
 3734TIP3   OH232692   2.846   1.797   0.583  0.6282  0.3280 -0.3175
 3734TIP3    H132693   2.863   1.887   0.610 -0.7082  0.9628 -1.4826
 3734TIP3    H232694   2.766   1.803   0.530 -0.9850 -1.9015  1.7594
 3735TIP3   OH232695   5.558   2.305  14.782  0.1095  0.0022  0.2762
 3735TIP3    H132696   5.614   2.347  14.847 -2.0258  0.1421  2.0978
 3735TIP3    H232697   5.470   2.335  14.804 -0.9858 -2.2100 -0.9422
 3736TIP3   OH232698   4.754   4.267  15.995  0.1727 -0.1064  0.1104
 3736TIP3    H132699   4.757   4.306  16.083  2.2111  2.4160 -1.0292
 3736TIP3    H232700   4.696   4.324  15.945 -1.0956 -1.6185 -0.1843
 3737TIP3   OH232701   2.084   0.206  16.878  0.0063  0.4400  0.5543
 3737TIP3    H132702   2.069   0.241  16.791 -0.4113  3.3019  1.7109
 3737TIP3    H232703   2.179   0.190  16.882 -0.0090  0.0737 -0.4871
 3738TIP3   OH232704   2.856   4.687  16.391 -0.0545  0.2098 -0.5444
 3738TIP3    H132705   2.773   4.733  16.378  0.1833  1.1479  1.0903
 3738TIP3    H232706   2.897   4.732  16.465  0.9404 -1.5906  0.0348
 3739TIP3   OH232707   2.430   3.060   5.713  0.2166 -0.2049 -0.0561
 3739TIP3    H132708   2.459   2.972   5.689 -1.9174 -1.1987  0.9272
 3739TIP3    H232709   2.447   3.067   5.807 -0.1687  0.2138 -0.0137
 3740TIP3   OH232710   4.932   5.895  14.527 -0.5669  0.3576  0.0685
 3740TIP3    H132711   5.001   5.863  14.585 -1.1816 -3.0461 -0.9707
 3740TIP3    H232712   4.860   5.917  14.587 -0.4693 -1.1713  0.7691
 3741TIP3   OH232713   1.435   5.760  12.343 -0.4231  0.2518 -0.1251
 3741TIP3    H132714   1.364   5.818  12.371 -0.1000  1.2115 -1.2467
 3741TIP3    H232715   1.503   5.820  12.312  0.3634 -0.7068 -0.2628
 3742TIP3   OH232716   1.086   2.049  15.043  0.3042  0.0259 -0.1935
 3742TIP3    H132717   1.182   2.041  15.037  0.3285  1.1123 -1.1563
 3742TIP3    H232718   1.063   1.993  15.118  1.8230  0.7555  0.8496
 3743TIP3   OH232719   1.421   1.689   1.935 -0.1618  0.0538 -0.0992
 3743TIP3    H132720   1.442   1.737   2.015 -0.5455  0.2922 -0.1362
 3743TIP3    H232721   1.505   1.670   1.895  0.0052  0.4535  0.0601
 3744TIP3   OH232722   4.133   1.469  12.481 -0.1232  0.2104 -0.2003
 3744TIP3    H132723   4.173   1.497  12.563  0.1603 -0.5891 -0.0663
 3744TIP3    H232724   4.139   1.546  12.424 -0.7078  0.9029  0.6607
 3745TIP3   OH232725   4.604   6.770   1.104  0.7179 -0.5588  0.2494
 3745TIP3    H132726   4.626   6.784   1.196 -0.6779 -1.6071  0.7620
 3745TIP3    H232727   4.641   6.846   1.058  1.2942  0.0413  1.6928
 3746TIP3   OH232728   1.783   6.417   1.585  0.1810  0.3412 -0.9905
 3746TIP3    H132729   1.877   6.426   1.596 -0.2074  2.7357  0.9542
 3746TIP3    H232730   1.761   6.332   1.623  1.3064  0.7076  0.5134
 3747TIP3   OH232731   0.193   5.451  15.069 -0.2863 -0.0546 -0.5008
 3747TIP3    H132732   0.270   5.395  15.059  0.6492  1.5327 -2.4059
 3747TIP3    H232733   0.160   5.430  15.157  0.8052 -2.5919 -0.6436
 3748TIP3   OH232734   6.307   2.515  10.677  0.3138  0.3535  0.1756
 3748TIP3    H132735   6.228   2.464  10.656  0.8805  0.2741 -1.8247
 3748TIP3    H232736   6.294   2.543  10.768 -1.6337 -0.3687  0.1367
 3749TIP3   OH232737   0.251   1.172   6.222 -0.4120 -0.2011 -0.1236
 3749TIP3    H132738   0.166   1.172   6.265 -0.7880 -0.7028 -0.8749
 3749TIP3    H232739   0.263   1.082   6.191  1.6737 -0.9220  2.5132
 3750TIP3   OH232740   0.242   0.170  16.967  0.6128 -0.6692  0.2993
 3750TIP3    H132741   0.280   0.255  16.943 -1.9157  0.3191 -0.3158
 3750TIP3    H232742   0.240   0.121  16.885 -1.1420 -0.0083 -0.0857
 3751TIP3   OH232743   0.604   2.432  12.156  0.1190  0.1749 -0.1885
 3751TIP3    H132744   0.604   2.514  12.106  1.4979 -0.4758 -1.3109
 3751TIP3    H232745   0.521   2.433  12.205  0.0238  2.1191 -0.3605
 3752TIP3   OH232746   5.288   1.544   4.860 -0.1365 -0.1429 -0.8672
 3752TIP3    H132747   5.368   1.513   4.904 -0.1152 -0.4780 -1.1431
 3752TIP3    H232748   5.256   1.467   4.812 -2.2901 -0.9025  1.6552
 3753TIP3   OH232749   3.812   5.999   2.169  0.1562  0.1658 -0.4763
 3753TIP3    H132750   3.874   5.943   2.214 -2.3206 -2.4555 -0.1639
 3753TIP3    H232751   3.760   6.039   2.240 -1.0768 -0.7743 -0.8275
 3754TIP3   OH232752   0.079   4.256   1.285 -0.0474 -0.3079 -0.3139
 3754TIP3    H132753   0.052   4.347   1.298 -3.0096 -0.9874 -1.3798
 3754TIP3    H232754   0.115   4.230   1.370 -2.2435  0.8899  1.0572
 3755TIP3   OH232755   6.243   0.948  13.439  0.3584  0.3620 -0.3979
 3755TIP3    H132756   6.316   0.923  13.496  0.7434  0.0892 -1.0046
 3755TIP3    H232757   6.280   0.947  13.351 -0.2641  0.6688 -0.6652
 3756TIP3   OH232758   5.803   2.390  11.860  0.3258 -0.0212 -0.4603
 3756TIP3    H132759   5.878   2.348  11.902 -0.0061 -1.4598 -1.2572
 3756TIP3    H232760   5.842   2.440  11.788  0.7873  1.6009  0.8911
 3757TIP3   OH232761   5.958   1.642   2.438  0.7085  0.4736 -0.6741
 3757TIP3    H132762   5.895   1.665   2.369  0.9929  0.2365 -1.0216
 3757TIP3    H232763   6.040   1.629   2.391  1.3704  2.2190 -0.0423
 3758TIP3   OH232764   3.917   6.090  16.457  0.1854  0.0046 -0.0278
 3758TIP3    H132765   3.872   6.147  16.394  0.0125  1.4918  1.4233
 3758TIP3    H232766   3.881   6.003  16.440 -0.6518  0.5739 -1.2629
 3759TIP3   OH232767   4.332   5.118   1.158  0.2484 -0.5029 -0.3394
 3759TIP3    H132768   4.348   5.161   1.242  1.0957  0.4250 -0.9480
 3759TIP3    H232769   4.398   5.049   1.153 -0.0308 -0.7860 -0.0849
 3760TIP3   OH232770   0.483   6.774   5.082 -0.3056 -0.0478 -0.0921
 3760TIP3    H132771   0.514   6.710   5.018  1.1544  1.1402 -0.6134
 3760TIP3    H232772   0.503   6.859   5.043  0.3061  0.7136  1.7746
 3761TIP3   OH232773   5.277   5.264  14.021 -0.0344 -0.1810 -0.0646
 3761TIP3    H132774   5.359   5.255  13.972  0.9855 -1.1109  1.7541
 3761TIP3    H232775   5.238   5.345  13.988  1.2279 -0.1222 -1.4880
 3762TIP3   OH232776   3.831   2.785   0.241 -0.0725  0.0203  0.3278
 3762TIP3    H132777   3.759   2.723   0.231  0.8882 -0.9727 -0.5087
 3762TIP3    H232778   3.845   2.790   0.336 -0.8478 -0.2136  0.4614
 3763TIP3   OH232779   5.180   3.216  15.262  0.3968  0.3170  0.2950
 3763TIP3    H132780   5.269   3.235  15.292  0.6250 -1.6711  0.9557
 3763TIP3    H232781   5.189   3.136  15.211 -0.6411  1.4923 -1.7623
 3764TIP3   OH232782   0.712   4.372   4.491  0.1239 -0.3520  0.2215
 3764TIP3    H132783   0.661   4.453   4.487  3.6270  1.8989 -0.7984
 3764TIP3    H232784   0.747   4.362   4.403  1.1575 -2.0309  0.8105
 3765TIP3   OH232785   3.376   0.234  15.007 -0.3830  0.3185 -0.8051
 3765TIP3    H132786   3.348   0.320  14.974  0.0331  1.5713  1.9068
 3765TIP3    H232787   3.463   0.250  15.044  0.2663 -1.6004 -1.4503
 3766TIP3   OH232788   1.372   6.566   0.193 -0.2671 -0.1937  0.2346
 3766TIP3    H132789   1.294   6.548   0.246  0.0077 -1.1186  0.3320
 3766TIP3    H232790   1.430   6.493   0.210 -0.0772 -0.3918 -1.1778
 3767TIP3   OH232791   5.589   0.680   0.333  0.4793 -0.4507  0.6502
 3767TIP3    H132792   5.602   0.733   0.255 -0.0192 -2.7356 -1.0497
 3767TIP3    H232793   5.494   0.673   0.342  0.5257 -1.5042  0.4872
 3768TIP3   OH232794   2.180   4.233   5.173 -0.3187 -0.4158  0.0230
 3768TIP3    H132795   2.206   4.178   5.099 -1.6185 -2.0394  0.7210
 3768TIP3    H232796   2.261   4.250   5.221  0.3552 -0.3079 -1.1346
 3769TIP3   OH232797   4.478   1.832   4.724 -0.3092  0.3680  0.5806
 3769TIP3    H132798   4.500   1.750   4.681 -0.4608  1.2597 -1.2487
 3769TIP3    H232799   4.427   1.807   4.801 -2.2535 -1.1392 -1.1642
 3770TIP3   OH232800   3.297   4.543   6.017 -0.0226 -0.0166  0.1761
 3770TIP3    H132801   3.207   4.572   6.033  0.1455  0.8520 -0.3976
 3770TIP3    H232802   3.327   4.511   6.101 -1.0597 -0.8355  0.2476
 3771TIP3   OH232803   2.727   4.647  14.173  0.6324  0.2629  0.3071
 3771TIP3    H132804   2.771   4.721  14.130  1.5535  0.5036  1.6106
 3771TIP3    H232805   2.686   4.686  14.251 -2.1465  0.0866 -1.0025
 3772TIP3   OH232806   4.631   2.859   3.845  0.3176  0.1100  0.0225
 3772TIP3    H132807   4.580   2.795   3.895  0.3902 -1.1748 -1.5191
 3772TIP3    H232808   4.569   2.928   3.823  0.0845  0.2640  1.1284
 3773TIP3   OH232809   3.836   3.439   3.474  0.1029  0.0847  0.1122
 3773TIP3    H132810   3.840   3.466   3.566  0.7166 -0.0765  0.1307
 3773TIP3    H232811   3.922   3.402   3.456 -1.2473 -3.5169  0.6040
 3774TIP3   OH232812   1.699   1.047  12.546 -0.3580  0.5713  0.6826
 3774TIP3    H132813   1.727   1.127  12.501 -0.2406  0.2286  0.1523
 3774TIP3    H232814   1.636   1.006  12.486 -1.6690  1.1020  1.6609
 3775TIP3   OH232815   3.689   1.500   1.777 -0.0070  0.5328  0.5076
 3775TIP3    H132816   3.665   1.412   1.805 -0.1352  0.7588  1.1047
 3775TIP3    H232817   3.608   1.538   1.743 -0.1162  0.6906  0.9487
 3776TIP3   OH232818   4.890   4.816  10.570  1.2306 -0.2805 -0.0404
 3776TIP3    H132819   4.835   4.882  10.611  0.7154  0.4132 -1.7979
 3776TIP3    H232820   4.931   4.862  10.497  0.7300 -1.9561 -1.3922
 3777TIP3   OH232821   4.841   5.434  14.603  0.5138  0.6626 -0.4230
 3777TIP3    H132822   4.772   5.440  14.538  0.5184 -2.1579 -0.7506
 3777TIP3    H232823   4.920   5.465  14.558 -0.0558  1.5660 -0.8059
 3778TIP3   OH232824   3.089   1.893  15.950 -0.0486  0.2417 -0.1617
 3778TIP3    H132825   2.998   1.919  15.941  0.0153  0.8231  0.8751
 3778TIP3    H232826   3.089   1.825  16.018  0.0724 -0.9621 -1.3394
 3779TIP3   OH232827   2.576   0.726  15.115  0.5033 -0.2069 -0.1286
 3779TIP3    H132828   2.515   0.792  15.147  1.4780 -0.1644  1.6823
 3779TIP3    H232829   2.562   0.649  15.170  1.1611 -0.6501 -0.5547
 3780TIP3   OH232830   6.622   3.394   0.316  0.2008  0.2907  0.1069
 3780TIP3    H132831   6.672   3.340   0.255 -0.7216  0.0454 -0.4530
 3780TIP3    H232832   6.669   3.478   0.318 -0.2706  0.6213 -1.6924
 3781TIP3   OH232833   4.341   5.070   3.585 -0.5293 -0.8794 -0.7365
 3781TIP3    H132834   4.327   5.127   3.509 -0.1861  0.7120  0.3626
 3781TIP3    H232835   4.428   5.095   3.618 -0.6849 -1.5308  0.1870
 3782TIP3   OH232836   2.574   1.529  17.273 -0.0906  0.0165  0.3278
 3782TIP3    H132837   2.578   1.624  17.281  2.5843 -0.0191 -0.1234
 3782TIP3    H232838   2.498   1.513  17.216  0.2359  1.9640 -0.7231
 3783TIP3   OH232839   0.147   6.570   1.476  0.6998 -0.0342 -0.5338
 3783TIP3    H132840   0.186   6.572   1.564 -2.7445  0.6859  1.0510
 3783TIP3    H232841   0.194   6.637   1.427  0.8004  1.4756  1.5851
 3784TIP3   OH232842   3.440   6.171   5.565  0.0034 -0.0873  0.5510
 3784TIP3    H132843   3.356   6.136   5.535  0.8901 -3.7748  2.0356
 3784TIP3    H232844   3.423   6.202   5.654 -0.1419  0.5804  0.2881
 3785TIP3   OH232845   5.171   5.898   3.164 -0.1153 -0.2652  0.1335
 3785TIP3    H132846   5.145   5.985   3.132  0.8574  0.6148  1.6929
 3785TIP3    H232847   5.088   5.856   3.186 -0.6913 -0.2444 -1.8267
 3786TIP3   OH232848   4.193   3.143  16.078 -0.2796 -0.1743  0.2218
 3786TIP3    H132849   4.230   3.138  15.989 -0.2978  0.2438  0.1946
 3786TIP3    H232850   4.240   3.214  16.120  1.8044 -2.2390  1.5159
 3787TIP3   OH232851   2.135   1.280  14.733 -1.2413  0.3166 -0.0201
 3787TIP3    H132852   2.113   1.202  14.682 -0.5866  1.0591 -1.4738
 3787TIP3    H232853   2.230   1.277  14.742 -1.4675 -0.4973  2.3243
 3788TIP3   OH232854   6.276   2.057   3.779 -0.0400 -0.1528 -0.2771
 3788TIP3    H132855   6.222   1.982   3.755  0.3729 -1.1927  1.8993
 3788TIP3    H232856   6.216   2.132   3.775 -0.9390 -0.8735 -0.5847
 3789TIP3   OH232857   0.593   0.458  12.049 -0.3489 -0.1660  0.0898
 3789TIP3    H132858   0.659   0.513  12.092  1.0301 -2.7836  1.4478
 3789TIP3    H232859   0.532   0.435  12.120  0.7841 -2.8303  0.2327
 3790TIP3   OH232860   0.996   2.280  14.316  0.9244  0.2188 -0.7033
 3790TIP3    H132861   1.033   2.325  14.392  0.8988 -1.7776  0.5625
 3790TIP3    H232862   1.038   2.321  14.240  0.2355  2.9070  0.3169
 3791TIP3   OH232863   5.295   1.801  11.259  0.4141  0.3172 -0.2085
 3791TIP3    H132864   5.246   1.876  11.226  0.7791 -0.2741 -2.1734
 3791TIP3    H232865   5.294   1.738  11.187 -0.4399 -1.8517  1.6011
 3792TIP3   OH232866   0.318   1.964  15.045 -0.4917 -0.0760 -0.1561
 3792TIP3    H132867   0.369   2.043  15.028 -0.1670 -0.0220  1.0271
 3792TIP3    H232868   0.350   1.900  14.981 -0.5561  0.6545 -0.9231
 3793TIP3   OH232869   3.558   2.191  17.099 -0.0807  0.3460 -0.0187
 3793TIP3    H132870   3.530   2.262  17.042 -1.4141 -0.2489 -0.1191
 3793TIP3    H232871   3.477   2.156  17.135  0.6605 -0.1969  1.1459
 3794TIP3   OH232872   3.229   1.999  16.281 -0.8839 -0.3250  0.4537
 3794TIP3    H132873   3.142   2.002  16.321 -1.4197 -0.5186 -0.6511
 3794TIP3    H232874   3.228   1.917  16.231  0.8589 -1.6103  2.4611
 3795TIP3   OH232875   1.262   0.071   1.396  0.0745 -0.2682  0.1692
 3795TIP3    H132876   1.288   0.032   1.479  0.9028 -1.1124 -0.4757
 3795TIP3    H232877   1.332   0.133   1.375  0.4989 -0.9541 -0.4929
 3796TIP3   OH232878   1.055   1.348   2.657 -0.0371  0.1395 -0.6745
 3796TIP3    H132879   1.052   1.260   2.694 -0.2295  0.2124 -0.5176
 3796TIP3    H232880   1.129   1.346   2.596  0.0094 -0.1059 -0.6092
 3797TIP3   OH232881   0.943   5.478  11.780 -0.0599 -0.0344 -0.1707
 3797TIP3    H132882   0.996   5.469  11.860 -0.1888 -3.2462 -0.3761
 3797TIP3    H232883   1.004   5.462  11.709 -0.5612 -0.1872 -0.5696
 3798TIP3   OH232884   3.859   5.587   2.214  0.5841 -0.0894 -0.1077
 3798TIP3    H132885   3.769   5.610   2.239  0.9550  0.9533  0.2991
 3798TIP3    H232886   3.912   5.659   2.248  1.4923 -0.3475 -0.9745
 3799TIP3   OH232887   5.096   0.641   5.808  0.2568 -0.8054  0.2886
 3799TIP3    H132888   5.095   0.691   5.726 -0.6205 -1.6726 -0.2328
 3799TIP3    H232889   5.134   0.701   5.871  1.2794 -0.2487 -0.8359
 3800TIP3   OH232890   2.428   6.010  12.783 -0.0824  0.0763 -0.3264
 3800TIP3    H132891   2.374   5.942  12.824  0.8663 -1.0465 -0.8840
 3800TIP3    H232892   2.512   6.004  12.828  0.1259  0.6138 -0.6457
 3801TIP3   OH232893   5.599   2.349   2.924  0.3807 -0.0937 -0.2230
 3801TIP3    H132894   5.611   2.392   3.009 -0.3230 -1.8154  0.7706
 3801TIP3    H232895   5.665   2.279   2.923 -0.9684 -1.3806 -0.2152
 3802TIP3   OH232896   4.295   0.535   1.741 -0.0813 -0.7009  0.0854
 3802TIP3    H132897   4.258   0.532   1.653  0.2432  3.1208 -0.2690
 3802TIP3    H232898   4.388   0.517   1.729  0.2549  1.3674 -0.6202
 3803TIP3   OH232899   6.153   5.325  16.121  0.1358 -0.3229 -0.4124
 3803TIP3    H132900   6.085   5.306  16.056  1.0813 -0.4751 -1.3667
 3803TIP3    H232901   6.134   5.414  16.151 -0.8062 -0.5675 -0.2601
 3804TIP3   OH232902   6.594   0.457  14.151 -0.2524  0.1477  0.4204
 3804TIP3    H132903   6.617   0.398  14.080 -1.9066 -1.0786  0.8689
 3804TIP3    H232904   6.517   0.505  14.118 -2.4143 -2.0045  2.1520
 3805TIP3   OH232905   1.806   2.575   0.200 -0.0395 -0.3442  0.0835
 3805TIP3    H132906   1.821   2.535   0.286 -1.2075 -0.7451  0.1148
 3805TIP3    H232907   1.893   2.599   0.169  0.8039 -3.5469 -0.2398
 3806TIP3   OH232908   2.149   6.328   5.771  0.2434 -0.2399 -0.5452
 3806TIP3    H132909   2.067   6.346   5.724 -0.9301  0.3058  1.6243
 3806TIP3    H232910   2.123   6.265   5.840  1.2414  1.3387  1.3225
 3807TIP3   OH232911   0.534   0.089  16.193  0.5988 -0.3456 -0.2895
 3807TIP3    H132912   0.498   0.111  16.279 -0.8474 -0.0301 -0.9642
 3807TIP3    H232913   0.568  -0.000  16.204  0.4270 -0.3126  0.5969
 3808TIP3   OH232914   3.274   6.464  14.419 -0.2506  0.1050 -0.4574
 3808TIP3    H132915   3.221   6.511  14.355 -0.6395 -1.3017 -1.1959
 3808TIP3    H232916   3.365   6.489  14.398 -0.5643  2.1814  0.5412
 3809TIP3   OH232917   5.922   3.803  16.145  0.5471 -0.3461 -0.0007
 3809TIP3    H132918   5.900   3.888  16.107  0.7410 -1.2114 -2.0938
 3809TIP3    H232919   5.839   3.757  16.152  0.8344 -1.1521 -1.7895
 3810TIP3   OH232920   4.534   5.310  17.000 -0.2337 -0.0992  0.4350
 3810TIP3    H132921   4.521   5.215  16.993  0.4595 -0.3178  1.8943
 3810TIP3    H232922   4.619   5.319  17.044 -1.4186  1.1697  2.5227
 3811TIP3   OH232923   2.248   1.735  11.392 -0.0900 -0.5548  0.3319
 3811TIP3    H132924   2.304   1.783  11.453 -1.7340 -0.2172  1.6216
 3811TIP3    H232925   2.307   1.676  11.345  1.4912  0.5863  0.8647
 3812TIP3   OH232926   1.675   6.751   4.395 -0.5163 -0.0653  0.2620
 3812TIP3    H132927   1.623   6.803   4.456 -0.5121 -0.5659  0.6874
 3812TIP3    H232928   1.612   6.720   4.330 -0.4912  0.6087 -0.0868
 3813TIP3   OH232929   4.702   0.644  13.722  1.1335 -0.0646  0.1393
 3813TIP3    H132930   4.726   0.558  13.756 -1.1972 -1.1827 -0.8910
 3813TIP3    H232931   4.752   0.706  13.774  1.2547 -1.9545  2.3268
 3814TIP3   OH232932   1.030   6.062   5.824  0.4527  0.3810 -0.9660
 3814TIP3    H132933   1.030   6.153   5.853 -1.0314 -0.0484  0.4671
 3814TIP3    H232934   1.084   6.016   5.888 -1.1201 -0.2164 -0.0369
 3815TIP3   OH232935   1.178   1.702   3.098  0.2250 -0.2109 -0.2762
 3815TIP3    H132936   1.126   1.658   3.030  2.4029 -1.4901 -1.1761
 3815TIP3    H232937   1.218   1.631   3.148  1.5762  0.7233  0.0148
 3816TIP3   OH232938   5.703   4.214  11.627 -0.5143 -0.6039  0.7766
 3816TIP3    H132939   5.752   4.137  11.654 -2.7669 -2.1912  0.5075
 3816TIP3    H232940   5.755   4.252  11.556 -0.4875 -3.1888 -0.6534
 3817TIP3   OH232941   1.615   6.486  13.875 -0.0463 -0.2480 -0.5162
 3817TIP3    H132942   1.604   6.409  13.819 -1.9764  0.1806 -0.7638
 3817TIP3    H232943   1.664   6.453  13.951  1.7559 -1.0426 -1.9656
 3818TIP3   OH232944   2.357   6.294   4.071  0.2753  0.0769 -0.2945
 3818TIP3    H132945   2.303   6.371   4.050 -0.0071 -0.2525 -0.7917
 3818TIP3    H232946   2.395   6.314   4.157  0.8215  1.1036 -0.7709
 3819TIP3   OH232947   1.236   2.205   2.779 -0.3582  0.0803 -0.5008
 3819TIP3    H132948   1.308   2.184   2.838 -1.2603  0.8785  0.8970
 3819TIP3    H232949   1.248   2.297   2.758 -1.0858  0.2696 -0.1001
 3820TIP3   OH232950   3.277   3.586  11.161 -0.2233 -0.2290 -0.1941
 3820TIP3    H132951   3.204   3.589  11.223  0.0793 -2.3140  0.3116
 3820TIP3    H232952   3.355   3.575  11.215 -0.0346 -2.8976 -0.9236
 3821TIP3   OH232953   5.443   0.077   1.375  0.2157  0.0723  0.2425
 3821TIP3    H132954   5.517   0.100   1.431 -1.4562  0.1648  2.4484
 3821TIP3    H232955   5.381   0.149   1.385 -0.5775 -0.4331 -0.8782
 3822TIP3   OH232956   3.429   4.049   1.405  0.3215  0.5941 -0.0590
 3822TIP3    H132957   3.375   3.970   1.391  1.4361 -0.3143  0.7170
 3822TIP3    H232958   3.374   4.106   1.458 -0.0311 -0.1638  0.3924
 3823TIP3   OH232959   1.080   2.828  11.536 -0.7474 -0.0086  0.4818
 3823TIP3    H132960   1.158   2.772  11.543 -0.4200  0.3517 -0.1834
 3823TIP3    H232961   1.057   2.825  11.443 -1.6497 -0.2652  0.7084
 3824TIP3   OH232962   4.011   3.397  15.592 -0.0752 -0.5812 -0.1619
 3824TIP3    H132963   3.933   3.367  15.545 -0.3367 -0.5018  0.2197
 3824TIP3    H232964   3.977   3.441  15.670  0.3324  0.2145 -0.4312
 3825TIP3   OH232965   5.367   6.103  16.409 -0.4757  0.3370  0.5384
 3825TIP3    H132966   5.389   6.156  16.486 -0.0605  0.2205  0.4999
 3825TIP3    H232967   5.385   6.161  16.335 -0.1738  0.1941  0.5007
 3826TIP3   OH232968   2.158   3.570   4.336 -0.3327  0.1768 -0.0162
 3826TIP3    H132969   2.202   3.614   4.263 -1.1994  0.5266 -0.3340
 3826TIP3    H232970   2.066   3.567   4.310 -0.4741 -0.7084  0.5660
 3827TIP3   OH232971   3.099   4.773  16.053  0.2443  0.0131  0.4774
 3827TIP3    H132972   3.167   4.840  16.060  1.1458 -0.8421  0.0398
 3827TIP3    H232973   3.089   4.759  15.959  1.5270 -1.9236  0.6072
 3828TIP3   OH232974   3.163   5.734  13.841 -0.2433  0.5739  0.2894
 3828TIP3    H132975   3.258   5.744  13.834 -0.4454  1.0225 -2.3629
 3828TIP3    H232976   3.150   5.640  13.852  0.5263  0.5818  1.3811
 3829TIP3   OH232977   3.768   4.770   1.641  0.3986 -0.5898  0.2982
 3829TIP3    H132978   3.725   4.686   1.621  2.1875 -1.3450 -0.4833
 3829TIP3    H232979   3.774   4.815   1.557 -0.6820  0.4006  0.7412
 3830TIP3   OH232980   2.867   3.466  14.845 -0.0333  0.0994  0.2639
 3830TIP3    H132981   2.786   3.467  14.897 -0.2176 -1.3616  0.0171
 3830TIP3    H232982   2.903   3.554  14.856 -1.7825  0.8512  0.1806
 3831TIP3   OH232983   0.688   2.328   1.720  0.0481  0.5032 -0.5901
 3831TIP3    H132984   0.695   2.398   1.655 -1.2447 -0.1558 -1.4627
 3831TIP3    H232985   0.618   2.272   1.687  2.3910 -2.3158 -0.9433
 3832TIP3   OH232986   4.439   4.778  11.814 -0.0393 -0.0121  0.0218
 3832TIP3    H132987   4.524   4.813  11.841 -0.4500  0.2543  0.9972
 3832TIP3    H232988   4.388   4.774  11.895 -1.6306  1.6994 -0.8636
 3833TIP3   OH232989   5.884   5.810   5.722 -0.0086 -0.1464 -0.5920
 3833TIP3    H132990   5.887   5.839   5.631 -0.2441  0.5939 -0.3714
 3833TIP3    H232991   5.856   5.888   5.771  1.8228 -0.0438  0.3301
 3834TIP3   OH232992   2.545   6.674  13.204  0.1806 -0.2958 -0.1134
 3834TIP3    H132993   2.505   6.725  13.275  0.9521 -0.7939  0.6875
 3834TIP3    H232994   2.632   6.651  13.237  0.3333 -1.0146 -0.9984
 3835TIP3   OH232995   0.492   2.344   2.737 -0.0388  0.8305  0.5998
 3835TIP3    H132996   0.411   2.319   2.781  0.2921  0.0663  0.7752
 3835TIP3    H232997   0.508   2.434   2.765 -0.1660  0.5654  1.5407
 3836TIP3   OH232998   6.532   6.338  17.237 -0.4970 -0.2038 -0.5294
 3836TIP3    H132999   6.588   6.375  17.306 -0.7084 -1.6461  0.4347
 3836TIP3    H233000   6.583   6.265  17.202  0.2070  1.3630 -2.8915
 3837TIP3   OH233001   4.199   4.100  14.000 -0.0370 -0.1946 -0.1930
 3837TIP3    H133002   4.261   4.152  14.051  1.3521 -0.3402 -1.6917
 3837TIP3    H233003   4.175   4.027  14.058 -0.9786  1.3710  1.4196
 3838TIP3   OH233004   1.633   3.868   5.628 -0.7476 -0.0710 -1.0755
 3838TIP3    H133005   1.711   3.830   5.670  0.2163  0.6424 -2.1855
 3838TIP3    H233006   1.566   3.801   5.639 -0.1939 -0.4105  0.5250
 3839TIP3   OH233007   6.444   2.440   3.604  0.1804  0.1965 -0.0548
 3839TIP3    H133008   6.429   2.534   3.589  1.3567  0.7121  1.7921
 3839TIP3    H233009   6.365   2.398   3.571 -0.1466  1.7904 -1.3823
 3840TIP3   OH233010   1.345   3.855  15.249 -0.4425  0.5862  0.3718
 3840TIP3    H133011   1.299   3.854  15.333 -2.3692  0.9973 -0.6616
 3840TIP3    H233012   1.380   3.944  15.242 -0.6693  0.6862  0.5136
 3841TIP3   OH233013   1.104   2.521  12.177  0.3280  1.2944 -0.2687
 3841TIP3    H133014   1.141   2.581  12.112  0.8415  0.4632 -0.7492
 3841TIP3    H233015   1.116   2.567  12.261  2.2217  1.1557 -0.4426
 3842TIP3   OH233016   5.686   2.077   3.545 -0.0016 -0.2300  0.0577
 3842TIP3    H133017   5.733   2.077   3.628 -1.8850 -3.2868  1.2231
 3842TIP3    H233018   5.629   2.155   3.549 -0.8922 -0.9585  2.1535
 3843TIP3   OH233019   4.724   2.455  15.059 -0.3815 -0.0012 -0.2285
 3843TIP3    H133020   4.708   2.522  14.993  0.9605 -0.9970 -1.5816
 3843TIP3    H233021   4.748   2.505  15.138 -1.1061  1.1569 -0.7360
 3844TIP3   OH233022   3.062   4.905  12.789  0.1773 -0.4560 -0.2672
 3844TIP3    H133023   3.136   4.965  12.783  0.2559 -0.5638 -0.4002
 3844TIP3    H233024   3.070   4.864  12.875 -0.3066  0.2749  0.1313
 3845TIP3   OH233025   2.627   1.664  15.493 -0.0092 -0.0699 -0.4356
 3845TIP3    H133026   2.602   1.578  15.527 -0.5020 -0.3192 -1.4237
 3845TIP3    H233027   2.603   1.724  15.564 -1.2850 -0.5604 -0.4262
 3846TIP3   OH233028   1.634   2.083   4.695  1.4300 -0.0067  0.3122
 3846TIP3    H133029   1.596   2.123   4.617  0.8533  1.0972  1.1361
 3846TIP3    H233030   1.707   2.030   4.663  0.8505 -0.0086 -1.0221
 3847TIP3   OH233031   1.636   5.667  15.656  0.4296 -0.0073 -0.2092
 3847TIP3    H133032   1.616   5.591  15.710 -2.0563  0.8518  0.1448
 3847TIP3    H233033   1.710   5.709  15.700 -0.7718  0.0088  1.8404
 3848TIP3   OH233034   6.069   1.476  12.638  0.4025 -0.4624 -0.4454
 3848TIP3    H133035   5.996   1.528  12.673 -0.5942 -1.2945 -1.2845
 3848TIP3    H233036   6.107   1.434  12.715  1.6214  1.9466  0.3550
 3849TIP3   OH233037   1.500   4.098  12.200 -0.0470  0.7556  0.7697
 3849TIP3    H133038   1.511   4.086  12.294  2.2133 -0.7429  0.3728
 3849TIP3    H233039   1.586   4.075  12.163 -1.0980  0.6312 -1.6967
 3850TIP3   OH233040   6.415   0.282  15.031  0.0863 -0.4007  0.1641
 3850TIP3    H133041   6.505   0.253  15.024  0.7568  1.9851 -2.1339
 3850TIP3    H233042   6.378   0.269  14.944 -1.4095 -0.1395  0.7286
 3851TIP3   OH233043   6.724   5.921  10.723 -0.3079 -0.1167 -0.4100
 3851TIP3    H133044   6.702   5.838  10.681 -2.0024 -0.0459  0.3255
 3851TIP3    H233045   6.677   5.987  10.671 -5.1873 -0.2968  3.4600
 3852TIP3   OH233046   4.497   6.707  11.925  0.0379 -0.1885  0.0300
 3852TIP3    H133047   4.468   6.765  11.854 -0.0767  0.8181  0.8972
 3852TIP3    H233048   4.439   6.630  11.918 -0.8725  0.4974 -0.1241
 3853TIP3   OH233049   5.385   0.753  14.896  0.1839 -0.3826  0.3357
 3853TIP3    H133050   5.471   0.747  14.853  1.7517 -0.9432  3.3768
 3853TIP3    H233051   5.406   0.753  14.989 -3.1838 -0.7718  1.1327
 3854TIP3   OH233052   1.223   4.155  12.184  0.9279  0.0450  0.5348
 3854TIP3    H133053   1.309   4.120  12.207  0.3890 -0.3937  1.9039
 3854TIP3    H233054   1.201   4.215  12.256  0.7955  1.3938 -0.6084
 3855TIP3   OH233055   2.690   1.238   0.285 -0.1127 -0.0396 -0.2603
 3855TIP3    H133056   2.723   1.182   0.214  3.4664 -0.3937  1.5925
 3855TIP3    H233057   2.737   1.321   0.274 -0.3398  0.2797  1.0633
 3856TIP3   OH233058   0.623   1.674  12.434 -0.4669 -0.0486 -0.4617
 3856TIP3    H133059   0.704   1.687  12.384 -0.1982  1.7962  0.4287
 3856TIP3    H233060   0.556   1.658  12.367  0.0204  1.7240 -1.4037
 3857TIP3   OH233061   2.315   0.971   3.369 -0.3016  0.4166  0.3709
 3857TIP3    H133062   2.388   1.034   3.377 -0.2087  0.2019  1.3237
 3857TIP3    H233063   2.243   1.023   3.333 -0.7016  1.4734  2.5978
 3858TIP3   OH233064   0.539   1.145  15.430 -0.2180  0.2622 -0.2192
 3858TIP3    H133065   0.479   1.108  15.366  0.1632 -1.8640  0.6074
 3858TIP3    H233066   0.527   1.091  15.509  2.4855 -0.0085  0.0694
 3859TIP3   OH233067   5.856   2.061  14.968 -0.4346 -0.3993 -0.0594
 3859TIP3    H133068   5.849   2.154  14.948 -0.7124 -0.1660  1.0974
 3859TIP3    H233069   5.918   2.057  15.041 -0.2232 -1.1529 -0.2727
 3860TIP3   OH233070   1.958   1.969  12.099 -0.0457 -0.2531  0.0472
 3860TIP3    H133071   1.986   1.922  12.178  1.1056  1.3897  0.6713
 3860TIP3    H233072   1.872   2.004  12.121 -0.2678 -0.8474  0.1168
 3861TIP3   OH233073   2.041   0.298   6.075 -0.1049 -0.2275 -0.1476
 3861TIP3    H133074   2.075   0.212   6.052 -1.4107 -0.8285  0.1261
 3861TIP3    H233075   1.946   0.286   6.081 -0.2104  0.9709  0.9361
 3862TIP3   OH233076   5.345   0.596   3.129 -0.0414 -0.3163  0.1154
 3862TIP3    H133077   5.351   0.502   3.110  2.0647 -0.5093  1.5483
 3862TIP3    H233078   5.433   0.629   3.111 -0.1661  0.9543  1.7933
 3863TIP3   OH233079   0.433   5.887   4.198  0.7472 -0.4703 -0.3319
 3863TIP3    H133080   0.397   5.964   4.155 -0.8452  0.1840  2.0708
 3863TIP3    H233081   0.520   5.914   4.228  0.3208  0.2937  0.2201
 3864TIP3   OH233082   0.913   5.815  14.307 -0.2760  0.1675  0.0520
 3864TIP3    H133083   0.847   5.778  14.366 -0.6198 -1.9937 -1.6413
 3864TIP3    H233084   0.968   5.740  14.283  0.5223  1.2349 -1.5178
 3865TIP3   OH233085   3.085   3.805  14.215  1.0100  0.1809 -0.0291
 3865TIP3    H133086   3.058   3.892  14.184  0.4403 -0.1220 -0.3841
 3865TIP3    H233087   3.012   3.748  14.192  1.4379 -0.4186  0.1010
 3866TIP3   OH233088   3.121   6.099  13.311 -0.0327  0.3989  0.2364
 3866TIP3    H133089   3.159   6.025  13.358  0.6436  0.3461 -0.3850
 3866TIP3    H233090   3.042   6.121  13.360 -0.4387 -0.9737  0.2101
 3867TIP3   OH233091   0.401   1.155   4.747  0.1724 -0.4921 -0.3433
 3867TIP3    H133092   0.431   1.064   4.745 -0.2195 -0.6305 -0.1817
 3867TIP3    H233093   0.393   1.180   4.655 -2.2182 -1.4814 -0.4341
 3868TIP3   OH233094   6.567   4.228   5.636 -0.1098  0.2987 -0.0994
 3868TIP3    H133095   6.570   4.133   5.648 -0.1411  0.4739  1.4287
 3868TIP3    H233096   6.599   4.243   5.547 -0.2743 -1.1574 -0.4033
 3869TIP3   OH233097   0.912   4.053   2.475 -0.7857 -0.2627 -0.4909
 3869TIP3    H133098   0.930   4.117   2.406 -0.6827 -0.4237 -0.6140
 3869TIP3    H233099   0.974   4.074   2.544  1.3370 -2.1330 -1.7569
 3870TIP3   OH233100   4.847   5.080   1.550  0.1942  0.0552 -0.2646
 3870TIP3    H133101   4.851   5.035   1.635  2.5878 -0.2927 -0.5375
 3870TIP3    H233102   4.909   5.032   1.494 -0.2993  1.1551 -1.7894
 3871TIP3   OH233103   3.715   5.211  11.056 -0.3713  0.6018 -0.2866
 3871TIP3    H133104   3.697   5.203  10.963 -2.1533  0.4097  0.0543
 3871TIP3    H233105   3.658   5.282  11.086 -1.5018 -0.8250  1.0637
 3872TIP3   OH233106   3.620   5.735   2.197 -0.7397 -0.4708 -0.2232
 3872TIP3    H133107   3.695   5.791   2.175 -2.0854  1.0624 -0.9555
 3872TIP3    H233108   3.576   5.780   2.269 -0.4523 -1.8515  0.8556
 3873TIP3   OH233109   5.917   6.549  11.384 -0.7412 -0.0600  0.5880
 3873TIP3    H133110   5.990   6.590  11.337 -0.5537 -0.7756  0.2497
 3873TIP3    H233111   5.955   6.520  11.467 -0.5447 -0.7667  0.2564
 3874TIP3   OH233112   5.013   3.513  11.891  0.2249  0.4308  0.3455
 3874TIP3    H133113   5.034   3.567  11.815  1.7118  0.6293  0.8845
 3874TIP3    H233114   5.069   3.546  11.961 -0.0670 -0.7146  1.1413
 3875TIP3   OH233115   0.783   6.038  16.352  0.3187  0.1307 -0.0659
 3875TIP3    H133116   0.856   6.035  16.290  1.6577 -0.5649  1.5131
 3875TIP3    H233117   0.738   6.120  16.333  1.6452  0.6727 -0.9128
 3876TIP3   OH233118   5.912   1.130  15.513  0.2888 -0.4622 -0.2227
 3876TIP3    H133119   5.997   1.119  15.472  0.5116 -1.3588  0.4575
 3876TIP3    H233120   5.912   1.069  15.587 -0.0066  1.3063  1.2856
 3877TIP3   OH233121   6.576   1.503  15.428  0.1650 -0.1870 -0.0306
 3877TIP3    H133122   6.535   1.553  15.499  0.8901  1.3470 -0.6825
 3877TIP3    H233123   6.506   1.492  15.363  0.3628  1.1905 -0.4976
 3878TIP3   OH233124   0.942   1.691   5.462  0.7477  0.3698  0.3078
 3878TIP3    H133125   0.856   1.668   5.428  0.1037  1.4574  1.1447
 3878TIP3    H233126   0.998   1.617   5.440 -0.8089 -1.1372  1.3052
 3879TIP3   OH233127   3.761   0.633   4.032 -0.0564  0.1204  0.5359
 3879TIP3    H133128   3.695   0.649   4.100 -2.4479 -1.1133 -1.4218
 3879TIP3    H233129   3.778   0.719   3.994 -0.6530  0.4372  0.9799
 3880TIP3   OH233130   5.113   6.675   5.587 -0.3191  0.8769  0.2486
 3880TIP3    H133131   5.203   6.658   5.616 -0.7825  0.4718  1.5038
 3880TIP3    H233132   5.117   6.672   5.492  0.5118 -1.6118  0.3339
 3881TIP3   OH233133   5.694   0.832  11.528 -0.1197 -0.0611  0.5676
 3881TIP3    H133134   5.653   0.749  11.503 -1.7465  0.3663  1.7450
 3881TIP3    H233135   5.624   0.881  11.572  0.4605  2.4123 -1.1524
 3882TIP3   OH233136   2.724   2.211   3.835  0.1215 -0.4843  0.5420
 3882TIP3    H133137   2.712   2.212   3.740 -0.2061 -1.4173  0.5677
 3882TIP3    H233138   2.699   2.122   3.862 -0.4063 -0.0380  1.5793
 3883TIP3   OH233139   1.034   1.258   3.950  0.2428 -0.0167 -0.3339
 3883TIP3    H133140   1.025   1.212   4.034  1.6569  0.5651  0.1596
 3883TIP3    H233141   0.945   1.272   3.920 -0.2557 -0.9969  0.6618
 3884TIP3   OH233142   6.475   1.320  12.072 -0.1544  0.5652  0.2897
 3884TIP3    H133143   6.528   1.242  12.056  0.2687  0.7666  0.7098
 3884TIP3    H233144   6.387   1.295  12.045  0.1345  0.1966 -0.3181
 3885TIP3   OH233145   4.286   2.317   1.400  0.0537  0.2136 -0.0788
 3885TIP3    H133146   4.371   2.279   1.381  0.3617  0.3038  1.1017
 3885TIP3    H233147   4.226   2.242   1.401 -0.0011  0.2210 -1.5168
 3886TIP3   OH233148   2.882   4.735  11.553  0.6528 -0.5266  0.2617
 3886TIP3    H133149   2.787   4.747  11.563  0.9753  1.6516  0.9003
 3886TIP3    H233150   2.901   4.763  11.464  0.7347 -0.7992  0.1913
 3887TIP3   OH233151   1.623   4.022  11.110 -0.1828  0.1077 -0.7748
 3887TIP3    H133152   1.617   4.041  11.204 -0.9127  0.3525 -0.8724
 3887TIP3    H233153   1.667   4.098  11.073  0.9065 -0.3798 -0.5061
 3888TIP3   OH233154   2.896   0.172   2.752 -0.4360  0.2689 -0.5545
 3888TIP3    H133155   2.900   0.138   2.842  1.2732 -0.6898 -0.9670
 3888TIP3    H233156   2.934   0.259   2.758 -0.4933  0.2788 -0.3189
 3889TIP3   OH233157   0.770   3.471   3.395  0.0815 -0.2185 -0.1443
 3889TIP3    H133158   0.803   3.427   3.317  1.9137  0.3105  0.3218
 3889TIP3    H233159   0.727   3.401   3.445 -0.6627 -0.6536 -1.3662
 3890TIP3   OH233160   2.808   1.086   5.038 -0.0060 -0.2429 -0.1854
 3890TIP3    H133161   2.839   1.145   4.969 -0.9131  1.8062  1.1454
 3890TIP3    H233162   2.803   1.000   4.994  0.0435  0.8832 -2.4899
 3891TIP3   OH233163   4.097   2.260  16.986  0.2566  0.0199 -0.1420
 3891TIP3    H133164   4.010   2.222  17.001  0.3735  0.6624  2.3674
 3891TIP3    H233165   4.080   2.341  16.938 -0.4392 -0.3071 -0.4550
 3892TIP3   OH233166   4.531   5.687  15.379  0.2066 -0.4804  0.3165
 3892TIP3    H133167   4.462   5.665  15.442 -0.2237  0.1291  0.0725
 3892TIP3    H233168   4.606   5.713  15.433 -0.3139  0.4950  0.5889
 3893TIP3   OH233169   2.736   6.645   2.289  0.1548  0.5161  0.3516
 3893TIP3    H133170   2.810   6.678   2.341  0.3105 -0.7905  0.9829
 3893TIP3    H233171   2.684   6.723   2.270  1.1691  1.3084  0.7503
 3894TIP3   OH233172   0.776   3.836   1.889 -0.2832 -0.0822 -0.2547
 3894TIP3    H133173   0.708   3.901   1.909 -1.0489 -1.2700  1.1307
 3894TIP3    H233174   0.855   3.871   1.931 -1.1852 -1.0474  2.3941
 3895TIP3   OH233175   5.970   4.706  16.605 -0.0032  0.1929  0.2275
 3895TIP3    H133176   5.917   4.644  16.655  0.6628  0.6705  1.5427
 3895TIP3    H233177   5.940   4.792  16.634 -1.4738  0.5330 -2.1623
 3896TIP3   OH233178   5.157   0.437   1.893  0.7976  0.5245 -0.8337
 3896TIP3    H133179   5.076   0.420   1.941  1.4208 -0.3136 -0.0752
 3896TIP3    H233180   5.217   0.472   1.959  2.4615 -2.9277 -0.4285
 3897TIP3   OH233181   0.412   5.685  14.965  0.1775  0.0706  0.2541
 3897TIP3    H133182   0.399   5.676  15.060  0.6586  0.6207  0.3739
 3897TIP3    H233183   0.405   5.596  14.932  1.4379 -0.3143  0.9972
 3898TIP3   OH233184   2.751   3.294   0.401 -0.5701  0.1818 -0.9498
 3898TIP3    H133185   2.786   3.349   0.472  0.7018 -0.1235 -1.3154
 3898TIP3    H233186   2.825   3.239   0.376 -2.0296 -2.2105 -0.0940
 3899TIP3   OH233187   6.211   2.677   0.188  0.3710 -0.2245 -0.0548
 3899TIP3    H133188   6.150   2.730   0.137 -0.7926 -1.8639 -0.4132
 3899TIP3    H233189   6.156   2.638   0.257  1.3609 -0.3324  0.6844
 3900TIP3   OH233190   3.495   2.482   5.180  0.0014  0.3185  0.1421
 3900TIP3    H133191   3.410   2.478   5.225 -0.7556 -0.4098 -1.3222
 3900TIP3    H233192   3.549   2.418   5.227  0.2259  1.8092  2.0033
 3901TIP3   OH233193   6.030   2.646   4.681 -0.0043  0.0269  0.2849
 3901TIP3    H133194   6.093   2.685   4.621 -1.4628 -0.6651 -1.7412
 3901TIP3    H233195   6.079   2.633   4.762  2.2573  0.0887 -1.0431
 3902TIP3   OH233196   4.517   6.161  16.563 -0.0832  0.6097 -0.3908
 3902TIP3    H133197   4.588   6.219  16.591 -1.1972  1.4159  0.8146
 3902TIP3    H233198   4.531   6.080  16.613 -1.9707  1.9838  2.4944
 3903TIP3   OH233199   6.812   4.914  15.897 -0.0665  0.0845  0.6675
 3903TIP3    H133200   6.823   4.867  15.814 -0.2927 -0.9515  1.2046
 3903TIP3    H233201   6.901   4.936  15.924 -0.0596  1.4588 -0.4135
 3904TIP3   OH233202   5.693   5.810  11.353 -0.9498 -0.4345  0.0481
 3904TIP3    H133203   5.732   5.888  11.314  0.2570 -1.1773 -0.2636
 3904TIP3    H233204   5.624   5.843  11.410 -0.1855  0.8790  0.2227
 3905TIP3   OH233205   6.356   5.836  17.155 -1.0415 -0.1815  0.3691
 3905TIP3    H133206   6.423   5.771  17.131 -0.9732  0.0056  0.0459
 3905TIP3    H233207   6.325   5.870  17.071 -0.1700  1.1280  0.5577
 3906TIP3   OH233208   0.829   6.817  13.010  0.5147  0.2402 -0.2125
 3906TIP3    H133209   0.849   6.850  13.098  0.0442  1.8239 -0.6725
 3906TIP3    H233210   0.833   6.895  12.954 -1.1396 -0.4152 -1.2761
 3907TIP3   OH233211   5.621   4.716   3.555 -0.1932 -0.2613  0.2092
 3907TIP3    H133212   5.533   4.751   3.544 -0.3108 -0.5777  0.1198
 3907TIP3    H233213   5.639   4.670   3.473  0.7931  1.3827 -0.5267
 3908TIP3   OH233214   5.482   4.243   2.278  0.3843  0.6930  0.4975
 3908TIP3    H133215   5.445   4.290   2.353  0.5734  0.1858  0.9104
 3908TIP3    H233216   5.555   4.297   2.249 -1.2425  2.2013 -0.9244
 3909TIP3   OH233217   0.894   5.090   2.865  0.2709 -0.0863 -0.2848
 3909TIP3    H133218   0.804   5.105   2.836  0.3546 -0.4086 -0.7017
 3909TIP3    H233219   0.942   5.067   2.786  0.5151 -0.8784  0.0892
 3910TIP3   OH233220   5.176   3.998  17.188 -0.5990  0.1245 -0.1031
 3910TIP3    H133221   5.207   3.950  17.265 -1.7625  0.0861  0.3549
 3910TIP3    H233222   5.093   4.036  17.216 -2.0498 -1.5603 -1.9626
 3911TIP3   OH233223   5.474   5.959   3.756  0.2357 -0.1379  0.0242
 3911TIP3    H133224   5.464   5.876   3.710  1.6767 -0.7589  0.8000
 3911TIP3    H233225   5.540   5.942   3.823  1.0072  1.7918 -0.1980
 3912TIP3   OH233226   5.140   5.604   1.871  0.1592 -0.5521  0.2315
 3912TIP3    H133227   5.217   5.566   1.912  0.9824  0.3910 -0.4109
 3912TIP3    H233228   5.103   5.662   1.938  2.1132  1.8097 -0.6830
 3913TIP3   OH233229   5.494   3.363   2.902  0.3534 -0.1627 -0.0763
 3913TIP3    H133230   5.443   3.435   2.865  0.5400  1.0727  1.9539
 3913TIP3    H233231   5.579   3.370   2.860  0.0579  0.1799 -0.6263
 3914TIP3   OH233232   3.576   1.767   4.354 -0.1722 -0.2166 -0.3409
 3914TIP3    H133233   3.493   1.728   4.328 -0.5774  0.3795  0.0491
 3914TIP3    H233234   3.570   1.858   4.323 -0.3962  0.3215  1.2763
 3915TIP3   OH233235   5.011   1.861   0.820  0.4301 -0.1268  0.8201
 3915TIP3    H133236   5.051   1.905   0.744  0.3976 -2.1291 -0.3980
 3915TIP3    H233237   5.049   1.906   0.896  2.2923  0.3574 -0.3587
 3916TIP3   OH233238   2.857   4.177  14.223 -0.3003 -0.2518 -0.2834
 3916TIP3    H133239   2.949   4.202  14.232 -0.6900  0.6502  1.4946
 3916TIP3    H233240   2.834   4.203  14.134  1.6404 -2.1724 -1.4171
 3917TIP3   OH233241   4.439   6.260   2.814 -0.5980  0.3597 -0.1533
 3917TIP3    H133242   4.498   6.306   2.754 -1.1017 -0.7737 -1.5774
 3917TIP3    H233243   4.355   6.306   2.806 -0.4914  0.6128  0.1827
 3918TIP3   OH233244   2.548   1.568   4.662  0.0479  0.5440 -0.6902
 3918TIP3    H133245   2.521   1.658   4.682  0.0533  0.2214  0.8476
 3918TIP3    H233246   2.644   1.570   4.663  0.1611 -0.5017  4.5740
 3919TIP3   OH233247   4.353   5.332   5.275 -0.0236 -0.2174  0.1178
 3919TIP3    H133248   4.271   5.364   5.311  0.4525 -1.0584  2.0617
 3919TIP3    H233249   4.329   5.253   5.226 -0.6535  0.7726 -1.1568
 3920TIP3   OH233250   5.732   6.245   4.418 -0.7477 -0.3009  0.2278
 3920TIP3    H133251   5.701   6.323   4.373 -0.7053 -0.2873  0.2215
 3920TIP3    H233252   5.653   6.203   4.451 -0.8429 -0.7308 -0.5370
 3921TIP3   OH233253   2.610   5.838  13.322  0.0359 -0.3335  0.2604
 3921TIP3    H133254   2.575   5.758  13.361  1.5231 -1.6556 -1.0770
 3921TIP3    H233255   2.576   5.838  13.233 -1.1828  1.3250  0.6963
 3922TIP3   OH233256   0.565   3.957   1.975  0.2318 -0.3369  0.3575
 3922TIP3    H133257   0.512   4.019   1.924 -0.4889 -1.0095  0.2803
 3922TIP3    H233258   0.507   3.883   1.991  0.4453 -0.1391  2.1738
 3923TIP3   OH233259   5.272   2.813   1.764 -0.0842 -0.1991  0.9033
 3923TIP3    H133260   5.213   2.889   1.758 -0.5764 -0.4921  1.9659
 3923TIP3    H233261   5.345   2.836   1.706 -0.7169  0.6404  0.4129
 3924TIP3   OH233262   4.732   6.502   6.012  0.2710 -0.4243 -0.9297
 3924TIP3    H133263   4.726   6.433   6.078  0.0177 -2.2059 -2.7751
 3924TIP3    H233264   4.799   6.561   6.045 -1.3987 -0.0688  2.0073
 3925TIP3   OH233265   6.166   3.777   6.833 -0.0187  0.9154  0.4673
 3925TIP3    H133266   6.100   3.799   6.767 -3.4316 -0.6841  3.1494
 3925TIP3    H233267   6.181   3.859   6.879 -1.7779  0.8884  1.1565
 3926TIP3   OH233268   1.421   6.021   6.032 -0.4994  0.0416 -0.6091
 3926TIP3    H133269   1.504   5.999   6.075 -0.4696 -0.6452 -1.0005
 3926TIP3    H233270   1.354   6.001   6.097 -0.5328 -2.1523 -1.2759
 3927TIP3   OH233271   5.629   2.162  13.871 -0.4523  0.2175  0.1127
 3927TIP3    H133272   5.557   2.165  13.809  0.0233 -0.9591 -0.5127
 3927TIP3    H233273   5.707   2.183  13.819 -0.2446  0.6818  0.6084
 3928TIP3   OH233274   6.619   2.292  13.070 -0.3703  0.2473  0.2335
 3928TIP3    H133275   6.583   2.260  13.153 -0.1032  2.0000  1.0409
 3928TIP3    H233276   6.673   2.221  13.038  0.2855 -0.0850  2.0437
 3929TIP3   OH233277   1.197   5.203  12.016 -0.4539  0.0271  0.1174
 3929TIP3    H133278   1.124   5.141  12.017  1.6247 -2.5491 -1.7749
 3929TIP3    H233279   1.223   5.212  12.108 -0.2297 -2.6015  0.3279
 3930TIP3   OH233280   2.476   2.654   1.465  0.4414  0.0845  0.0912
 3930TIP3    H133281   2.450   2.742   1.435  1.2278  0.9819  1.9626
 3930TIP3    H233282   2.569   2.649   1.443 -0.4165 -1.8284 -3.5420
 3931TIP3   OH233283   5.387   1.214   4.003  0.3648  0.2394  0.1492
 3931TIP3    H133284   5.450   1.175   4.064 -0.6108  0.2986  1.2377
 3931TIP3    H233285   5.386   1.307   4.026 -1.8250 -0.1206  1.8023
 3932TIP3   OH233286   6.794   5.886   0.779  0.4872  0.1266 -0.4546
 3932TIP3    H133287   6.797   5.868   0.873 -0.1056  0.5624 -0.3500
 3932TIP3    H233288   6.883   5.911   0.756  0.7851 -0.6500 -0.1431
 3933TIP3   OH233289   0.620   6.118  12.647  0.6182  0.0991 -0.4220
 3933TIP3    H133290   0.663   6.195  12.610 -1.3956  1.4037 -0.0850
 3933TIP3    H233291   0.609   6.059  12.573  5.2795 -1.3917 -0.0761
 3934TIP3   OH233292   5.214   1.814  14.249 -0.2459 -0.5221  0.4485
 3934TIP3    H133293   5.137   1.852  14.206 -0.8617 -2.6868 -0.4138
 3934TIP3    H233294   5.285   1.876  14.230 -1.5189  0.9227  0.2884
 3935TIP3   OH233295   1.090   0.140   2.960  0.4920  0.4893  0.0599
 3935TIP3    H133296   1.120   0.196   2.889 -0.2708  0.5885 -0.1923
 3935TIP3    H233297   0.996   0.159   2.967 -0.0235 -1.6675 -0.8586
 3936TIP3   OH233298   6.080   6.251   4.846  0.3781 -0.2104  0.5088
 3936TIP3    H133299   6.002   6.284   4.801  1.5653  2.3372  0.2071
 3936TIP3    H233300   6.053   6.168   4.884 -2.3338  0.3979 -0.0133
 3937TIP3   OH233301   5.759   5.935   3.398 -0.4927 -0.0359 -0.1723
 3937TIP3    H133302   5.819   5.927   3.324 -0.9330 -1.5022 -0.3882
 3937TIP3    H233303   5.684   5.880   3.374  0.4610 -2.6168  2.4625
 3938TIP3   OH233304   1.745   0.882  13.622 -0.2371  0.0407 -0.7340
 3938TIP3    H133305   1.824   0.897  13.673 -0.2088 -0.1000 -0.7390
 3938TIP3    H233306   1.711   0.970  13.606 -1.3609  0.0117  1.2689
 3939TIP3   OH233307   0.629   4.742   6.717 -0.1238 -0.1154 -0.0051
 3939TIP3    H133308   0.660   4.822   6.760  0.6510 -0.0315 -0.7098
 3939TIP3    H233309   0.708   4.700   6.683 -0.8228  0.6573 -2.7467
 3940TIP3   OH233310   3.433   0.871   4.958 -0.8073  0.1036 -0.0415
 3940TIP3    H133311   3.375   0.851   5.031 -1.4772 -0.8807 -0.8454
 3940TIP3    H233312   3.389   0.837   4.881  0.9205 -0.8374 -0.6408
 3941TIP3   OH233313   4.549   4.710  14.176 -0.5671  0.2835  0.2153
 3941TIP3    H133314   4.491   4.719  14.252 -1.3243 -1.1760 -0.1643
 3941TIP3    H233315   4.585   4.621  14.184 -1.7585 -0.4225 -1.8744
 3942TIP3   OH233316   2.920   6.808  12.978  0.4653 -0.0639  0.0639
 3942TIP3    H133317   3.003   6.844  12.946  0.8427 -0.5226  0.4976
 3942TIP3    H233318   2.934   6.799  13.073 -1.2780  3.0385  0.6938
 3943TIP3   OH233319   0.526   0.574   1.373 -0.2521 -0.0941 -0.4166
 3943TIP3    H133320   0.569   0.529   1.447  0.0532  0.3422 -0.3252
 3943TIP3    H233321   0.434   0.547   1.379 -0.3816  0.5218  0.5712
 3944TIP3   OH233322   0.308   3.567  13.768  0.1229  0.3704 -0.2736
 3944TIP3    H133323   0.381   3.542  13.712 -0.6853 -2.0013 -0.3102
 3944TIP3    H233324   0.241   3.500  13.753 -0.6825  0.4942  2.4293
 3945TIP3   OH233325   2.297   2.303   0.224  0.3433  0.0040 -0.4600
 3945TIP3    H133326   2.303   2.317   0.319  0.4717  0.9976 -0.6058
 3945TIP3    H233327   2.206   2.323   0.203 -0.0257 -1.5224 -0.3487
 3946TIP3   OH233328   5.676   5.773   2.259 -0.0048  0.3826 -0.1571
 3946TIP3    H133329   5.762   5.809   2.281 -0.9605  1.7219  1.5038
 3946TIP3    H233330   5.659   5.804   2.169  0.9029  0.7720 -0.1962
 3947TIP3   OH233331   6.320   2.453   6.523  0.2208 -0.0465  0.2327
 3947TIP3    H133332   6.271   2.488   6.598  0.8080  2.0704 -0.3504
 3947TIP3    H233333   6.401   2.503   6.523 -0.6882  1.5538 -3.1283
 3948TIP3   OH233334   6.604   3.396  12.085 -0.3729 -0.1543  0.1693
 3948TIP3    H133335   6.608   3.476  12.032 -2.1108  0.5722  1.0831
 3948TIP3    H233336   6.558   3.333  12.029 -0.8865  0.1449  0.2550
 3949TIP3   OH233337   1.546   0.302   2.596  0.2050  0.1736 -0.3082
 3949TIP3    H133338   1.514   0.219   2.629 -0.8210 -0.2058 -2.1515
 3949TIP3    H233339   1.473   0.363   2.608 -0.0103  0.1454 -1.3599
 3950TIP3   OH233340   4.048   5.398   5.315 -0.1881 -0.3468  0.4947
 3950TIP3    H133341   3.959   5.394   5.278 -0.0066 -1.0467  0.1207
 3950TIP3    H233342   4.036   5.439   5.401 -0.3539  3.1971 -1.1202
 3951TIP3   OH233343   6.227   2.419  12.503  0.4605 -0.1515  0.4133
 3951TIP3    H133344   6.280   2.372  12.438 -0.4708 -0.2281 -0.3052
 3951TIP3    H233345   6.284   2.489  12.535  0.4616  0.7553 -1.5182
 3952TIP3   OH233346   4.610   3.492   1.468 -0.0110 -0.4209 -0.5324
 3952TIP3    H133347   4.647   3.413   1.428  0.1520 -0.4920 -0.2425
 3952TIP3    H233348   4.515   3.478   1.465 -0.0361 -0.1127 -1.5376
 3953TIP3   OH233349   0.436   3.732  12.252  0.9200 -0.5744  0.5199
 3953TIP3    H133350   0.364   3.670  12.239  0.4938  0.4824 -2.5223
 3953TIP3    H233351   0.447   3.736  12.347 -2.0476 -1.8899  0.9788
 3954TIP3   OH233352   2.295   2.257  16.113  0.3401 -0.1057 -0.5462
 3954TIP3    H133353   2.312   2.182  16.056  1.9544  0.2205 -0.5137
 3954TIP3    H233354   2.246   2.219  16.187  2.3356 -1.4164  0.1520
 3955TIP3   OH233355   5.828   3.038  12.526 -0.5297  0.1850  0.5132
 3955TIP3    H133356   5.765   2.973  12.495 -0.9299  1.6492 -1.8469
 3955TIP3    H233357   5.776   3.098  12.581 -1.2426  1.4169 -1.4659
 3956TIP3   OH233358   2.842   4.594   3.960 -0.3139 -0.2579 -0.3186
 3956TIP3    H133359   2.777   4.618   3.894  0.2473 -0.8420 -1.1032
 3956TIP3    H233360   2.799   4.609   4.044 -1.9202 -1.8248 -0.8264
 3957TIP3   OH233361   2.039   2.161  15.392  0.3956  0.4321 -0.1510
 3957TIP3    H133362   2.047   2.174  15.298 -0.3758  1.5717 -0.0744
 3957TIP3    H233363   1.945   2.153  15.407  0.5438 -0.1660  0.4652
 3958TIP3   OH233364   1.359   1.545   5.978 -0.0348 -0.3230  0.5159
 3958TIP3    H133365   1.448   1.578   5.989  0.2336 -1.2263  1.1074
 3958TIP3    H233366   1.353   1.471   6.038 -0.9352 -0.7659 -0.1029
 3959TIP3   OH233367   6.368   5.694  14.094 -0.0635  0.6427  0.5986
 3959TIP3    H133368   6.444   5.699  14.035 -0.7739 -0.3137 -0.4254
 3959TIP3    H233369   6.400   5.646  14.170  0.4205  0.4151  0.2566
 3960TIP3   OH233370   6.269   2.982  16.228  0.7322  0.2761  0.0478
 3960TIP3    H133371   6.344   2.955  16.281  0.8156 -3.2199 -1.6896
 3960TIP3    H233372   6.194   2.974  16.287  1.0920 -1.4478  0.3020
 3961TIP3   OH233373   4.942   6.016  16.203 -0.1889  0.3186  0.7966
 3961TIP3    H133374   4.988   5.954  16.147 -0.1637  0.3100  0.8263
 3961TIP3    H233375   4.880   6.061  16.145 -1.0521 -0.5764  1.0080
 3962TIP3   OH233376   0.853   0.702   6.317  0.6481  0.2493  0.6027
 3962TIP3    H133377   0.774   0.726   6.268 -0.2577 -0.5190  1.6479
 3962TIP3    H233378   0.921   0.693   6.250 -0.2519  0.5205 -0.3632
 3963TIP3   OH233379   2.549   2.571   2.516 -0.1774 -0.6114  0.2031
 3963TIP3    H133380   2.564   2.622   2.595 -0.0801 -3.0803  1.8375
 3963TIP3    H233381   2.572   2.630   2.444 -0.4704  1.7355  1.9930
 3964TIP3   OH233382   5.686   6.551  12.656  0.3015  0.5986  0.1154
 3964TIP3    H133383   5.623   6.587  12.718 -0.0011 -0.9580  0.7452
 3964TIP3    H233384   5.667   6.457  12.655  1.0448  0.4507 -1.4875
 3965TIP3   OH233385   1.498   2.153   1.093 -0.0583  0.5990 -0.0413
 3965TIP3    H133386   1.550   2.149   1.173  0.2330  1.1355 -0.1972
 3965TIP3    H233387   1.561   2.146   1.022 -0.3639 -0.3077 -0.2213
 3966TIP3   OH233388   1.040   2.375  13.234 -0.0650  0.8065 -0.7359
 3966TIP3    H133389   1.020   2.455  13.185 -0.2575  0.9026 -0.4972
 3966TIP3    H233390   0.991   2.383  13.315  0.4857  0.7783 -0.3964
 3967TIP3   OH233391   2.724   5.215  15.350  0.3944  0.0228  0.3681
 3967TIP3    H133392   2.664   5.226  15.276  1.0376  3.4722  0.2816
 3967TIP3    H233393   2.677   5.158  15.411 -2.3523  1.4229 -0.3788
 3968TIP3   OH233394   0.850   2.047  14.397  0.2473  0.3813 -0.0699
 3968TIP3    H133395   0.903   2.126  14.393  1.4818 -0.3122  1.6582
 3968TIP3    H233396   0.899   1.982  14.346 -0.0054  0.3216 -0.2375
 3969TIP3   OH233397   5.695   0.128   2.568  0.4727 -0.1528  0.5191
 3969TIP3    H133398   5.648   0.052   2.602 -0.0820 -0.0455  0.0034
 3969TIP3    H233399   5.747   0.094   2.495  1.4654 -0.3352  1.2998
 3970TIP3   OH233400   1.007   3.491   0.116  0.3306  0.3777  0.0109
 3970TIP3    H133401   0.983   3.459   0.029 -0.6216  1.5466 -0.1801
 3970TIP3    H233402   1.070   3.428   0.149 -0.7549 -1.1395 -0.7499
 3971TIP3   OH233403   4.419   0.478  14.599  0.4236  0.0939  0.2593
 3971TIP3    H133404   4.328   0.455  14.618 -0.4274  1.4396 -1.9916
 3971TIP3    H233405   4.470   0.413  14.647 -1.7798 -3.0801 -1.4872
 3972TIP3   OH233406   0.765   6.605   6.616  0.1298 -0.5139  0.1442
 3972TIP3    H133407   0.768   6.688   6.663  1.6054 -1.1783  1.2325
 3972TIP3    H233408   0.676   6.601   6.581 -0.2208  1.1147  0.8175
 3973TIP3   OH233409   0.437   4.695  13.712  0.0169 -0.1092 -0.0042
 3973TIP3    H133410   0.398   4.624  13.660 -0.1321 -0.6040  0.7820
 3973TIP3    H233411   0.495   4.651  13.774  0.5272  0.5155 -0.0295
 3974TIP3   OH233412   4.282   0.735  13.740 -0.6750 -0.3042  0.0688
 3974TIP3    H133413   4.202   0.735  13.792 -0.7856  0.3362 -0.1038
 3974TIP3    H233414   4.341   0.675  13.787 -1.5221 -1.3895 -0.2259
 3975TIP3   OH233415   4.002   5.488   0.113 -0.4383 -0.1468 -0.2755
 3975TIP3    H133416   3.924   5.483   0.168 -0.0205 -0.0466  0.3291
 3975TIP3    H233417   4.038   5.399   0.114  2.4340  0.9274  3.8307
 3976TIP3   OH233418   2.220   1.090  13.947 -0.1419  0.1007  0.1966
 3976TIP3    H133419   2.190   1.106  13.858 -2.3868  0.7663  1.0341
 3976TIP3    H233420   2.206   1.174  13.992  0.4653 -0.3857  1.3040
 3977TIP3   OH233421   0.262   5.126   6.205  0.1329  0.2820 -0.3809
 3977TIP3    H133422   0.284   5.034   6.189 -0.8381  0.3128 -1.9348
 3977TIP3    H233423   0.169   5.125   6.226  0.3241  0.8199  0.5449
 3978TIP3   OH233424   6.269   5.675   5.927  0.0247  0.7595 -0.4964
 3978TIP3    H133425   6.258   5.718   5.842  0.9017  1.3478 -0.3204
 3978TIP3    H233426   6.257   5.582   5.908 -4.2294  1.2131 -0.4580
 3979TIP3   OH233427   4.657   6.686  12.142 -0.2433 -0.7074 -0.5701
 3979TIP3    H133428   4.586   6.688  12.078 -1.1077 -1.9129  0.3226
 3979TIP3    H233429   4.629   6.621  12.206  0.2782  1.0050  1.4411
 3980TIP3   OH233430   0.944   1.791   2.506  0.0089 -0.7699  0.0874
 3980TIP3    H133431   0.898   1.844   2.571  0.3305 -0.8472  0.3788
 3980TIP3    H233432   0.915   1.826   2.422 -1.2762 -1.3964  0.2500
 3981TIP3   OH233433   5.381   1.662   4.081  0.2025 -0.1927  0.5197
 3981TIP3    H133434   5.440   1.663   4.006 -0.5981 -1.2916 -0.1419
 3981TIP3    H233435   5.438   1.670   4.157  1.2035 -1.1314 -0.1226
 3982TIP3   OH233436   3.077   3.300  14.758  0.3993  0.3190  0.2771
 3982TIP3    H133437   3.038   3.351  14.829  1.2827 -0.1551  1.1131
 3982TIP3    H233438   3.004   3.282  14.699 -0.5550 -0.1435  1.5800
 3983TIP3   OH233439   2.116   5.622  13.262  0.9516 -0.0501 -0.9174
 3983TIP3    H133440   2.052   5.690  13.240  2.5699  1.7772 -0.0815
 3983TIP3    H233441   2.149   5.646  13.348  2.8957 -0.8759 -1.3990
 3984TIP3   OH233442   5.175   0.081   3.831 -0.2082 -0.4968  0.1740
 3984TIP3    H133443   5.093   0.086   3.881  0.3095 -0.6777  1.0408
 3984TIP3    H233444   5.148   0.101   3.741 -0.9359  1.2205  0.7328
 3985TIP3   OH233445   2.096   3.028  14.616  0.3195 -0.3395  0.1131
 3985TIP3    H133446   2.006   2.997  14.610  0.0844 -0.3506  3.0283
 3985TIP3    H233447   2.146   2.971  14.558 -1.3950 -0.8990 -0.8379
 3986TIP3   OH233448   4.188   4.273  16.120  0.1810  0.1800  0.2758
 3986TIP3    H133449   4.262   4.212  16.123 -0.3341 -0.4794 -0.0386
 3986TIP3    H233450   4.226   4.357  16.094  0.5988 -0.5263 -1.4431
 3987TIP3   OH233451   2.024   4.759   1.997  0.1098 -0.4028  0.1431
 3987TIP3    H133452   2.054   4.736   2.086  2.0794 -3.5483 -1.2197
 3987TIP3    H233453   2.050   4.850   1.986  2.1528 -0.7193  1.9060
 3988TIP3   OH233454   5.665   1.281   5.764 -0.5816  0.5800 -0.0465
 3988TIP3    H133455   5.612   1.360   5.769  0.7900  1.5564 -0.5827
 3988TIP3    H233456   5.752   1.312   5.738  0.1552 -1.0232  0.4278
 3989TIP3   OH233457   6.040   5.513   4.598  0.2824  0.0101 -0.1709
 3989TIP3    H133458   5.960   5.484   4.554  1.4046 -0.6526 -1.8320
 3989TIP3    H233459   6.010   5.561   4.675 -1.6894 -0.9466 -0.3323
 3990TIP3   OH233460   6.505   1.777  12.298  0.8095 -0.0971 -0.3549
 3990TIP3    H133461   6.545   1.818  12.374  0.1551  0.9298 -0.5395
 3990TIP3    H233462   6.412   1.800  12.305  0.9141  0.9378 -2.0206
 3991TIP3   OH233463   2.277   5.960  15.481 -0.2130 -0.3391  0.0934
 3991TIP3    H133464   2.330   5.977  15.403 -0.6652 -3.1442 -0.8866
 3991TIP3    H233465   2.192   5.999  15.461  0.0963  0.1705 -0.2443
 3992TIP3   OH233466   6.622   0.929   3.530 -0.3392  0.1070  0.4419
 3992TIP3    H133467   6.565   0.877   3.473 -1.7875  0.3601  1.6357
 3992TIP3    H233468   6.610   1.019   3.500  2.6338 -0.2468 -2.0275
 3993TIP3   OH233469   5.670   5.203   4.263 -0.0204  0.4731 -0.9156
 3993TIP3    H133470   5.746   5.161   4.223  0.0780  1.8228 -2.1739
 3993TIP3    H233471   5.702   5.286   4.298 -0.2427 -0.3834  1.4713
 3994TIP3   OH233472   4.050   0.099  13.283  0.0606  0.1383 -0.0457
 3994TIP3    H133473   4.005   0.178  13.313  0.4272  0.2854  0.1209
 3994TIP3    H233474   4.130   0.095  13.336  0.5150  0.1791 -0.7304
 3995TIP3   OH233475   2.851   5.261  15.601  0.4446  0.3646 -0.6844
 3995TIP3    H133476   2.911   5.189  15.619  2.2263  2.3295  1.5902
 3995TIP3    H233477   2.812   5.239  15.516  2.3117 -2.3331 -0.9035
 3996TIP3   OH233478   0.979   4.461   4.556  0.7582  0.4472  0.3331
 3996TIP3    H133479   0.888   4.488   4.544  0.6733  0.0805  0.1426
 3996TIP3    H233480   1.010   4.443   4.467  0.0523 -2.5217  0.6514
 3997TIP3   OH233481   4.922   1.040   1.166 -0.3371  0.2233 -0.0598
 3997TIP3    H133482   4.983   1.031   1.093  2.2216  3.7922  1.4567
 3997TIP3    H233483   4.975   1.022   1.244 -1.5775  1.7968  1.2014
 3998TIP3   OH233484   6.703   1.259  12.295  0.0440 -0.2355 -0.2014
 3998TIP3    H133485   6.751   1.341  12.285 -0.5820  0.2335  0.6137
 3998TIP3    H233486   6.671   1.238  12.207  1.4539 -0.3763 -0.6932
 3999TIP3   OH233487   0.166   1.145   0.747 -0.0407  0.3163  0.1508
 3999TIP3    H133488   0.228   1.074   0.764 -0.0470 -0.2114 -1.8610
 3999TIP3    H233489   0.081   1.108   0.770  0.1230  0.1729  0.5269
 4000TIP3   OH233490   6.558   0.502  16.048 -0.1668 -0.2325  0.4379
 4000TIP3    H133491   6.481   0.555  16.068 -0.4557 -0.1941 -0.7676
 4000TIP3    H233492   6.628   0.540  16.101 -0.5335  0.9243  0.0869
 4001TIP3   OH233493   1.562   1.776   4.932 -0.1502 -0.2449  0.2294
 4001TIP3    H133494   1.494   1.796   4.867 -1.7478  0.9578  2.2279
 4001TIP3    H233495   1.515   1.773   5.016  2.2641  0.4823  1.6419
 4002TIP3   OH233496   3.188   5.518   1.718  0.3342  0.4533  0.3261
 4002TIP3    H133497   3.265   5.550   1.766  1.3148 -0.3346 -0.6917
 4002TIP3    H233498   3.186   5.572   1.639  0.3200 -0.0794 -0.0348
 4003TIP3   OH233499   5.729   6.610   2.030  0.1939 -0.0027 -0.4871
 4003TIP3    H133500   5.643   6.576   2.006 -1.3360  3.3161  0.0393
 4003TIP3    H233501   5.784   6.594   1.953 -1.5704  0.1347 -1.7835
 4004TIP3   OH233502   5.375   4.731  13.600  0.3650 -0.5372 -0.0059
 4004TIP3    H133503   5.335   4.721  13.514 -2.0499 -3.4041  1.3374
 4004TIP3    H233504   5.301   4.746  13.659  1.5725 -2.4821  2.0860
 4005TIP3   OH233505   1.312   4.889   6.067  0.2347 -0.7436  0.2645
 4005TIP3    H133506   1.257   4.940   6.126  1.5368 -0.1136  0.9705
 4005TIP3    H233507   1.379   4.850   6.125  1.6841  0.0862 -0.8221
 4006TIP3   OH233508   6.236   3.567  17.127  0.0273  0.2246 -0.0773
 4006TIP3    H133509   6.325   3.572  17.162  0.6289 -0.7645 -1.3899
 4006TIP3    H233510   6.213   3.474  17.134 -1.1460  0.5667  0.8058
 4007TIP3   OH233511   0.718   3.959   4.125  0.5581 -0.0347 -0.0366
 4007TIP3    H133512   0.628   3.948   4.157 -0.1616  2.0332 -1.2118
 4007TIP3    H233513   0.754   4.029   4.180  1.0753 -0.0632 -0.3374
 4008TIP3   OH233514   3.273   1.671  15.788 -0.0444 -0.1903  0.4518
 4008TIP3    H133515   3.361   1.653  15.821 -0.2653 -0.0386  1.1182
 4008TIP3    H233516   3.241   1.742  15.842  0.3445  1.4155 -1.3779
 4009TIP3   OH233517   5.173   1.370  15.079  0.5522  0.1990  0.0924
 4009TIP3    H133518   5.265   1.389  15.097  1.0079 -0.4569 -1.4622
 4009TIP3    H233519   5.140   1.449  15.037  0.6405  0.1080 -0.1481
 4010TIP3   OH233520   5.536   4.098  15.584 -0.2982 -0.7205  0.1422
 4010TIP3    H133521   5.461   4.088  15.525 -1.2602 -0.2922  1.2747
 4010TIP3    H233522   5.514   4.174  15.637  1.8598  0.6575 -0.8601
 4011TIP3   OH233523   1.957   5.649   0.047 -0.0522 -0.3495  0.5008
 4011TIP3    H133524   1.863   5.639   0.030 -0.0354  0.0868  0.1363
 4011TIP3    H233525   1.990   5.694  -0.031  0.1512  1.0422  1.3813
 4012TIP3   OH233526   5.633   0.363  15.450 -0.5507  0.6397 -0.1617
 4012TIP3    H133527   5.723   0.353  15.481 -0.9091 -0.7627  0.4540
 4012TIP3    H233528   5.602   0.444  15.492  0.0138  0.4703  0.5924
 4013TIP3   OH233529   5.076   2.029  13.681  0.0471 -0.3544  0.2682
 4013TIP3    H133530   5.094   2.003  13.591 -1.4589 -1.5649  0.3049
 4013TIP3    H233531   5.038   2.117  13.673  0.8482 -0.0383 -0.1875
 4014TIP3   OH233532   6.371   1.212  15.810  0.5706 -0.1549  0.1083
 4014TIP3    H133533   6.366   1.307  15.807  1.2029 -0.1614 -2.0107
 4014TIP3    H233534   6.281   1.183  15.821  0.3900  0.6884  0.8765
 4015TIP3   OH233535   5.629   6.184  13.360 -0.2940 -0.3711  0.2325
 4015TIP3    H133536   5.644   6.269  13.318 -2.0437  0.0597  0.4223
 4015TIP3    H233537   5.636   6.201  13.454  0.0296 -0.5879  0.2496
 4016TIP3   OH233538   2.347   1.779   0.965 -0.3378 -0.1535 -0.4029
 4016TIP3    H133539   2.417   1.754   1.026 -1.4502  0.4275  1.1391
 4016TIP3    H233540   2.393   1.802   0.884  1.0975 -1.7803 -0.0763
 4017TIP3   OH233541   1.911   6.103   3.837 -0.0818  0.0899 -0.2330
 4017TIP3    H133542   1.951   6.061   3.761 -0.5574  0.3363 -0.6169
 4017TIP3    H233543   1.894   6.032   3.898  1.4069  0.0336  0.1472
 4018TIP3   OH233544   2.613   5.045   0.757 -0.4135 -0.0660 -0.1361
 4018TIP3    H133545   2.652   5.115   0.809  1.2313  0.3947 -1.9543
 4018TIP3    H233546   2.582   5.088   0.677 -1.6225 -1.0071 -0.1942
 4019TIP3   OH233547   0.934   1.390  16.388  0.3952  0.4122 -0.8344
 4019TIP3    H133548   0.913   1.466  16.334  1.8085  0.6203 -1.1047
 4019TIP3    H233549   0.849   1.349  16.406 -0.1831  0.9293 -2.3459
 4020TIP3   OH233550   0.798   1.795  11.208  0.4264 -0.4457  0.2650
 4020TIP3    H133551   0.883   1.818  11.172  0.1952 -0.0183 -0.0068
 4020TIP3    H233552   0.782   1.861  11.276 -0.4864  0.5576 -0.8882
 4021TIP3   OH233553   4.172   6.531  13.541  0.1495  0.6613  0.0245
 4021TIP3    H133554   4.155   6.515  13.633 -1.6480  2.4842  0.0422
 4021TIP3    H233555   4.262   6.499  13.527 -0.1032 -1.0315  2.0101
 4022TIP3   OH233556   4.419   3.538  12.665 -0.6778 -0.6970 -0.2439
 4022TIP3    H133557   4.472   3.600  12.616 -0.9993 -0.9508 -0.9276
 4022TIP3    H233558   4.452   3.452  12.639 -0.5817 -0.8277  0.2940
 4023TIP3   OH233559   0.020   2.188   6.951 -0.4009  0.0706 -0.4432
 4023TIP3    H133560  -0.046   2.227   7.009 -0.0198 -1.7744  1.2942
 4023TIP3    H233561   0.077   2.261   6.927 -1.7368  1.2509 -0.1318
 4024TIP3   OH233562   6.220   5.074  15.941 -0.4367  0.4350  0.0404
 4024TIP3    H133563   6.129   5.073  15.913 -0.5479 -1.6179  0.3921
 4024TIP3    H233564   6.220   5.031  16.026  0.9388 -0.2478 -0.2760
 4025TIP3   OH233565   5.250   5.993   2.191  0.4219  0.3498  0.0041
 4025TIP3    H133566   5.238   5.911   2.144  1.3659 -0.5639  1.3522
 4025TIP3    H233567   5.339   6.022   2.168  1.2427 -0.5811  1.9444
 4026TIP3   OH233568   1.155   2.020   3.379  1.1210 -0.2355  0.4374
 4026TIP3    H133569   1.123   2.041   3.291  0.4083 -1.0838  0.4841
 4026TIP3    H233570   1.247   2.045   3.378  1.2276 -0.6567 -0.6963
 4027TIP3   OH233571   3.394   0.929  13.439 -0.0178 -0.2935  0.4081
 4027TIP3    H133572   3.310   0.897  13.472 -0.5184  0.7508  0.1572
 4027TIP3    H233573   3.430   0.982  13.511  0.2454 -0.4162  0.3669
 4028TIP3   OH233574   5.319   4.372   1.179 -0.4620  0.2667 -0.2616
 4028TIP3    H133575   5.276   4.456   1.169  1.2164  1.1051 -0.6854
 4028TIP3    H233576   5.346   4.369   1.271 -0.9489 -0.0292 -0.1256
 4029TIP3   OH233577   5.019   6.695  14.741  0.5597 -0.4026 -0.1299
 4029TIP3    H133578   5.027   6.687  14.836  0.3573 -1.0017 -0.1538
 4029TIP3    H233579   5.109   6.697  14.709  0.6443  1.6725  0.2050
 4030TIP3   OH233580   3.831   1.908  13.445 -0.5452 -0.2282 -0.0640
 4030TIP3    H133581   3.741   1.894  13.475 -1.2398 -2.8581 -3.1538
 4030TIP3    H233582   3.822   1.930  13.352  2.0263 -0.5882 -0.4293
 4031TIP3   OH233583   5.284   3.711  11.307 -0.0197  0.3430 -0.8558
 4031TIP3    H133584   5.263   3.776  11.375  0.0848  0.4514 -0.9270
 4031TIP3    H233585   5.257   3.753  11.225  0.8988  0.6588 -0.9943
 4032TIP3   OH233586   0.336   4.565  13.290  0.1941 -0.4287  0.1576
 4032TIP3    H133587   0.327   4.569  13.385 -0.3267 -0.4933  0.1149
 4032TIP3    H233588   0.264   4.509  13.261 -0.2430  0.3872 -0.3580
 4033TIP3   OH233589   4.077   6.574   5.703 -0.4264  0.1407 -0.1953
 4033TIP3    H133590   4.035   6.604   5.783  1.1658  2.2571 -0.1294
 4033TIP3    H233591   4.011   6.517   5.662 -0.8997 -1.7789  3.0625
 4034TIP3   OH233592   6.156   2.035   4.120  0.2259  0.3154 -0.0275
 4034TIP3    H133593   6.243   2.052   4.083 -0.9810 -0.7175 -3.6045
 4034TIP3    H233594   6.156   1.941   4.137  0.2850  0.5601  1.3802
 4035TIP3   OH233595   4.504   4.255   3.919 -0.1871  0.4426  0.3010
 4035TIP3    H133596   4.503   4.200   3.841 -2.2794 -0.0393  0.6329
 4035TIP3    H233597   4.502   4.345   3.886  0.0887  0.2606 -0.2059
 4036TIP3   OH233598   4.775   5.904   5.234 -0.4558  0.2976  0.6623
 4036TIP3    H133599   4.857   5.951   5.221 -0.6129  0.2573 -0.5715
 4036TIP3    H233600   4.801   5.818   5.269  0.1148 -0.1268 -0.7863
 4037TIP3   OH233601   5.483   0.595  16.388 -0.0963 -0.2240  0.6228
 4037TIP3    H133602   5.433   0.572  16.310 -2.0163  0.4790  1.6355
 4037TIP3    H233603   5.523   0.513  16.416 -0.8847 -0.8413 -0.0398
 4038TIP3   OH233604   4.373   4.708  14.771 -0.0370  0.4511  0.3160
 4038TIP3    H133605   4.371   4.762  14.850 -0.1496  2.2397 -0.8842
 4038TIP3    H233606   4.285   4.671  14.766 -0.6250  1.8577  0.0135
 4039TIP3   OH233607   4.947   2.715  14.641  0.2500 -0.1359 -0.1753
 4039TIP3    H133608   4.938   2.622  14.620  0.5756  0.0617 -1.2674
 4039TIP3    H233609   5.041   2.727  14.656  0.3146  0.1601 -0.7952
 4040TIP3   OH233610   6.088   2.448  16.458  0.2281 -0.6182  0.8681
 4040TIP3    H133611   6.050   2.473  16.374 -0.7171 -1.7598  0.9488
 4040TIP3    H233612   6.013   2.430  16.514  0.8647 -2.9948  0.9961
 4041TIP3   OH233613   3.130   6.582  12.194 -0.1956 -0.3886 -0.1968
 4041TIP3    H133614   3.055   6.642  12.195 -0.5922 -0.8607 -0.9481
 4041TIP3    H233615   3.202   6.634  12.229 -0.3271  0.8211 -1.6423
 4042TIP3   OH233616   3.505   3.042  12.634 -0.5147  0.4597 -0.0708
 4042TIP3    H133617   3.474   3.133  12.637 -1.4908  0.2614 -2.5549
 4042TIP3    H233618   3.504   3.020  12.541  2.8588 -1.0619  0.1939
 4043TIP3   OH233619   2.020   4.590   5.397 -0.0061 -0.1087  0.7923
 4043TIP3    H133620   1.992   4.547   5.478  0.1109 -0.5526  0.5956
 4043TIP3    H233621   1.941   4.631   5.363  0.1391  0.9406  1.6521
 4044TIP3   OH233622   3.301   5.040  16.921 -0.1589 -0.1656 -0.3504
 4044TIP3    H133623   3.289   5.134  16.933  0.8202 -0.5584  4.4012
 4044TIP3    H233624   3.380   5.032  16.868  1.2433  1.6689  1.4119
 4045TIP3   OH233625   3.727   3.655  14.995 -0.6295 -0.3813  0.6161
 4045TIP3    H133626   3.674   3.721  14.951 -0.5715  0.3647  1.6532
 4045TIP3    H233627   3.762   3.601  14.924 -1.4156  0.1438 -0.1756
 4046TIP3   OH233628   1.845   3.958  11.355 -0.2255 -0.8988  0.5750
 4046TIP3    H133629   1.888   4.026  11.408 -0.5338  1.2023 -1.7935
 4046TIP3    H233630   1.902   3.945  11.280 -2.6421  0.4860 -1.5925
 4047TIP3   OH233631   3.397   6.748  15.894 -1.0986 -0.4217 -0.1264
 4047TIP3    H133632   3.447   6.754  15.813 -1.0514 -1.6240 -0.1989
 4047TIP3    H233633   3.309   6.776  15.870 -1.6567 -2.8937 -1.1496
 4048TIP3   OH233634   2.764   6.406  16.241  0.0254 -0.1768 -0.2527
 4048TIP3    H133635   2.736   6.498  16.242  0.2582 -0.1056  1.4566
 4048TIP3    H233636   2.824   6.400  16.166  2.3780  1.8126  1.3911
 4049TIP3   OH233637   5.890   6.590   3.136 -0.1355  0.4014  0.5611
 4049TIP3    H133638   5.957   6.592   3.205 -0.7546  2.4251  1.1426
 4049TIP3    H233639   5.833   6.517   3.159  2.8687 -2.5348 -0.9307
 4050TIP3   OH233640   1.313   1.064   3.199 -0.3628  0.1376  0.1096
 4050TIP3    H133641   1.335   1.074   3.107  0.2042 -0.0298  0.2306
 4050TIP3    H233642   1.342   0.976   3.222 -3.0178 -0.8916 -0.2659
 4051TIP3   OH233643   1.107   1.040   4.173 -0.5055  0.3534 -0.2351
 4051TIP3    H133644   1.089   0.982   4.099 -2.4497 -0.7567  1.0314
 4051TIP3    H233645   1.100   0.983   4.250  1.0664  1.5649  0.8381
 4052TIP3   OH233646   6.681   3.376  11.244  0.2395  0.0358 -0.0221
 4052TIP3    H133647   6.636   3.389  11.160  0.2820 -0.3475 -0.1080
 4052TIP3    H233648   6.749   3.312  11.224  0.4311  0.1605  0.2428
 4053TIP3   OH233649   1.566   0.698  14.826  0.1510 -0.5218 -0.3948
 4053TIP3    H133650   1.475   0.701  14.853 -0.4792 -0.0462 -2.5028
 4053TIP3    H233651   1.587   0.787  14.797  1.7450 -0.2494  1.4961
 4054TIP3   OH233652   4.707   0.656  16.967  0.0022 -0.1154  0.5367
 4054TIP3    H133653   4.794   0.664  16.928  0.7844 -2.5980  1.6644
 4054TIP3    H233654   4.711   0.709  17.046  0.6290 -0.5617  0.8057
 4055TIP3   OH233655   2.219   2.598  15.241 -0.3551  0.2462 -0.0886
 4055TIP3    H133656   2.249   2.618  15.330  1.3564 -1.0070 -0.3525
 4055TIP3    H233657   2.298   2.598  15.189 -1.2974  0.4623 -1.5388
 4056TIP3   OH233658   3.539   5.990  14.363 -0.0530 -0.3594 -0.2476
 4056TIP3    H133659   3.474   5.986  14.433  0.5003 -0.3022  0.2779
 4056TIP3    H233660   3.529   6.077  14.326 -0.4249 -0.4302 -0.3166
 4057TIP3   OH233661   1.366   6.688   4.268  0.0522  0.2228 -0.2822
 4057TIP3    H133662   1.303   6.752   4.236  1.0022  2.0415  1.3637
 4057TIP3    H233663   1.361   6.616   4.206 -1.8819  1.3909 -1.5297
 4058TIP3   OH233664   0.295   3.669  15.181  0.1386  0.0197  0.4283
 4058TIP3    H133665   0.299   3.579  15.214 -0.4034 -0.0339  0.3388
 4058TIP3    H233666   0.324   3.722  15.255 -0.4230 -0.1569  0.7764
 4059TIP3   OH233667   4.575   2.471  14.269  0.1255  0.3692  0.4608
 4059TIP3    H133668   4.534   2.557  14.276  0.8806  0.7913 -0.1947
 4059TIP3    H233669   4.622   2.474  14.186  2.9559  0.5595  1.9942
 4060TIP3   OH233670   2.986   2.938  17.287  0.7355  0.1744 -0.1099
 4060TIP3    H133671   3.005   2.902  17.374  1.4519 -0.3783 -0.4925
 4060TIP3    H233672   3.031   2.880  17.226 -0.0195  0.3796 -0.8778
 4061TIP3   OH233673   6.135   5.112  10.410 -0.3466  0.0474  0.2047
 4061TIP3    H133674   6.094   5.114  10.324 -3.8647  0.4282  1.8032
 4061TIP3    H233675   6.164   5.202  10.426  0.6268 -0.0990 -0.6842
 4062TIP3   OH233676   3.061   0.404   2.771  0.4522 -0.5650  0.3453
 4062TIP3    H133677   3.053   0.450   2.854 -0.1533  1.1027 -0.5997
 4062TIP3    H233678   3.016   0.461   2.708  0.7750 -1.8619 -1.0921
 4063TIP3   OH233679   3.123   4.708   4.442  0.0108 -0.5956 -0.3163
 4063TIP3    H133680   3.207   4.754   4.445 -1.2087  1.7028 -0.3484
 4063TIP3    H233681   3.100   4.705   4.349  0.1388 -1.4308 -0.3296
 4064TIP3   OH233682   2.191   1.962  13.022 -0.8821  0.1836 -0.0128
 4064TIP3    H133683   2.223   1.959  13.112  0.0933  0.1284 -0.3603
 4064TIP3    H233684   2.096   1.970  13.031 -0.9927 -2.0547  1.0213
 4065TIP3   OH233685   2.231   4.011   4.888 -0.1994  0.1779  0.2500
 4065TIP3    H133686   2.147   4.053   4.867 -0.5698 -0.0625  1.2157
 4065TIP3    H233687   2.297   4.073   4.859 -0.6943 -0.2550 -1.8294
 4066TIP3   OH233688   4.638   0.808  13.510  0.0038  0.3696 -0.2999
 4066TIP3    H133689   4.544   0.790  13.513  0.2451 -1.3215 -1.8800
 4066TIP3    H233690   4.673   0.770  13.591 -0.4443 -0.5770 -0.5418
 4067TIP3   OH233691   0.390   4.439  15.029  0.4747  0.4043  0.0229
 4067TIP3    H133692   0.472   4.391  15.021  0.6002  0.1843  2.2584
 4067TIP3    H233693   0.416   4.530  15.043  0.3061  0.5775 -0.7790
 4068TIP3   OH233694   5.121   6.359   1.831  0.2877  0.2736  0.1209
 4068TIP3    H133695   5.115   6.333   1.739 -1.4487  0.2860  0.2322
 4068TIP3    H233696   5.190   6.426   1.831  0.2077  0.3802 -1.1966
 4069TIP3   OH233697   1.821   1.478   3.309  0.1668 -0.3830  0.5592
 4069TIP3    H133698   1.762   1.406   3.290  2.7140 -2.2720 -0.4993
 4069TIP3    H233699   1.815   1.535   3.232  2.2911 -2.4005 -1.1788
 4070TIP3   OH233700   1.989   2.584  13.417  0.4041  0.6051  0.1515
 4070TIP3    H133701   1.939   2.639  13.477  0.6250  1.9280 -0.8403
 4070TIP3    H233702   2.063   2.639  13.390  1.6210 -0.8226  0.5082
 4071TIP3   OH233703   0.088   4.157   0.446  0.7812  0.9487  0.1879
 4071TIP3    H133704   0.133   4.208   0.377 -0.7146  0.5364 -1.1208
 4071TIP3    H233705  -0.005   4.174   0.431  0.3913 -0.1094  1.3838
 4072TIP3   OH233706   0.025   0.728   4.337  0.0181  0.1185  0.2510
 4072TIP3    H133707   0.077   0.788   4.283  1.0755 -1.1121 -0.1178
 4072TIP3    H233708   0.056   0.743   4.426  0.0059  0.3997  0.2087
 4073TIP3   OH233709   4.976   0.856  14.493  0.2888  0.1970  0.4541
 4073TIP3    H133710   5.026   0.933  14.469 -1.2963  0.5921 -1.7210
 4073TIP3    H233711   5.036   0.782  14.480  1.4662  0.9450  1.5249
 4074TIP3   OH233712   6.309   0.170   5.452 -0.0510 -0.0206 -0.2502
 4074TIP3    H133713   6.227   0.128   5.425 -0.6888  1.1327 -0.1241
 4074TIP3    H233714   6.364   0.168   5.374 -1.1367  1.4604 -1.0780
 4075TIP3   OH233715   5.092   4.914   0.932  0.1026 -0.3002  0.0596
 4075TIP3    H133716   5.093   4.969   0.854 -0.8052 -0.2458  0.0821
 4075TIP3    H233717   5.052   4.832   0.903 -1.5359  0.2264  0.7946
 4076TIP3   OH233718   3.513   4.575  11.565 -0.4262  0.3600  0.6479
 4076TIP3    H133719   3.603   4.574  11.532 -0.5337  1.6858  0.2722
 4076TIP3    H233720   3.473   4.495  11.531  0.5086 -0.0543  0.5214
 4077TIP3   OH233721   4.113   3.776  11.600 -0.4019  0.6768  0.1062
 4077TIP3    H133722   4.052   3.730  11.542 -0.8209  0.0621  1.0226
 4077TIP3    H233723   4.200   3.756  11.565 -0.6071 -0.4228  0.2211
 4078TIP3   OH233724   5.613   3.701   1.192 -0.1094  0.1454  0.3885
 4078TIP3    H133725   5.641   3.617   1.155  0.9996 -0.5576  2.7175
 4078TIP3    H233726   5.532   3.681   1.239  0.5971  0.2032  1.6393
 4079TIP3   OH233727   1.311   6.293   2.045  0.5140 -0.1112 -0.1743
 4079TIP3    H133728   1.285   6.224   1.984 -0.6720  0.0840  0.0794
 4079TIP3    H233729   1.406   6.284   2.054  0.7359  0.0764 -2.2867
 4080TIP3   OH233730   2.237   5.422   3.321 -0.1225 -0.0069  0.4474
 4080TIP3    H133731   2.280   5.496   3.276 -0.5265 -0.4260 -0.6369
 4080TIP3    H233732   2.305   5.355   3.327 -0.6332 -0.7134 -1.3726
 4081TIP3   OH233733   6.177   4.965   0.441 -0.4081  0.5551 -0.1809
 4081TIP3    H133734   6.153   5.056   0.423  1.1118  1.0017 -0.0014
 4081TIP3    H233735   6.213   4.967   0.530  1.4690  0.1461 -0.9019
 4082TIP3   OH233736   5.019   5.077   0.682 -0.0174 -0.5748 -0.1100
 4082TIP3    H133737   4.996   5.001   0.627  1.0970 -0.6095 -0.5550
 4082TIP3    H233738   5.057   5.140   0.620 -1.5116  0.5976  0.1632
 4083TIP3   OH233739   6.763   6.803  12.483 -0.1399 -0.3143 -0.2881
 4083TIP3    H133740   6.696   6.776  12.420 -0.2883 -0.9188  0.1246
 4083TIP3    H233741   6.846   6.779  12.443 -0.0628  1.6582 -1.4149
 4084TIP3   OH233742   5.185   1.541  17.146  0.1261  0.0297 -0.0239
 4084TIP3    H133743   5.263   1.509  17.100 -0.4865 -2.1191  0.4168
 4084TIP3    H233744   5.219   1.606  17.207  1.5844 -0.9281  0.2097
 4085TIP3   OH233745   2.890   5.222  11.318  0.1010 -0.3700 -0.3550
 4085TIP3    H133746   2.831   5.279  11.367 -1.0829 -3.0914  1.5306
 4085TIP3    H233747   2.975   5.232  11.362  0.0309  0.3132 -0.3694
 4086TIP3   OH233748   2.962   4.040  16.620  0.0871  0.2363  0.3585
 4086TIP3    H133749   2.956   3.944  16.619 -0.6210  0.2736  0.9544
 4086TIP3    H233750   2.939   4.066  16.531  1.9370 -0.2370 -0.2974
 4087TIP3   OH233751   0.130   2.325  12.722 -0.5046 -0.0250  0.3817
 4087TIP3    H133752   0.177   2.280  12.651  0.6945  0.0857  1.1025
 4087TIP3    H233753   0.165   2.287  12.802  1.5476  3.1548  1.0526
 4088TIP3   OH233754   0.364   4.522   0.649  0.0955 -0.2045  0.3072
 4088TIP3    H133755   0.322   4.437   0.656 -0.5263 -0.0315 -1.0644
 4088TIP3    H233756   0.384   4.548   0.739 -1.8051 -0.7466  0.8999
 4089TIP3   OH233757   0.145   2.207   1.275  0.5802  0.6867  0.1692
 4089TIP3    H133758   0.057   2.169   1.268  0.8135 -0.0786  1.2606
 4089TIP3    H233759   0.132   2.286   1.328  0.7577 -0.1836  1.5365
 4090TIP3   OH233760   3.068   2.319  16.788  0.5508  0.3366  0.1028
 4090TIP3    H133761   2.984   2.312  16.833  0.6816 -1.2104  0.1582
 4090TIP3    H233762   3.121   2.376  16.843 -0.0190  0.2128  0.7822
 4091TIP3   OH233763   3.966   5.131  13.028 -0.3057  0.3958 -0.3790
 4091TIP3    H133764   4.017   5.191  13.083 -2.0851  0.5949  1.1299
 4091TIP3    H233765   3.945   5.057  13.086  1.5057 -1.5294 -2.0951
 4092TIP3   OH233766   2.748   0.840  12.421 -0.8480  0.4321  0.0956
 4092TIP3    H133767   2.760   0.746  12.409 -0.4184  0.6956 -1.6487
 4092TIP3    H233768   2.706   0.848  12.507 -2.6415 -1.4827 -0.5480
 4093TIP3   OH233769   3.669   5.717   2.761 -0.4933  0.0073  0.5149
 4093TIP3    H133770   3.594   5.666   2.792  0.2475 -0.5669  1.4031
 4093TIP3    H233771   3.637   5.807   2.759 -1.9344 -0.5307 -1.4823
 4094TIP3   OH233772   3.037   2.803   1.225 -0.2916  0.3420 -0.0332
 4094TIP3    H133773   2.956   2.842   1.192 -0.3528 -0.5086 -0.9282
 4094TIP3    H233774   3.047   2.838   1.313 -2.0352 -0.1197  0.3634
 4095TIP3   OH233775   1.185   0.153  10.994  0.5629  0.2221  0.9121
 4095TIP3    H133776   1.272   0.170  10.958 -0.4801  0.8860 -1.3863
 4095TIP3    H233777   1.145   0.091  10.933 -1.8555  2.6489 -0.0886
 4096TIP3   OH233778   3.879   0.471  10.862 -1.0435 -0.2771  0.0045
 4096TIP3    H133779   3.814   0.536  10.837 -0.7939 -0.7897 -2.0815
 4096TIP3    H233780   3.838   0.387  10.841  0.1515 -0.6133 -1.0298
 4097TIP3   OH233781   6.255   1.307   4.964  0.7428  0.0043  0.1575
 4097TIP3    H133782   6.205   1.228   4.943  0.4630 -0.0226  0.9192
 4097TIP3    H233783   6.342   1.274   4.986  0.2255 -0.2335  1.9146
 4098TIP3   OH233784   3.717   6.501  17.172  0.2129  0.4976  0.4747
 4098TIP3    H133785   3.755   6.490  17.259 -3.1825 -0.4080  1.9179
 4098TIP3    H233786   3.730   6.416  17.130 -2.1142 -0.5703  1.8027
 4099TIP3   OH233787   2.388   2.835   5.424 -0.5120 -0.0801 -0.1522
 4099TIP3    H133788   2.423   2.756   5.465 -0.6928 -1.1756 -2.0625
 4099TIP3    H233789   2.465   2.883   5.394 -0.4427  0.0650  0.2491
 4100TIP3   OH233790   5.972   6.251  16.022  0.0141  0.4210 -0.2425
 4100TIP3    H133791   6.060   6.229  15.993 -0.4216  0.2602 -1.5014
 4100TIP3    H233792   5.920   6.253  15.941 -1.3638 -0.6081  0.5798
 4101TIP3   OH233793   4.269   4.412  16.808 -0.2147 -0.0212 -0.1369
 4101TIP3    H133794   4.286   4.323  16.841 -1.1439 -0.2229 -0.1854
 4101TIP3    H233795   4.189   4.439  16.852 -0.4903  0.4061 -0.8913
 4102TIP3   OH233796   2.923   5.182  16.982 -0.8950  0.0120  0.1460
 4102TIP3    H133797   2.996   5.242  16.987  0.4949 -1.6654  0.5719
 4102TIP3    H233798   2.901   5.163  17.073 -1.6653  0.2676  0.0197
 4103TIP3   OH233799   0.663   4.270  12.151  0.3185 -0.3505  0.5111
 4103TIP3    H133800   0.697   4.317  12.075 -1.7357 -0.2523 -0.3583
 4103TIP3    H233801   0.668   4.333  12.223  1.7359 -0.2610  0.3509
 4104TIP3   OH233802   3.134   0.729  15.056  0.5578 -0.4330 -0.1870
 4104TIP3    H133803   3.147   0.824  15.057 -2.9488  0.1208 -0.5295
 4104TIP3    H233804   3.137   0.705  14.964 -1.4055 -0.1713 -0.3381
 4105TIP3   OH233805   4.180   6.274  16.212 -0.0616  0.5891 -0.4465
 4105TIP3    H133806   4.217   6.319  16.288  4.5780  0.3987 -2.4377
 4105TIP3    H233807   4.170   6.342  16.146 -1.6699  0.2753 -0.5527
 4106TIP3   OH233808   3.746   4.679   3.476  0.4395  0.1147  0.3142
 4106TIP3    H133809   3.727   4.731   3.398 -0.6731 -0.1626  0.3970
 4106TIP3    H233810   3.724   4.737   3.549  0.3399 -0.0476  0.4129
 4107TIP3   OH233811   5.246   3.184   2.712 -0.4652  0.2911  0.2875
 4107TIP3    H133812   5.198   3.124   2.770 -2.8432  1.0180 -0.8523
 4107TIP3    H233813   5.300   3.128   2.658 -1.3603 -0.7211  0.4203
 4108TIP3   OH233814   1.164   3.704  12.100  0.0462 -0.0430 -0.2075
 4108TIP3    H133815   1.156   3.617  12.139  0.5160 -0.5136 -1.1604
 4108TIP3    H233816   1.129   3.694  12.012  1.0045  0.4911 -0.6571
 4109TIP3   OH233817   3.958   2.641   5.133 -0.0106  0.1431 -0.5835
 4109TIP3    H133818   3.914   2.567   5.091 -0.2468 -1.1207  1.7573
 4109TIP3    H233819   3.984   2.607   5.219 -2.9262  3.6722  1.8953
 4110TIP3   OH233820   2.376   2.887   0.332  0.5444 -0.0710  0.1139
 4110TIP3    H133821   2.295   2.939   0.337 -0.0363 -0.7852 -1.4487
 4110TIP3    H233822   2.445   2.948   0.359 -0.5209  0.4959  1.6726
 4111TIP3   OH233823   1.091   3.220   4.028 -0.2849  0.0722  0.6918
 4111TIP3    H133824   0.997   3.228   4.044 -0.6618 -0.9955 -0.9065
 4111TIP3    H233825   1.116   3.304   3.991 -0.8165 -0.0078  0.1431
 4112TIP3   OH233826   2.768   4.480  12.429 -0.4362 -0.0527 -0.5954
 4112TIP3    H133827   2.843   4.529  12.461 -0.6950  0.4461 -0.7402
 4112TIP3    H233828   2.804   4.399  12.395 -0.2202 -0.8715  1.5358
 4113TIP3   OH233829   3.884   5.051   4.847 -0.2419  0.2029 -0.3240
 4113TIP3    H133830   3.825   5.061   4.773 -1.8837  1.4926  1.1230
 4113TIP3    H233831   3.893   5.140   4.883  2.3144 -0.0210 -0.2999
 4114TIP3   OH233832   2.173   0.070   4.959  0.4748  0.5116 -0.3855
 4114TIP3    H133833   2.173  -0.024   4.943 -2.7188  0.2486  0.9345
 4114TIP3    H233834   2.159   0.109   4.872  1.0019 -0.2283 -0.8100
 4115TIP3   OH233835   3.091   3.266  16.566 -0.3167  0.0131  0.3915
 4115TIP3    H133836   3.135   3.190  16.604 -1.0617 -0.5119  0.2142
 4115TIP3    H233837   3.005   3.267  16.607 -0.6422  0.2307 -0.2901
 4116TIP3   OH233838   1.310   4.371  17.261  0.3710  0.4598  0.2672
 4116TIP3    H133839   1.363   4.346  17.185  1.8981  1.4045  0.9886
 4116TIP3    H233840   1.285   4.289  17.302 -1.3839 -0.1260 -1.8320
 4117TIP3   OH233841   5.271   2.238  15.419  0.5609 -0.0073 -0.5419
 4117TIP3    H133842   5.287   2.180  15.345  0.2214  1.4689 -1.7894
 4117TIP3    H233843   5.356   2.248  15.461  1.0495  0.3492 -1.6194
 4118TIP3   OH233844   3.583   2.682   1.924  0.3080 -0.1502  0.6239
 4118TIP3    H133845   3.620   2.626   1.856 -0.6367 -0.1814  0.1343
 4118TIP3    H233846   3.629   2.766   1.913  1.7724 -0.8288  1.4073
 4119TIP3   OH233847   6.601   2.321   2.555 -0.1210  0.2328  0.1829
 4119TIP3    H133848   6.583   2.238   2.510  1.5192  0.2898 -0.6374
 4119TIP3    H233849   6.536   2.326   2.624 -2.2842 -0.2206 -1.7474
 4120TIP3   OH233850   6.521   6.784   4.929 -0.1823 -0.6072  0.1541
 4120TIP3    H133851   6.502   6.837   4.852 -0.2382 -1.1143 -0.1849
 4120TIP3    H233852   6.451   6.718   4.930 -0.4878 -0.2712  0.9394
 4121TIP3   OH233853   6.301   5.243   0.005 -0.0209 -0.1643  0.7358
 4121TIP3    H133854   6.212   5.214   0.025 -0.4210  1.0243  0.7069
 4121TIP3    H233855   6.315   5.219  -0.086 -0.5109  0.1525  0.5802
 4122TIP3   OH233856   6.195   1.284   1.937 -0.9445 -0.1073 -0.2368
 4122TIP3    H133857   6.243   1.277   1.854 -1.3602 -0.0027 -0.4880
 4122TIP3    H233858   6.126   1.348   1.919  0.4691  1.7946  0.8984
 4123TIP3   OH233859   4.374   5.983   2.844 -0.3589 -0.1847 -0.2859
 4123TIP3    H133860   4.280   5.999   2.845 -0.4659 -0.6429 -1.5193
 4123TIP3    H233861   4.413   6.070   2.841 -0.7376  0.0134  0.5020
 4124TIP3   OH233862   3.628   2.520  13.754 -0.0226 -0.0141 -0.0757
 4124TIP3    H133863   3.611   2.582  13.683 -0.0089 -0.6776 -0.6671
 4124TIP3    H233864   3.723   2.521  13.765  0.0759 -0.7047 -0.8028
 4125TIP3   OH233865   2.228   5.449  13.717  0.0925  0.4402  0.7342
 4125TIP3    H133866   2.146   5.401  13.728 -0.5959  1.6926  1.2339
 4125TIP3    H233867   2.271   5.442  13.802 -0.2492  1.1180  0.9706
 4126TIP3   OH233868   0.463   0.909  14.938  0.0594  0.0457  0.3356
 4126TIP3    H133869   0.423   0.866  14.863 -0.3543 -0.0536  0.6102
 4126TIP3    H233870   0.542   0.950  14.903  1.2063 -2.1179  0.3446
 4127TIP3   OH233871   1.973   5.684   5.555  0.1633 -0.0707  0.4869
 4127TIP3    H133872   1.881   5.692   5.580  0.0767  0.7557 -0.0579
 4127TIP3    H233873   1.977   5.720   5.466  0.5682 -2.4144 -0.4883
 4128TIP3   OH233874   6.501   6.357  11.460  0.1491 -0.0429 -0.0772
 4128TIP3    H133875   6.491   6.305  11.381 -0.3515 -0.4230  0.2320
 4128TIP3    H233876   6.593   6.349  11.483  0.0841 -0.7337 -0.0726
 4129TIP3   OH233877   0.142   4.078  14.827  0.5634 -0.2765  0.1657
 4129TIP3    H133878   0.124   4.158  14.877 -1.4071 -1.5167  1.5270
 4129TIP3    H233879   0.145   4.009  14.892  1.5445 -1.4228 -1.0742
 4130TIP3   OH233880   3.854   5.886  12.609  0.1178 -0.0320 -0.4536
 4130TIP3    H133881   3.786   5.827  12.640 -0.0129  0.7825  0.8845
 4130TIP3    H233882   3.854   5.877  12.514 -1.9296  0.0598 -0.4656
 4131TIP3   OH233883   6.399   5.605  14.873  0.9652  0.0170  0.3090
 4131TIP3    H133884   6.466   5.669  14.851 -1.1469  2.5265  0.8507
 4131TIP3    H233885   6.341   5.602  14.796  0.3618 -0.3113  0.7642
 4132TIP3   OH233886   4.663   1.967  16.193  0.1826  0.1385 -0.7943
 4132TIP3    H133887   4.677   1.876  16.169 -1.5312 -0.3627  0.0035
 4132TIP3    H233888   4.749   1.998  16.221  0.7309 -1.3039 -0.8431
 4133TIP3   OH233889   3.054   1.757  13.462  0.7614  0.2585  0.1867
 4133TIP3    H133890   2.984   1.692  13.454  0.6344  0.3659  0.4096
 4133TIP3    H233891   3.010   1.835  13.496  1.3456 -0.3090  2.3337
 4134TIP3   OH233892   0.723   6.652  16.079  0.4448  0.1297 -0.2477
 4134TIP3    H133893   0.722   6.557  16.063 -0.4893 -0.1708  1.4303
 4134TIP3    H233894   0.811   6.670  16.111  0.9005 -0.0069 -1.3877
 4135TIP3   OH233895   0.337   5.701   4.351  0.4337 -0.3932 -0.7150
 4135TIP3    H133896   0.376   5.771   4.300 -0.0527  0.4535  0.0648
 4135TIP3    H233897   0.246   5.727   4.364  0.6474 -0.4072  0.9019
 4136TIP3   OH233898   4.746   6.513  13.507 -0.0493  0.2105  0.0419
 4136TIP3    H133899   4.842   6.512  13.509  0.0219  0.2012 -1.8698
 4136TIP3    H233900   4.723   6.437  13.454 -1.0972  0.5471  0.0123
 4137TIP3   OH233901   0.332   5.478  12.570  0.1439  0.5537  0.0593
 4137TIP3    H133902   0.243   5.503  12.596  0.2843  2.1866 -0.9099
 4137TIP3    H233903   0.324   5.454  12.477  0.3439 -1.3385  0.5268
 4138TIP3   OH233904   4.006   5.538   4.552 -0.4084  0.0224 -0.3564
 4138TIP3    H133905   4.081   5.497   4.509  0.6385  0.9794  0.4990
 4138TIP3    H233906   4.003   5.627   4.515 -0.8105  0.1510 -0.0182
 4139TIP3   OH233907   4.898   6.696   2.161  0.8138 -0.5166  0.2410
 4139TIP3    H133908   4.825   6.711   2.221  2.0061 -3.4366  2.5634
 4139TIP3    H233909   4.871   6.620   2.109  1.1912 -0.1020 -0.5672
 4140TIP3   OH233910   5.701   2.951  14.306 -0.1864 -0.1725  0.7180
 4140TIP3    H133911   5.725   3.026  14.252 -0.0504  0.1985  1.2958
 4140TIP3    H233912   5.777   2.893  14.303  0.8575  1.0321  2.6082
 4141TIP3   OH233913   5.933   6.819  15.342 -0.2472  0.0239  0.2349
 4141TIP3    H133914   5.854   6.774  15.312 -0.0054 -0.4657  0.3342
 4141TIP3    H233915   5.989   6.749  15.376  0.0965  0.4073  0.4590
 4142TIP3   OH233916   2.938   4.468   5.343  0.1855 -0.2117  0.1338
 4142TIP3    H133917   2.963   4.381   5.314  2.4686 -0.6852  3.1490
 4142TIP3    H233918   3.015   4.523   5.324 -0.2234  0.5422  0.5974
 4143TIP3   OH233919   4.408   4.374   0.565  0.5475  0.0908 -0.6636
 4143TIP3    H133920   4.341   4.426   0.610  0.9488 -0.7178  0.9358
 4143TIP3    H233921   4.367   4.290   0.548  0.0508  0.7489 -2.8301
 4144TIP3   OH233922   6.348   0.918   0.413 -0.9548  0.4290  0.9932
 4144TIP3    H133923   6.390   0.833   0.417 -0.6146  0.5348 -0.1427
 4144TIP3    H233924   6.311   0.923   0.325 -0.0448  1.8802  0.6635
 4145TIP3   OH233925   2.703   2.729   1.335 -0.8568 -0.1562  0.1183
 4145TIP3    H133926   2.702   2.822   1.310 -1.3005  0.5318  2.5549
 4145TIP3    H233927   2.686   2.682   1.253 -2.0582  1.9527 -0.8859
 4146TIP3   OH233928   3.687   1.559  14.526 -0.3433 -0.4233  0.1076
 4146TIP3    H133929   3.751   1.488  14.539 -0.9571 -0.9764  0.1179
 4146TIP3    H233930   3.666   1.589  14.614  0.6636  0.4510  0.0667
 4147TIP3   OH233931   2.488   6.453  13.430 -0.6325  0.4834  0.3622
 4147TIP3    H133932   2.550   6.384  13.410 -0.0405  1.0287  0.3209
 4147TIP3    H233933   2.424   6.449  13.359  0.1139  0.8199 -0.3375
 4148TIP3   OH233934   0.962   3.002  12.269  0.0237 -0.2540  0.6625
 4148TIP3    H133935   0.973   2.938  12.199 -0.0837 -0.8540  1.1952
 4148TIP3    H233936   0.985   2.955  12.349 -1.4348 -0.0550  1.2187
 4149TIP3   OH233937   0.361   2.778   3.832  0.5095  0.1946  0.0997
 4149TIP3    H133938   0.359   2.821   3.746  0.3852 -3.2764 -1.7253
 4149TIP3    H233939   0.451   2.749   3.843 -0.0277 -1.6056 -0.0537
 4150TIP3   OH233940   5.098   4.846  11.970  0.2409 -0.3592 -0.1605
 4150TIP3    H133941   5.086   4.760  12.010  1.6894 -0.4784  0.0416
 4150TIP3    H233942   5.162   4.890  12.025 -0.8238  1.0394 -0.0026
 4151TIP3   OH233943   0.981   0.722  10.420  0.4295  0.0245  0.1114
 4151TIP3    H133944   0.929   0.777  10.478  0.2496 -1.7239  1.6632
 4151TIP3    H233945   0.934   0.639  10.418  1.5695 -0.6100 -0.8715
 4152TIP3   OH233946   3.440   4.706   0.836 -0.0222 -0.3211  1.1166
 4152TIP3    H133947   3.453   4.653   0.758  1.1057 -0.9861  1.7481
 4152TIP3    H233948   3.527   4.735   0.861 -0.6791  2.4104  0.4080
 4153TIP3   OH233949   5.788   4.249   2.798 -0.7072 -0.0477 -0.3467
 4153TIP3    H133950   5.864   4.281   2.747  0.2828 -0.5140  0.8192
 4153TIP3    H233951   5.714   4.257   2.737  0.4100 -0.3493 -1.7879
 4154TIP3   OH233952   5.254   1.214  14.449 -0.5304 -0.2375 -0.2879
 4154TIP3    H133953   5.328   1.275  14.452  0.2544 -1.0801 -1.8737
 4154TIP3    H233954   5.239   1.190  14.541  0.5699  0.6396  0.1329
 4155TIP3   OH233955   5.577   4.316  14.095  0.3003 -0.1628  0.0860
 4155TIP3    H133956   5.639   4.341  14.026 -0.2847  0.3625 -0.2530
 4155TIP3    H233957   5.500   4.371  14.079  1.3089  2.3003  3.0250
 4156TIP3   OH233958   4.134   4.797  14.864  0.2522 -0.1625 -0.3330
 4156TIP3    H133959   4.083   4.848  14.927  0.0950  0.3352 -0.8655
 4156TIP3    H233960   4.117   4.838  14.780  0.3957 -0.8852 -0.7197
 4157TIP3   OH233961   2.458   2.567   3.336 -0.1035 -0.4787 -0.1844
 4157TIP3    H133962   2.478   2.513   3.413 -1.0060  0.4794  0.7313
 4157TIP3    H233963   2.363   2.577   3.339  0.0141  0.7435 -0.6399
 4158TIP3   OH233964   5.547   1.264   6.225  0.1611 -0.5753  0.1055
 4158TIP3    H133965   5.542   1.359   6.215 -0.4257 -0.7187 -1.0623
 4158TIP3    H233966   5.456   1.235   6.216  0.2986 -1.2264  0.7420
 4159TIP3   OH233967   2.826   0.624   2.151 -0.1152  0.3930  0.1470
 4159TIP3    H133968   2.812   0.633   2.056 -1.0350  4.0199  0.5477
 4159TIP3    H233969   2.738   0.632   2.188  0.6245  2.8605  1.4903
 4160TIP3   OH233970   5.076   2.774   4.218 -0.2124 -0.3499 -0.7238
 4160TIP3    H133971   5.109   2.698   4.265 -1.3083  0.4099  1.3371
 4160TIP3    H233972   4.981   2.770   4.227 -0.3847  0.4117 -1.9539
 4161TIP3   OH233973   6.709   1.065   0.724 -0.7679 -0.3625 -0.0298
 4161TIP3    H133974   6.754   1.021   0.652 -0.7283  0.5298 -0.5567
 4161TIP3    H233975   6.622   1.084   0.690 -0.2833  1.3586 -0.3543
 4162TIP3   OH233976   0.645   1.059   4.059  0.2239 -0.6173 -0.5821
 4162TIP3    H133977   0.712   0.990   4.066 -0.1465 -1.1067 -1.8333
 4162TIP3    H233978   0.562   1.011   4.057 -0.0664 -0.0973 -0.8939
 4163TIP3   OH233979   0.749   4.009   3.595  0.1387 -0.1898  0.4568
 4163TIP3    H133980   0.705   3.953   3.658 -1.8505  2.8299  1.8631
 4163TIP3    H233981   0.688   4.014   3.521  1.1737 -1.3853 -0.5009
 4164TIP3   OH233982   1.020   5.740   1.116  0.2145  0.2188  0.5250
 4164TIP3    H133983   0.926   5.738   1.096  0.0079 -1.8044  1.5222
 4164TIP3    H233984   1.024   5.753   1.211  0.8800 -1.1598  0.7065
 4165TIP3   OH233985   1.699   5.856  12.980  0.4290  0.0172  0.0406
 4165TIP3    H133986   1.700   5.793  12.909  0.8183  0.7933 -0.6557
 4165TIP3    H233987   1.751   5.816  13.049  2.6200  0.5466 -1.2601
 4166TIP3   OH233988   4.874   4.968   4.374 -0.1462  0.1372 -0.1908
 4166TIP3    H133989   4.901   4.893   4.320  1.2264  1.1571 -0.9424
 4166TIP3    H233990   4.875   4.934   4.464  0.6715 -0.6883 -0.5019
 4167TIP3   OH233991   1.425   1.842  14.624 -1.0586  0.4416 -0.3316
 4167TIP3    H133992   1.422   1.778  14.696  2.0060 -0.9367 -1.3602
 4167TIP3    H233993   1.355   1.815  14.565 -1.6325 -0.2215  0.6356
 4168TIP3   OH233994   1.033   1.191  13.546  0.1308  0.5099  0.5489
 4168TIP3    H133995   0.991   1.199  13.632  0.5509 -0.1200  0.8211
 4168TIP3    H233996   0.974   1.235  13.486 -0.7756 -0.1027  0.9752
 4169TIP3   OH233997   4.333   6.676  14.306 -0.5318 -0.4216 -0.6811
 4169TIP3    H133998   4.353   6.734  14.379 -1.6348 -1.4195  0.4201
 4169TIP3    H233999   4.417   6.665  14.261 -0.2820  1.9087 -0.8351
 4170TIP3   OH234000   6.562   1.885  12.573 -0.2363  0.3624 -0.1469
 4170TIP3    H134001   6.491   1.866  12.635 -0.6433 -1.1396 -1.0531
 4170TIP3    H234002   6.619   1.945  12.621 -0.4410 -0.9202  1.7807
 4171TIP3   OH234003   2.820   3.329  15.871  0.2473 -0.4086  0.0998
 4171TIP3    H134004   2.834   3.413  15.828  3.4864 -1.2432 -0.6910
 4171TIP3    H234005   2.753   3.345  15.937 -2.6631  1.6275 -3.2356
 4172TIP3   OH234006   6.090   3.612   6.357 -0.2905 -0.1530  0.3628
 4172TIP3    H134007   6.073   3.564   6.438 -0.3378  0.3374  0.6447
 4172TIP3    H234008   6.125   3.696   6.386  0.5039 -0.3018 -0.1557
 4173TIP3   OH234009   3.812   0.075   1.289  0.4883 -0.2622 -0.0832
 4173TIP3    H134010   3.820   0.070   1.194  2.0132 -2.8839  0.1203
 4173TIP3    H234011   3.753   0.003   1.313 -0.4788  0.8406  0.8860
 4174TIP3   OH234012   6.344   6.131  11.845 -0.4185 -0.3469  0.1504
 4174TIP3    H134013   6.327   6.207  11.791 -0.8920 -1.7819 -1.7597
 4174TIP3    H234014   6.267   6.124  11.901 -0.0447  0.9761  0.8591
 4175TIP3   OH234015   4.357   1.814  14.555 -0.3430  0.0056  0.2806
 4175TIP3    H134016   4.445   1.779  14.539 -0.8538 -0.8429 -0.7321
 4175TIP3    H234017   4.323   1.761  14.627 -0.5474 -0.5874 -0.2514
 4176TIP3   OH234018   5.071   1.101   1.486  0.0724 -0.5244  0.1366
 4176TIP3    H134019   5.146   1.068   1.436 -0.4741  1.6492 -2.2100
 4176TIP3    H234020   5.018   1.023   1.504  1.6418 -1.7181 -0.3419
 4177TIP3   OH234021   5.455   6.592   3.657 -0.3692 -0.6689  0.1493
 4177TIP3    H134022   5.370   6.550   3.645 -0.9914 -0.3867  3.1308
 4177TIP3    H234023   5.487   6.559   3.741  1.5165  0.7859  0.0414
 4178TIP3   OH234024   0.008   6.809   3.976  0.1215  0.1930 -0.3827
 4178TIP3    H134025   0.040   6.781   4.062 -2.7203 -0.8023  0.3979
 4178TIP3    H234026   0.028   6.736   3.918 -2.1213 -1.1327  0.4498
 4179TIP3   OH234027   3.603   5.643   0.085 -0.1991 -0.4764 -0.8488
 4179TIP3    H134028   3.628   5.727   0.047 -1.3989  0.6412  0.7875
 4179TIP3    H234029   3.679   5.616   0.136 -0.7081  0.8343  0.6398
 4180TIP3   OH234030   2.691   3.767  13.710 -0.1678 -0.5407  0.1081
 4180TIP3    H134031   2.688   3.682  13.666  0.3990 -0.4829 -0.0339
 4180TIP3    H234032   2.699   3.746  13.803  2.8534 -0.6233 -0.1322
 4181TIP3   OH234033   4.427   1.173  12.633  0.1853 -0.0780  0.3401
 4181TIP3    H134034   4.509   1.204  12.672 -0.1705  1.2284  0.0577
 4181TIP3    H234035   4.360   1.198  12.696 -0.1461  0.0951 -0.0783
 4182TIP3   OH234036   5.859   6.708  16.325 -0.2730 -0.8322 -0.8350
 4182TIP3    H134037   5.884   6.675  16.239 -1.2284 -1.3254 -0.9248
 4182TIP3    H234038   5.868   6.633  16.384 -2.8607 -1.4133 -1.1123
 4183TIP3   OH234039   1.019   3.820  16.376 -0.2336 -0.1790 -0.3420
 4183TIP3    H134040   0.988   3.884  16.311 -1.3467 -0.4044 -0.0416
 4183TIP3    H234041   1.106   3.850  16.400 -0.8428  1.3549 -0.0366
 4184TIP3   OH234042   5.832   2.092   4.933  0.7532 -0.2003 -0.1922
 4184TIP3    H134043   5.835   2.179   4.974  2.4988  0.1129 -0.9639
 4184TIP3    H234044   5.879   2.035   4.994 -0.6128 -0.6794  0.4390
 4185TIP3   OH234045   0.505   2.560   4.143 -0.0937 -0.3458 -0.0669
 4185TIP3    H134046   0.509   2.575   4.238 -0.5277  1.8388 -0.3741
 4185TIP3    H234047   0.412   2.542   4.126  0.2457 -2.3941  0.1365
 4186TIP3   OH234048   4.548   0.376  13.812 -0.4609 -0.6930 -0.4183
 4186TIP3    H134049   4.593   0.411  13.735  0.7227 -0.0530  0.5511
 4186TIP3    H234050   4.512   0.452  13.856 -1.4491 -1.0937 -0.5283
 4187TIP3   OH234051   6.413   6.540  10.818  0.5926 -0.2203  0.3060
 4187TIP3    H134052   6.336   6.558  10.871  1.3567  1.9473  0.7539
 4187TIP3    H234053   6.407   6.601  10.744  0.6365 -1.7258 -0.9642
 4188TIP3   OH234054   2.194   2.708   3.719  0.0045 -0.3510  0.2237
 4188TIP3    H134055   2.193   2.750   3.805 -0.1134 -1.4516  0.7700
 4188TIP3    H234056   2.103   2.708   3.691 -0.1610 -1.3230  0.7600
 4189TIP3   OH234057   1.848   1.744   5.357 -0.3464 -0.5995 -0.2724
 4189TIP3    H134058   1.790   1.789   5.296 -1.4492 -1.7859 -0.1253
 4189TIP3    H234059   1.879   1.667   5.308 -0.9282 -1.3465  0.5244
 4190TIP3   OH234060   0.109   2.074   0.677 -0.2116 -0.7677  0.4486
 4190TIP3    H134061   0.065   2.146   0.722  0.2611 -0.6545  0.7396
 4190TIP3    H234062   0.040   2.009   0.661 -0.1771 -1.3320  2.3953
 4191TIP3   OH234063   0.444   2.464   1.703  1.2155  0.1550 -0.3167
 4191TIP3    H134064   0.446   2.424   1.617  1.4181  1.4452 -0.9284
 4191TIP3    H234065   0.466   2.556   1.687  0.7666  0.5122  1.0407
 4192TIP3   OH234066   1.319   5.006   0.624  0.0555  0.6210 -0.0838
 4192TIP3    H134067   1.330   5.084   0.677  1.5108  0.5064 -0.1990
 4192TIP3    H234068   1.273   4.944   0.681  0.3656  0.9855  0.5656
 4193TIP3   OH234069   1.828   4.294  14.425 -0.2716 -0.1791 -0.4054
 4193TIP3    H134070   1.767   4.354  14.381  0.1455  1.1658  0.8306
 4193TIP3    H234071   1.895   4.352  14.463 -0.1962 -1.3806  1.3177
 4194TIP3   OH234072   6.546   5.096  12.028  0.2730 -0.2104 -0.5707
 4194TIP3    H134073   6.531   5.002  12.029 -0.4788 -0.1064  1.0217
 4194TIP3    H234074   6.586   5.115  12.113 -0.4647  1.0262 -0.4767
 4195TIP3   OH234075   3.610   4.565  16.164 -0.0083  0.3349 -0.8616
 4195TIP3    H134076   3.560   4.488  16.193  1.0227  0.2084  0.6162
 4195TIP3    H234077   3.545   4.635  16.159 -0.2001  0.4183  2.0100
 4196TIP3   OH234078   5.163   2.527  16.589 -0.0205  0.1540  0.2335
 4196TIP3    H134079   5.154   2.618  16.564  2.3471  0.5121  0.5337
 4196TIP3    H234080   5.199   2.483  16.512 -1.2157 -0.5381  0.0667
 4197TIP3   OH234081   2.942   4.077   6.505  0.7675  0.0736 -0.5439
 4197TIP3    H134082   2.880   4.005   6.517  2.5705 -1.5670 -0.9557
 4197TIP3    H234083   2.994   4.051   6.429  1.7264  1.6194 -0.4267
 4198TIP3   OH234084   2.175   5.387   2.789  0.1447  0.4188  0.3211
 4198TIP3    H134085   2.107   5.332   2.828 -0.0690  0.6870  0.3318
 4198TIP3    H234086   2.225   5.421   2.863  0.7296 -0.3326  0.2820
 4199TIP3   OH234087   2.152   5.495   2.530  0.3253 -0.0090  0.4027
 4199TIP3    H134088   2.220   5.560   2.539  0.8379 -0.6317  1.1113
 4199TIP3    H234089   2.129   5.471   2.620  1.1349 -1.8166  0.1470
 4200TIP3   OH234090   6.189   4.340   1.858 -0.1013 -0.1800 -1.2512
 4200TIP3    H134091   6.149   4.427   1.855 -4.2960 -1.8994  1.0919
 4200TIP3    H234092   6.162   4.299   1.776 -2.2490 -0.9015 -0.2214
 4201TIP3   OH234093   3.872   5.133   3.869 -0.3290 -0.1109  0.2213
 4201TIP3    H134094   3.932   5.067   3.903  0.0159 -1.0248 -2.0742
 4201TIP3    H234095   3.929   5.200   3.831 -0.7171 -0.6689 -1.3895
 4202TIP3   OH234096   1.715   0.827  11.250 -0.8125 -0.5926  0.1741
 4202TIP3    H134097   1.689   0.917  11.268  0.2016 -0.3778  0.5720
 4202TIP3    H234098   1.680   0.778  11.325 -0.7562 -0.4217  0.3144
 4203TIP3   OH234099   5.064   1.929   6.183 -0.1131 -0.3944  0.1630
 4203TIP3    H134100   5.021   1.877   6.252  1.0801 -0.0094  1.2295
 4203TIP3    H234101   5.073   2.017   6.222  0.1040 -0.0376 -0.6862
 4204TIP3   OH234102   4.733   6.600   3.250  0.1636  0.4754 -0.2135
 4204TIP3    H134103   4.731   6.695   3.260  0.3294  0.4075  0.4937
 4204TIP3    H234104   4.677   6.568   3.321  0.2016  0.0374 -0.3811
 4205TIP3   OH234105   1.971   1.431  14.436 -0.5391 -0.5979  0.0706
 4205TIP3    H134106   2.024   1.425  14.515  0.4533 -2.6737 -0.7028
 4205TIP3    H234107   1.885   1.398  14.462  0.4789 -3.7524 -0.2549
 4206TIP3   OH234108   2.241   5.411  16.408 -0.7730 -0.5540  0.2033
 4206TIP3    H134109   2.197   5.495  16.409  0.7123  0.2448  1.1197
 4206TIP3    H234110   2.176   5.349  16.441 -1.4226  0.4696  0.8765
 4207TIP3   OH234111   1.051   5.777   2.316  0.3727 -0.0345  0.1332
 4207TIP3    H134112   1.005   5.770   2.400 -2.2168  2.5579 -0.9499
 4207TIP3    H234113   1.141   5.800   2.340 -0.1984  0.1673  2.2340
 4208TIP3   OH234114   5.750   6.774  16.780 -0.6016 -0.1270  0.2209
 4208TIP3    H134115   5.723   6.789  16.689  1.1626 -0.0955 -0.3197
 4208TIP3    H234116   5.781   6.684  16.780 -0.0192  0.0746  0.6454
 4209TIP3   OH234117   1.063   0.993  16.323 -1.0876  0.2256  0.0940
 4209TIP3    H134118   1.078   0.914  16.271 -0.5458  0.4440 -0.0834
 4209TIP3    H234119   0.974   0.983  16.357 -1.4485  0.0780 -0.8817
 4210TIP3   OH234120   1.795   4.889   2.917  0.5958 -0.1337  0.4585
 4210TIP3    H134121   1.875   4.848   2.884  0.3198 -0.3885  0.1108
 4210TIP3    H234122   1.806   4.887   3.012  1.1914  0.2105  0.3980
 4211TIP3   OH234123   3.287   5.169  15.905  0.3581  0.2033 -0.6198
 4211TIP3    H134124   3.274   5.261  15.881 -1.1381  0.3767  0.7608
 4211TIP3    H234125   3.271   5.167  15.999  1.9596 -1.1926 -0.3685
 4212TIP3   OH234126   6.802   6.086   1.578  0.7970 -0.2643  0.3077
 4212TIP3    H134127   6.872   6.044   1.628 -0.7290 -2.0848  0.9409
 4212TIP3    H234128   6.722   6.047   1.611 -0.2845 -1.2691 -3.3211
 4213TIP3   OH234129   5.941   0.321  14.962 -0.2025 -0.5466  0.4665
 4213TIP3    H134130   6.005   0.389  14.978 -0.3350 -0.6361  1.3936
 4213TIP3    H234131   5.921   0.285  15.049 -1.1663 -0.8212  0.1389
 4214TIP3   OH234132   2.888   1.529  16.125  0.9241 -0.0316  0.3217
 4214TIP3    H134133   2.849   1.584  16.057 -0.3038 -2.0018 -0.6004
 4214TIP3    H234134   2.833   1.544  16.202 -0.9768 -1.8661 -0.6368
 4215TIP3   OH234135   6.157   1.752  13.755 -0.1858 -0.1857 -0.3424
 4215TIP3    H134136   6.224   1.744  13.686 -1.5594  1.4978 -1.9159
 4215TIP3    H234137   6.196   1.811  13.819 -0.2711  1.0827 -1.4336
 4216TIP3   OH234138   5.383   2.197   1.964 -0.0209 -0.0127 -1.0543
 4216TIP3    H134139   5.401   2.285   1.996 -1.8265  0.2723 -0.7948
 4216TIP3    H234140   5.288   2.188   1.970  0.1176 -1.8435 -1.4295
 4217TIP3   OH234141   1.425   5.067   6.376 -0.2074 -0.1654  0.5565
 4217TIP3    H134142   1.334   5.046   6.356 -0.0491 -0.9583  0.6388
 4217TIP3    H234143   1.473   4.988   6.353  0.8236  1.1518 -2.1040
 4218TIP3   OH234144   3.653   4.235  14.156 -0.1135  0.0589  0.5451
 4218TIP3    H134145   3.589   4.209  14.091  0.1696  0.0243  0.2762
 4218TIP3    H234146   3.601   4.263  14.231 -0.4786  1.9392 -0.3959
 4219TIP3   OH234147   0.672   3.407  15.761  0.6497  0.2858 -0.1846
 4219TIP3    H134148   0.580   3.381  15.770  0.4482  0.6047 -1.2252
 4219TIP3    H234149   0.720   3.324  15.758  0.4475  0.1213  0.7673
 4220TIP3   OH234150   1.503   6.286  13.070  0.0793  0.5963 -0.0077
 4220TIP3    H134151   1.538   6.289  13.159  1.6278  0.1805 -0.5856
 4220TIP3    H234152   1.561   6.226  13.023 -1.0363  0.3901 -1.1653
 4221TIP3   OH234153   4.172   4.870   3.632  0.1080  0.1397  0.4719
 4221TIP3    H134154   4.094   4.901   3.586 -0.4313 -1.7974  0.0521
 4221TIP3    H234155   4.227   4.948   3.640 -1.0837  1.1469 -0.8172
 4222TIP3   OH234156   2.191   5.055  13.774 -0.1257 -0.1050 -0.3226
 4222TIP3    H134157   2.136   5.015  13.707 -0.1040 -1.1351  0.2700
 4222TIP3    H234158   2.142   5.132  13.803  0.0885  0.6453 -1.8648
 4223TIP3   OH234159   3.454   4.880   5.669  0.3361 -0.2916  0.3573
 4223TIP3    H134160   3.479   4.896   5.578 -0.1344  2.6770  0.7128
 4223TIP3    H234161   3.536   4.855   5.712  0.4536 -2.3337 -0.9663
 4224TIP3   OH234162   6.071   4.986   0.905 -0.0965 -0.3184  0.3319
 4224TIP3    H134163   6.005   5.014   0.840  0.6881  0.8265  0.0143
 4224TIP3    H234164   6.036   5.017   0.988 -0.2761 -0.2771  0.2428
 4225TIP3   OH234165   1.058   0.067   5.930  0.2862  0.0710  0.2778
 4225TIP3    H134166   0.987   0.058   5.866  0.8996 -0.3442 -0.3563
 4225TIP3    H234167   1.057  -0.016   5.978 -1.6443  1.2581  2.3620
 4226TIP3   OH234168   1.354   1.968  15.021  0.2580  0.0370  0.2612
 4226TIP3    H134169   1.412   1.927  15.085 -0.4503  0.5778  1.2622
 4226TIP3    H234170   1.413   2.000  14.953  0.9946 -0.7934  0.4989
 4227TIP3   OH234171   2.669   4.338  11.859  0.6041  0.2872  0.2959
 4227TIP3    H134172   2.721   4.375  11.931  0.4093  1.8387 -0.3390
 4227TIP3    H234173   2.661   4.409  11.796  1.8596 -1.4488 -1.8861
 4228TIP3   OH234174   4.077   5.086   6.398  0.6230  0.5855  0.2077
 4228TIP3    H134175   4.169   5.062   6.411 -0.1356 -2.1953  0.9284
 4228TIP3    H234176   4.033   5.056   6.478 -1.4763 -1.7285 -1.7185
 4229TIP3   OH234177   0.191   4.600   5.188 -0.0258 -0.9843 -0.1817
 4229TIP3    H134178   0.102   4.628   5.166  0.9031  2.1316 -0.2455
 4229TIP3    H234179   0.231   4.678   5.227  2.4573 -2.5647  0.5274
 4230TIP3   OH234180   5.918   6.629   1.053  0.8793  0.7878 -0.3349
 4230TIP3    H134181   5.980   6.700   1.070  2.5400 -0.4721 -1.0179
 4230TIP3    H234182   5.927   6.611   0.960 -0.4057  0.4557 -0.4055
 4231TIP3   OH234183   0.825   4.539  12.160  0.1614 -0.1372 -0.4458
 4231TIP3    H134184   0.892   4.579  12.214 -0.8804  0.3888  0.4785
 4231TIP3    H234185   0.742   4.570  12.197 -0.5639  0.5197 -2.5774
 4232TIP3   OH234186   6.393   2.240   4.576 -0.0183 -0.4307  0.1805
 4232TIP3    H134187   6.406   2.258   4.483  0.0465 -0.7755  0.1212
 4232TIP3    H234188   6.335   2.164   4.578 -1.1418  0.4290  0.4364
 4233TIP3   OH234189   6.291   3.778  10.430 -0.2397  0.0014  0.3130
 4233TIP3    H134190   6.311   3.686  10.412  0.9589  0.2547  0.3069
 4233TIP3    H234191   6.334   3.796  10.513 -3.3887 -0.3804  2.1280
 4234TIP3   OH234192   3.832   4.934  15.170 -0.3892  0.3758 -0.2450
 4234TIP3    H134193   3.747   4.965  15.140 -1.4618 -2.2245 -0.0092
 4234TIP3    H234194   3.887   4.935  15.091  0.1096  4.2043  0.0254
 4235TIP3   OH234195   1.656   4.327   4.714 -0.1987 -0.0616 -0.0853
 4235TIP3    H134196   1.732   4.327   4.657 -0.9698 -1.9418 -1.1452
 4235TIP3    H234197   1.610   4.408   4.694  0.8965  0.5142 -0.2735
 4236TIP3   OH234198   1.414   2.157   3.985 -0.3114  0.3829  0.0028
 4236TIP3    H134199   1.382   2.174   3.896 -1.5243 -0.4751  0.2584
 4236TIP3    H234200   1.508   2.145   3.974 -0.1900  1.9735 -0.9162
 4237TIP3   OH234201   1.970   3.109   1.693 -0.1114 -0.1904  0.0741
 4237TIP3    H134202   1.975   3.084   1.601  0.3541 -0.6616  0.2234
 4237TIP3    H234203   1.995   3.202   1.694 -2.7121  0.5543 -0.5795
 4238TIP3   OH234204   5.520   1.307   0.483 -0.4441 -0.7179 -0.5802
 4238TIP3    H134205   5.601   1.266   0.515 -0.3838 -0.4208 -0.3538
 4238TIP3    H234206   5.450   1.258   0.526 -0.3416  0.5602  1.0942
 4239TIP3   OH234207   5.400   5.261  12.819  0.2446 -0.4228  0.1143
 4239TIP3    H134208   5.468   5.209  12.860  1.4866  0.1049 -1.2163
 4239TIP3    H234209   5.422   5.352  12.841  1.6916 -0.0101 -2.6529
 4240TIP3   OH234210   0.448   1.590  17.208  0.4518  0.3463 -0.3263
 4240TIP3    H134211   0.401   1.516  17.170 -0.0634 -0.5208  1.9219
 4240TIP3    H234212   0.519   1.608  17.147  2.0288 -3.5444  0.2547
 4241TIP3   OH234213   3.643   6.678  14.133 -0.6507  0.3813  0.8817
 4241TIP3    H134214   3.579   6.704  14.066 -0.2076  0.4863  0.4884
 4241TIP3    H234215   3.661   6.759  14.181  2.0388  1.2830 -1.4627
 4242TIP3   OH234216   3.500   5.433  16.280  0.2170  0.5768 -0.4898
 4242TIP3    H134217   3.572   5.406  16.222  1.2118 -0.0970  1.0311
 4242TIP3    H234218   3.543   5.463  16.360 -1.2128 -1.0182  0.9361
 4243TIP3   OH234219   2.067   2.922  12.415  0.7005 -0.2599  0.5115
 4243TIP3    H134220   1.977   2.946  12.394  0.1567 -0.8073  2.1317
 4243TIP3    H234221   2.117   3.002  12.402 -0.0600  0.1142 -0.1684
 4244TIP3   OH234222   3.753   1.123  13.648  0.2245 -0.3934 -0.3847
 4244TIP3    H134223   3.701   1.085  13.719  0.6789 -0.7189 -0.2277
 4244TIP3    H234224   3.756   1.216  13.668  0.6153 -0.5283  0.1906
 4245TIP3   OH234225   1.480   1.038   0.312 -0.4441  0.2327  0.1377
 4245TIP3    H134226   1.466   1.115   0.257 -1.0999 -1.3526 -1.9917
 4245TIP3    H234227   1.401   0.985   0.301  0.9142 -1.8021 -0.2751
 4246TIP3   OH234228   5.733   1.289  15.807 -0.0365 -0.0456  0.3633
 4246TIP3    H134229   5.650   1.330  15.833 -0.5191 -1.1730  0.6121
 4246TIP3    H234230   5.712   1.197  15.794  0.8490 -0.0760 -1.0889
 4247TIP3   OH234231   2.526   3.004   4.496 -0.5347 -0.1910  0.1012
 4247TIP3    H134232   2.530   3.099   4.502  2.0563 -0.1560 -1.3706
 4247TIP3    H234233   2.525   2.974   4.587  1.0751  1.1922  0.5917
 4248TIP3   OH234234   1.003   3.543   1.115 -0.2895  0.2008 -0.5781
 4248TIP3    H134235   1.068   3.490   1.162 -1.0069 -1.3305 -1.2862
 4248TIP3    H234236   1.009   3.629   1.156  1.0350 -0.3676  0.4705
 4249TIP3   OH234237   6.424   2.656   2.523 -0.0729 -0.1432 -0.5808
 4249TIP3    H134238   6.344   2.692   2.484  2.2303  1.5946 -4.0167
 4249TIP3    H234239   6.462   2.601   2.454  3.0757  1.2874 -0.1025
 4250TIP3   OH234240   0.692   2.379  16.104  0.3510  1.0594 -0.9732
 4250TIP3    H134241   0.641   2.455  16.076 -0.3231  0.5964 -1.0087
 4250TIP3    H234242   0.626   2.315  16.132  0.9161  0.4910 -0.9408
 4251TIP3   OH234243   2.168   0.290   3.368  0.6310  0.5819  0.0049
 4251TIP3    H134244   2.209   0.329   3.291  1.8782 -0.7463 -0.0210
 4251TIP3    H234245   2.085   0.254   3.335  1.2351 -0.1330 -0.7618
 4252TIP3   OH234246   4.701   6.527  12.687  0.5856  0.2955 -0.0621
 4252TIP3    H134247   4.633   6.569  12.740 -0.5124 -0.5664 -0.7538
 4252TIP3    H234248   4.702   6.436  12.716  2.2222  0.5417  0.7022
 4253TIP3   OH234249   6.764   0.655  14.040  0.1124  0.2187 -0.5333
 4253TIP3    H134250   6.719   0.596  14.101  0.1273 -0.3518 -1.0663
 4253TIP3    H234251   6.778   0.602  13.962  1.6057  0.4164 -0.4219
 4254TIP3   OH234252   3.385   1.266  13.499  0.2455  0.1088 -0.0230
 4254TIP3    H134253   3.452   1.305  13.555  1.1116 -0.4715 -0.6484
 4254TIP3    H234254   3.349   1.339  13.449 -1.0007  0.7438  1.7535
 4255TIP3   OH234255   6.817   1.791   1.469  0.2982  0.6841  0.1406
 4255TIP3    H134256   6.879   1.770   1.400 -0.3887  0.2936 -0.3599
 4255TIP3    H234257   6.869   1.787   1.550  1.1263  1.2805 -0.3582
 4256TIP3   OH234258   3.805   1.183   0.881 -0.4515 -0.1704 -0.2186
 4256TIP3    H134259   3.870   1.252   0.899 -1.4176  0.9113 -0.7961
 4256TIP3    H234260   3.798   1.135   0.963 -0.3545  0.9218  0.4454
 4257TIP3   OH234261   0.878   1.026   3.817 -0.0534 -0.4795  0.6945
 4257TIP3    H134262   0.883   1.121   3.805 -1.7616 -0.5061 -0.3100
 4257TIP3    H234263   0.965   1.002   3.848  0.7924  1.2335 -0.2711
 4258TIP3   OH234264   2.457   1.811  15.148 -0.3573  0.7343  0.2525
 4258TIP3    H134265   2.377   1.842  15.106  0.7450  1.6250 -1.1962
 4258TIP3    H234266   2.505   1.891  15.172  0.3085  0.2000  0.7357
 4259TIP3   OH234267   6.482   2.940   0.619 -0.2298 -0.5053  0.2488
 4259TIP3    H134268   6.482   2.950   0.714  0.1165 -0.3578  0.2311
 4259TIP3    H234269   6.567   2.902   0.599 -0.2172 -0.3227 -0.0294
 4260TIP3   OH234270   0.927   3.996   4.885  0.0678  0.0915 -0.4148
 4260TIP3    H134271   0.866   3.984   4.812 -0.6273  1.4518 -0.0756
 4260TIP3    H234272   0.904   4.082   4.922  0.4533 -0.5545  1.3620
 4261TIP3   OH234273   0.928   1.910   4.689 -0.8377  0.0691  0.0085
 4261TIP3    H134274   0.999   1.878   4.744  0.8532 -0.7119 -2.5359
 4261TIP3    H234275   0.889   1.832   4.649 -0.4106  0.7344 -1.7947
 4262TIP3   OH234276   3.016   3.857  16.888 -0.5376 -0.2337  0.0100
 4262TIP3    H134277   2.963   3.803  16.947 -0.1097 -0.4010  0.2489
 4262TIP3    H234278   3.099   3.809  16.880  0.1225  0.7456  0.8159
 4263TIP3   OH234279   0.528   5.870  13.712  0.1733 -0.3609 -0.8500
 4263TIP3    H134280   0.543   5.903  13.623  0.6042 -0.5941 -0.8697
 4263TIP3    H234281   0.438   5.838  13.711 -0.2274  0.7726 -0.8353
 4264TIP3   OH234282   0.513   5.760   0.114  0.0247  0.2949  0.4357
 4264TIP3    H134283   0.501   5.834   0.174  0.6614  0.0726  0.8443
 4264TIP3    H234284   0.506   5.798   0.027  0.4551  0.8618  0.6433
 4265TIP3   OH234285   0.416   6.819  13.509 -0.0634  0.5271 -0.6006
 4265TIP3    H134286   0.509   6.798  13.516 -0.1543  0.3872  0.2066
 4265TIP3    H234287   0.401   6.830  13.415  0.6258 -0.1009 -0.7890
 4266TIP3   OH234288   5.506   3.850   5.617 -0.5507 -0.0562 -0.0841
 4266TIP3    H134289   5.432   3.849   5.677 -1.6632 -1.3581 -1.4240
 4266TIP3    H234290   5.466   3.840   5.530  1.0869  0.7848 -0.9526
 4267TIP3   OH234291   2.679   6.314   2.612  0.0237 -0.3980  0.1484
 4267TIP3    H134292   2.766   6.325   2.574 -0.2628  2.3043  0.1412
 4267TIP3    H234293   2.627   6.274   2.543  0.8538 -0.4750 -0.4396
 4268TIP3   OH234294   4.785   2.450   0.664 -0.3355  0.6861 -0.2126
 4268TIP3    H134295   4.779   2.357   0.641 -1.2120  0.4701  0.8192
 4268TIP3    H234296   4.876   2.473   0.646 -0.3422 -0.1343 -1.3380
 4269TIP3   OH234297   6.142   4.102   5.634 -0.1085 -0.0438  0.0317
 4269TIP3    H134298   6.090   4.027   5.604  0.5080  0.3707 -2.1805
 4269TIP3    H234299   6.157   4.086   5.727  0.6795 -3.0508 -0.5834
 4270TIP3   OH234300   2.396   1.132  15.184  0.4006  0.3824  0.1448
 4270TIP3    H134301   2.353   1.203  15.137 -0.6237  0.2344  0.8492
 4270TIP3    H234302   2.473   1.173  15.224 -0.0092  1.0278  0.2772
 4271TIP3   OH234303   2.451   2.962  14.706 -0.3055  0.0367 -0.2003
 4271TIP3    H134304   2.443   3.052  14.736 -0.5172 -0.5685  1.6482
 4271TIP3    H234305   2.464   2.969  14.611 -3.8608  1.8669 -0.6590
 4272TIP3   OH234306   6.476   4.387   4.036 -0.9095  0.3796  0.1399
 4272TIP3    H134307   6.549   4.345   3.990 -1.8380 -2.0939  0.8654
 4272TIP3    H234308   6.503   4.479   4.044  1.3225 -0.1197 -1.1812
 4273TIP3   OH234309   4.537   2.534   0.107 -0.3962  0.0263 -0.2622
 4273TIP3    H134310   4.578   2.459   0.149 -0.3469 -0.0550 -0.4548
 4273TIP3    H234311   4.516   2.504   0.018 -0.1371  0.3219 -0.4256
 4274TIP3   OH234312   2.404   2.645  16.061 -0.4176  0.1998 -0.0295
 4274TIP3    H134313   2.376   2.715  16.002  0.2480  0.3024 -0.2309
 4274TIP3    H234314   2.371   2.565  16.020  1.1564  0.1435 -1.2480
 4275TIP3   OH234315   4.309   1.797   0.682 -0.4311  0.0476 -0.1312
 4275TIP3    H134316   4.313   1.752   0.766 -2.3553 -1.5573 -0.8943
 4275TIP3    H234317   4.295   1.889   0.705  1.0300 -0.0672  1.3311
 4276TIP3   OH234318   3.611   2.316   1.808 -0.0657 -0.0022 -0.0066
 4276TIP3    H134319   3.564   2.385   1.761  0.3683 -0.6062 -1.3632
 4276TIP3    H234320   3.545   2.248   1.823 -0.2073  0.1944  0.2541
 4277TIP3   OH234321   3.265   0.133   0.696 -0.1988 -0.2359 -0.0606
 4277TIP3    H134322   3.316   0.161   0.620  0.1486 -0.6271  0.0243
 4277TIP3    H234323   3.227   0.049   0.669  1.0345 -1.0537  0.6767
 4278TIP3   OH234324   2.569   3.949   3.329 -0.2516  0.1198  0.3513
 4278TIP3    H134325   2.594   3.995   3.409  0.6631 -0.2392  0.2792
 4278TIP3    H234326   2.542   3.862   3.359 -0.5289  0.2049  0.3408
 4279TIP3   OH234327   6.606   4.189   0.746 -0.0466 -0.4181 -0.7619
 4279TIP3    H134328   6.700   4.175   0.744 -0.2164 -1.5391 -0.9982
 4279TIP3    H234329   6.588   4.246   0.671  0.6843  1.3485  0.3781
 4280TIP3   OH234330   3.147   5.557  13.142 -0.3413  0.1592  0.8191
 4280TIP3    H134331   3.238   5.526  13.150 -0.3802  0.1823  1.3597
 4280TIP3    H234332   3.095   5.488  13.182 -0.4638  0.7173  1.6216
 4281TIP3   OH234333   4.124   4.884   2.806  0.0903 -0.3929 -0.4527
 4281TIP3    H134334   4.108   4.809   2.862  0.8166 -1.0868 -1.1616
 4281TIP3    H234335   4.040   4.931   2.803  0.0418 -0.3540  1.1773
 4282TIP3   OH234336   3.219   4.851  13.953 -0.3773  0.4804 -0.0952
 4282TIP3    H134337   3.226   4.765  13.993  0.3619  1.3885  1.8216
 4282TIP3    H234338   3.188   4.835  13.864 -1.3612 -1.6557  0.6250
 4283TIP3   OH234339   2.747   4.342   0.766  0.0020  0.2366 -0.1838
 4283TIP3    H134340   2.794   4.421   0.740  0.3715 -0.0750 -0.4634
 4283TIP3    H234341   2.668   4.342   0.711  0.1411  0.2647 -0.3848
 4284TIP3   OH234342   2.297   1.914   2.267 -0.4622  0.2896  0.3568
 4284TIP3    H134343   2.284   1.947   2.177 -1.7223 -0.3918  0.2753
 4284TIP3    H234344   2.334   1.989   2.314  2.0501  0.0890 -1.1774
 4285TIP3   OH234345   3.706   0.702   5.266 -0.7052  0.1806 -0.0221
 4285TIP3    H134346   3.677   0.646   5.193  0.1265  0.6864 -0.7539
 4285TIP3    H234347   3.777   0.653   5.306  2.0063  1.9441 -2.4627
 4286TIP3   OH234348   4.698   2.241  14.597  0.0956  0.5190  0.0914
 4286TIP3    H134349   4.622   2.291  14.565  0.7262  0.6915 -1.1400
 4286TIP3    H234350   4.731   2.196  14.520 -1.0366 -2.6087  1.3490
 4287TIP3   OH234351   4.775   5.671   5.401 -0.2340 -0.0058 -0.9248
 4287TIP3    H134352   4.706   5.605   5.394  0.6673 -0.9612 -1.0845
 4287TIP3    H234353   4.854   5.626   5.370  0.6339  0.7735  0.0843
 4288TIP3   OH234354   6.192   3.155   1.518  0.2986 -0.1566  0.1871
 4288TIP3    H134355   6.245   3.157   1.598  2.3235 -0.8235 -1.0778
 4288TIP3    H234356   6.195   3.245   1.485  1.3610 -0.3488 -0.2889
 4289TIP3   OH234357   1.194   0.301   6.297 -0.1676  0.2810  0.5681
 4289TIP3    H134358   1.288   0.290   6.310 -0.7251 -1.4271  3.6267
 4289TIP3    H234359   1.154   0.228   6.345 -3.1590  3.1789  2.7516
 4290TIP3   OH234360   0.436   3.704   2.011  0.6171  0.0146 -0.3804
 4290TIP3    H134361   0.397   3.709   2.098 -0.3080  0.1267 -0.7997
 4290TIP3    H234362   0.362   3.714   1.951  1.0810 -1.2719 -1.1761
 4291TIP3   OH234363   5.436   3.134   3.968 -0.1609  0.6981 -0.2264
 4291TIP3    H134364   5.383   3.059   3.994 -0.5250  0.5357 -1.4240
 4291TIP3    H234365   5.387   3.175   3.896 -0.0428  2.1699  0.5015
 4292TIP3   OH234366   2.642   5.639   2.048  0.3557  0.2233  0.0641
 4292TIP3    H134367   2.602   5.552   2.044  0.3721 -0.0473  3.8340
 4292TIP3    H234368   2.649   5.666   1.957 -1.8937 -2.7017 -1.0762
 4293TIP3   OH234369   4.614   4.478   5.876  0.1566  0.2591 -0.0124
 4293TIP3    H134370   4.703   4.500   5.904 -0.1851  0.0395  1.2720
 4293TIP3    H234371   4.606   4.385   5.895 -0.0772  0.0977 -0.8854
 4294TIP3   OH234372   3.455   1.428   3.959  0.4453 -0.2501 -0.2648
 4294TIP3    H134373   3.492   1.516   3.963 -0.9615  0.3672 -0.5047
 4294TIP3    H234374   3.363   1.439   3.985 -0.1949 -1.3692 -1.9988
 4295TIP3   OH234375   3.252   3.810  12.285  0.0939 -0.6368 -0.7723
 4295TIP3    H134376   3.194   3.886  12.292 -1.1483 -1.6792  0.5827
 4295TIP3    H234377   3.232   3.757  12.362  1.1287 -2.2185 -1.5547
 4296TIP3   OH234378   2.515   2.007   3.994  0.0758 -0.3252  0.1809
 4296TIP3    H134379   2.523   1.974   4.084 -1.9559  0.7430  0.7776
 4296TIP3    H234380   2.480   1.933   3.945  0.7192 -0.7553  0.3536
 4297TIP3   OH234381   6.516   6.100  17.084 -0.2445  0.4203  0.3550
 4297TIP3    H134382   6.591   6.072  17.032 -0.6371  0.4869 -0.2490
 4297TIP3    H234383   6.505   6.031  17.150 -0.1167  0.0333 -0.0260
 4298TIP3   OH234384   0.417   0.704  12.685  0.1263 -0.1345 -0.6712
 4298TIP3    H134385   0.371   0.620  12.694 -1.7188  0.7619 -1.5072
 4298TIP3    H234386   0.492   0.684  12.629 -0.3252 -1.2058 -0.9128
 4299TIP3   OH234387   4.371   1.269   0.531 -0.3697  0.0886 -0.2769
 4299TIP3    H134388   4.409   1.222   0.605  0.5642  1.7996  0.3516
 4299TIP3    H234389   4.445   1.292   0.475 -0.7386  1.3263 -0.2737
 4300TIP3   OH234390   3.885   1.768   5.046 -0.2263  0.3149  0.0853
 4300TIP3    H134391   3.945   1.842   5.053  1.4373 -1.0259  0.3006
 4300TIP3    H234392   3.831   1.788   4.970 -0.2050  2.0340  0.5142
 4301TIP3   OH234393   2.454   1.315  14.118 -0.0624 -0.0631 -0.2947
 4301TIP3    H134394   2.465   1.400  14.162 -0.5436  0.7631 -1.7344
 4301TIP3    H234395   2.458   1.251  14.189  0.1566  1.1701  0.8379
 4302TIP3   OH234396   2.173   3.263   3.551 -0.4395 -0.5176  0.2802
 4302TIP3    H134397   2.191   3.340   3.605  0.1945 -1.4607  1.4430
 4302TIP3    H234398   2.256   3.216   3.548 -0.8019 -1.1247 -0.4871
 4303TIP3   OH234399   3.997   3.046  12.834 -0.4238  0.3390  0.2396
 4303TIP3    H134400   4.045   3.033  12.915 -2.1701 -0.4916  1.1594
 4303TIP3    H234401   4.004   3.140  12.816  0.0132  0.5099  1.3121
 4304TIP3   OH234402   0.053   5.574   3.559 -0.0241  0.6134 -0.6985
 4304TIP3    H134403  -0.040   5.596   3.567 -0.1355  0.2840 -1.1038
 4304TIP3    H234404   0.091   5.601   3.643 -0.4774  0.7841 -0.5480
 4305TIP3   OH234405   0.899   2.754   5.649  0.1929 -0.1525 -0.1356
 4305TIP3    H134406   0.916   2.829   5.592 -1.2940  0.3635  0.0795
 4305TIP3    H234407   0.816   2.718   5.617  0.7994 -1.5878 -0.1055
 4306TIP3   OH234408   2.605   0.026   5.529  0.0764  0.0659 -0.0584
 4306TIP3    H134409   2.674  -0.001   5.589 -1.6604 -1.2220  1.3864
 4306TIP3    H234410   2.584   0.115   5.555 -0.3075 -0.3053  0.9204
 4307TIP3   OH234411   1.238   3.868   3.246  0.1111 -0.4742 -0.3977
 4307TIP3    H134412   1.305   3.800   3.235  1.4724  0.3727  2.1678
 4307TIP3    H234413   1.173   3.828   3.303  0.9322  0.3503  1.1465
 4308TIP3   OH234414   5.222   2.946   4.847 -0.1191  0.2520 -0.5646
 4308TIP3    H134415   5.134   2.922   4.878  0.5889 -0.5017  0.9422
 4308TIP3    H234416   5.251   2.869   4.797  0.8478 -0.7411  1.4756
 4309TIP3   OH234417   6.474   6.686   1.022 -0.2104 -0.6294 -0.4856
 4309TIP3    H134418   6.522   6.744   0.962 -1.3701 -0.2624 -1.0789
 4309TIP3    H234419   6.488   6.724   1.108  1.4232 -1.1229 -0.5172
 4310TIP3   OH234420   3.131   0.746   3.222 -0.1470  0.2828  0.7164
 4310TIP3    H134421   3.166   0.779   3.305  0.4572  0.9353  0.2034
 4310TIP3    H234422   3.205   0.747   3.162 -0.8563  0.9622 -0.1672
 4311TIP3   OH234423   2.791   5.871   4.403 -0.4018  0.0466 -0.5684
 4311TIP3    H134424   2.850   5.916   4.463 -1.2525 -0.9206  1.0194
 4311TIP3    H234425   2.703   5.886   4.439 -0.7667 -2.2041 -0.4220
 4312TIP3   OH234426   4.777   5.014   0.505 -0.5679  0.6083 -0.1810
 4312TIP3    H134427   4.740   5.010   0.416  0.2307 -1.3191 -0.4685
 4312TIP3    H234428   4.704   5.041   0.560 -0.9718  2.2405 -1.4874
 4313TIP3   OH234429   3.794   6.071  14.787  0.3103  0.3262 -0.3510
 4313TIP3    H134430   3.847   6.010  14.736  0.4579  1.8326 -2.0617
 4313TIP3    H234431   3.851   6.097  14.859  0.6235 -0.7455 -0.2026
 4314TIP3   OH234432   4.498   4.807   2.384 -0.0950  0.3132  0.4687
 4314TIP3    H134433   4.448   4.886   2.367 -0.7718 -0.5500 -1.8650
 4314TIP3    H234434   4.565   4.833   2.447  0.0072  2.8579 -0.6477
 4315TIP3   OH234435   0.013   5.673   5.328 -0.3925  0.3172 -0.5064
 4315TIP3    H134436  -0.045   5.603   5.298 -2.6792 -0.0471  4.2361
 4315TIP3    H234437   0.073   5.630   5.389  1.1304  1.7258 -0.9758
 4316TIP3   OH234438   6.141   4.835  12.437 -0.0294  0.4551  0.0598
 4316TIP3    H134439   6.092   4.914  12.457 -0.6812  0.2096 -0.5449
 4316TIP3    H234440   6.093   4.794  12.365  1.8186  0.9185 -1.4845
 4317TIP3   OH234441   3.077   1.514   3.006 -0.5750  0.2678 -0.0936
 4317TIP3    H134442   3.067   1.511   2.911  0.6947  0.0859 -0.2264
 4317TIP3    H234443   3.083   1.422   3.033 -0.1816  0.3413  0.0771
 4318TIP3   OH234444   6.387   3.842   2.587  0.0742  0.6545  0.0167
 4318TIP3    H134445   6.419   3.902   2.520  0.9785 -1.0758 -1.1702
 4318TIP3    H234446   6.460   3.780   2.599 -0.9409 -0.3683  0.9641
 4319TIP3   OH234447   4.826   5.840  11.297  0.1867  0.5968  0.1644
 4319TIP3    H134448   4.823   5.799  11.211  2.0542  0.4707  0.1459
 4319TIP3    H234449   4.899   5.797  11.342  0.0790  1.5918  1.3248
 4320TIP3   OH234450   0.220   6.693   0.615 -0.0098  0.1773  0.8906
 4320TIP3    H134451   0.182   6.619   0.662  2.1288 -0.3055  1.9414
 4320TIP3    H234452   0.167   6.768   0.640 -2.4497 -1.0394 -0.4843
 4321TIP3   OH234453   5.888   0.393  13.143 -0.7312  0.0110  0.0248
 4321TIP3    H134454   5.948   0.417  13.073  1.2884 -2.4183  0.8446
 4321TIP3    H234455   5.908   0.453  13.215 -0.1547  0.0047 -0.1358
 4322TIP3   OH234456   2.691   4.596  16.671  0.4480  0.1518 -0.2688
 4322TIP3    H134457   2.673   4.584  16.764  1.5041 -1.3967 -0.2399
 4322TIP3    H234458   2.653   4.519  16.629 -1.5350  1.6615 -1.3580
 4323TIP3   OH234459   2.970   6.054   2.725 -0.4502 -0.0780  0.1026
 4323TIP3    H134460   2.941   6.098   2.804 -1.2464 -0.6727  0.1443
 4323TIP3    H234461   2.986   5.963   2.752  0.4207 -0.0131 -0.1577
 4324TIP3   OH234462   0.090   5.766  13.187  0.4630  0.0834 -0.8839
 4324TIP3    H134463   0.082   5.670  13.193  1.5763  0.1639  2.7022
 4324TIP3    H234464   0.170   5.780  13.136 -0.0955 -0.8497 -2.0619
 4325TIP3   OH234465   1.270   1.394  13.266 -0.1394 -0.1066 -0.9147
 4325TIP3    H134466   1.298   1.317  13.316  0.4324  1.5548  1.3936
 4325TIP3    H234467   1.176   1.382  13.253  0.1652 -1.7954 -1.6877
 4326TIP3   OH234468   6.250   4.818   1.438  0.2227  0.8479  0.0371
 4326TIP3    H134469   6.281   4.795   1.350  2.0304  1.9699  0.3455
 4326TIP3    H234470   6.297   4.898   1.460 -2.5147  2.2940  0.8144
 4327TIP3   OH234471   6.008   2.531   2.229 -0.5674  0.1804 -0.2433
 4327TIP3    H134472   6.027   2.497   2.316  2.7170 -0.9811 -1.3343
 4327TIP3    H234473   6.009   2.453   2.173  2.3229  1.4186 -2.0265
 4328TIP3   OH234474   6.783   6.151   5.213  0.0259 -0.0809 -0.3135
 4328TIP3    H134475   6.789   6.087   5.284 -0.1309  0.9585  0.6424
 4328TIP3    H234476   6.695   6.139   5.178 -0.1875 -0.0359  0.2003
 4329TIP3   OH234477   4.867   5.216   3.061 -0.5419  0.0604 -0.3234
 4329TIP3    H134478   4.859   5.125   3.033 -0.0083  0.3731 -1.5302
 4329TIP3    H234479   4.962   5.229   3.071 -0.3423  1.4295 -3.4562
 4330TIP3   OH234480   0.913   6.329   5.118 -0.0617  0.0437  0.1937
 4330TIP3    H134481   0.869   6.301   5.198  0.7631 -1.5105  0.1300
 4330TIP3    H234482   1.006   6.325   5.139  0.1232  0.6900 -0.4956
 4331TIP3   OH234483   6.254   2.809   0.594  0.1503  0.3826 -0.0013
 4331TIP3    H134484   6.330   2.862   0.571  0.4885 -0.6524 -1.2611
 4331TIP3    H234485   6.275   2.721   0.564 -1.5020  0.0601 -0.2809
 4332TIP3   OH234486   0.151   1.391  16.397  0.1917 -0.3028  0.4482
 4332TIP3    H134487   0.139   1.462  16.460 -0.4142  0.2437 -0.2581
 4332TIP3    H234488   0.223   1.421  16.341 -0.5715  0.1115 -0.3231
 4333TIP3   OH234489   4.861   0.581  14.512 -0.5821  0.2357 -0.2095
 4333TIP3    H134490   4.884   0.672  14.534  0.1993  0.5101 -2.0412
 4333TIP3    H234491   4.927   0.555  14.447 -0.3321 -1.9081  0.8634
 4334TIP3   OH234492   4.448   3.572  13.338 -0.2870 -0.6663  0.3313
 4334TIP3    H134493   4.496   3.590  13.419  0.5356  0.4475 -0.3720
 4334TIP3    H234494   4.402   3.490  13.354  0.6068 -0.9304  1.5978
 4335TIP3   OH234495   1.762   0.024   4.943 -0.1310 -0.5588 -0.0501
 4335TIP3    H134496   1.815   0.092   4.985 -0.0344 -0.8918  0.3709
 4335TIP3    H234497   1.675   0.034   4.982  0.1462 -1.3506  0.7821
 4336TIP3   OH234498   5.405   4.723  11.018  0.0766 -0.0440  0.1961
 4336TIP3    H134499   5.437   4.729  10.928  0.9584 -1.1508  0.4240
 4336TIP3    H234500   5.395   4.814  11.046 -0.9460  0.3068 -1.2648
 4337TIP3   OH234501   1.663   3.841  16.050 -0.1074  0.1530 -0.1509
 4337TIP3    H134502   1.624   3.767  16.003  0.4779 -0.3991  0.2300
 4337TIP3    H234503   1.623   3.839  16.136  0.5457 -0.2404  0.1476
 4338TIP3   OH234504   6.169   3.339   0.409  0.2058  0.6312 -0.5327
 4338TIP3    H134505   6.103   3.317   0.474  0.4128  1.7724  0.0697
 4338TIP3    H234506   6.238   3.272   0.421  0.0977  0.6490  0.1984
 4339TIP3   OH234507   3.464   4.565   5.789  0.1501 -0.0859 -0.5141
 4339TIP3    H134508   3.501   4.480   5.765 -0.0997 -0.0708 -0.9448
 4339TIP3    H234509   3.413   4.548   5.868  2.2404  0.1532  0.9338
 4340TIP3   OH234510   2.342   0.839  13.961 -0.0030 -0.0839  0.4032
 4340TIP3    H134511   2.292   0.801  13.889  2.2976  0.7468 -1.6967
 4340TIP3    H234512   2.318   0.932  13.960  1.8275  0.4013 -0.8799
 4341TIP3   OH234513   1.217   6.516  13.375  0.1675  0.7098 -0.0880
 4341TIP3    H134514   1.226   6.479  13.288 -3.7192  0.1113 -0.2983
 4341TIP3    H234515   1.201   6.609  13.360 -0.3334  0.6369 -0.0118
 4342TIP3   OH234516   1.198   3.385  14.624  0.0529  0.3103 -0.1372
 4342TIP3    H134517   1.247   3.354  14.700  0.9053  0.2095 -0.7203
 4342TIP3    H234518   1.117   3.334  14.625  0.1715  0.1331  0.5547
 4343TIP3   OH234519   2.517   6.672  15.997  0.5565 -0.4103 -0.1028
 4343TIP3    H134520   2.545   6.583  16.018 -0.7732 -1.1133 -1.1938
 4343TIP3    H234521   2.523   6.719  16.079 -2.2257 -2.4587  1.3555
 4344TIP3   OH234522   4.455   0.173   4.970  0.4549  0.2086 -0.0338
 4344TIP3    H134523   4.512   0.126   5.031 -0.2566 -0.9443 -0.2471
 4344TIP3    H234524   4.500   0.165   4.885  0.1680 -0.3880 -0.1331
 4345TIP3   OH234525   5.166   3.096   0.263  0.5033  0.0343  0.1941
 4345TIP3    H134526   5.132   3.021   0.313 -0.5418 -0.5231 -1.3044
 4345TIP3    H234527   5.088   3.143   0.234  1.1455  1.4369  0.7061
 4346TIP3   OH234528   6.736   1.971   2.702  0.4432  0.0500  0.0277
 4346TIP3    H134529   6.828   1.983   2.729  0.4435  0.5517 -0.1970
 4346TIP3    H234530   6.732   2.008   2.615  0.0116  0.0530  0.0511
 4347TIP3   OH234531   3.388   3.214   3.075 -0.1486  0.0964  0.0812
 4347TIP3    H134532   3.339   3.155   3.132 -0.5236  1.6551  1.4209
 4347TIP3    H234533   3.476   3.216   3.113 -0.5448  1.5747  0.9992
 4348TIP3   OH234534   3.501   0.168   1.326 -0.0260  0.1355 -0.0209
 4348TIP3    H134535   3.523   0.129   1.241 -1.7073  0.1558 -0.4884
 4348TIP3    H234536   3.465   0.095   1.376  0.3265  0.2759  0.4377
 4349TIP3   OH234537   5.550   5.747   3.355  0.4744  0.5314 -0.2653
 4349TIP3    H134538   5.524   5.656   3.373  0.5071  0.6170  0.2349
 4349TIP3    H234539   5.513   5.767   3.269 -1.5165  0.8211  0.6330
 4350TIP3   OH234540   0.164   3.871   2.350  0.8446 -0.4227 -0.3550
 4350TIP3    H134541   0.098   3.873   2.280  1.1130 -0.3532 -0.6059
 4350TIP3    H234542   0.207   3.787   2.340 -0.0862 -1.0313  0.6284
 4351TIP3   OH234543   5.932   0.217   0.974 -0.4437 -0.1930  0.3918
 4351TIP3    H134544   5.884   0.297   0.950  0.0444  0.0665  0.2796
 4351TIP3    H234545   5.863   0.153   0.992 -0.9009  0.9634  3.0280
 4352TIP3   OH234546   3.686   1.064   3.476  0.0879 -0.0364  0.1855
 4352TIP3    H134547   3.673   0.984   3.425  1.1576 -0.0073 -0.1590
 4352TIP3    H234548   3.750   1.115   3.425  2.2780 -0.6352  2.2082
 4353TIP3   OH234549   2.271   3.190   6.153  0.3079 -0.2630  0.2784
 4353TIP3    H134550   2.356   3.180   6.195  0.0060 -0.0858  0.9291
 4353TIP3    H234551   2.292   3.208   6.061  1.0025  1.3001  0.7247
 4354TIP3   OH234552   0.811   4.180  15.050  0.3635  0.3426  0.5084
 4354TIP3    H134553   0.791   4.268  15.018  0.5204  0.9318  2.0266
 4354TIP3    H234554   0.841   4.133  14.972 -0.3792  1.4248 -0.4426
 4355TIP3   OH234555   3.043   1.916   5.560 -0.0631 -0.1097  0.1401
 4355TIP3    H134556   3.040   1.855   5.633 -0.9735  0.3529  0.5004
 4355TIP3    H234557   2.952   1.923   5.531  0.5252 -1.6923 -2.2030
 4356TIP3   OH234558   4.200   3.078  12.123  0.1666  0.2437 -0.2363
 4356TIP3    H134559   4.225   2.999  12.171  0.1704  0.4949  0.1787
 4356TIP3    H234560   4.106   3.086  12.137  0.5748  1.7846  1.9746
 4357TIP3   OH234561   4.305   1.746   0.041  0.5229 -0.2725  0.8075
 4357TIP3    H134562   4.326   1.830   0.081 -2.0404  0.8839 -0.1941
 4357TIP3    H234563   4.216   1.726   0.071 -0.8787 -0.1443 -2.9396
 4358TIP3   OH234564   2.112   1.635   0.890 -0.4370  0.0628 -0.5569
 4358TIP3    H134565   2.171   1.681   0.950 -0.9595  0.1632 -0.1109
 4358TIP3    H234566   2.098   1.696   0.818  0.5505 -0.2343 -1.0073
 4359TIP3   OH234567   3.977   0.061  15.530 -0.3003  0.2556 -0.0039
 4359TIP3    H134568   3.931   0.067  15.446 -0.3785  0.5290  0.0596
 4359TIP3    H234569   4.030   0.140  15.534  0.9659 -0.5305 -0.5459
 4360TIP3   OH234570   4.100   5.459  16.876  0.3322  0.3144 -0.0961
 4360TIP3    H134571   4.176   5.406  16.852 -0.2132  0.1185 -1.4638
 4360TIP3    H234572   4.025   5.401  16.862 -0.1991  1.1262 -0.7046
 4361TIP3   OH234573   4.897   2.352  13.217 -0.2153  0.5277  0.1236
 4361TIP3    H134574   4.934   2.390  13.138  1.3232 -0.7472  0.1993
 4361TIP3    H234575   4.809   2.390  13.223 -0.4670  0.4203 -2.3372
 4362TIP3   OH234576   2.366   3.520  12.104 -0.6223 -0.5307 -0.6172
 4362TIP3    H134577   2.372   3.583  12.032 -2.5255 -0.5235 -0.7895
 4362TIP3    H234578   2.284   3.541  12.147  0.7140 -0.2348  1.8725
 4363TIP3   OH234579   1.831   6.383  11.812 -0.2115 -0.0384 -0.4036
 4363TIP3    H134580   1.750   6.333  11.800 -0.2653 -0.0662  0.0644
 4363TIP3    H234581   1.856   6.365  11.902 -0.3303  0.9345 -0.1802
 4364TIP3   OH234582   2.127   2.400   1.123 -0.0186  0.0391 -0.2764
 4364TIP3    H134583   2.045   2.416   1.077  0.8861  0.5746 -1.7613
 4364TIP3    H234584   2.118   2.446   1.206 -1.9954 -1.5985  0.4317
 4365TIP3   OH234585   3.055   1.970  16.752 -0.5950 -0.6778  0.1218
 4365TIP3    H134586   3.015   1.900  16.804 -0.0552 -1.8735 -1.0858
 4365TIP3    H234587   3.139   1.935  16.724 -0.2981  0.4766 -0.4559
 4366TIP3   OH234588   1.512   4.248   2.101  0.0692 -0.1458  0.5164
 4366TIP3    H134589   1.504   4.341   2.121  0.7283 -0.3467  1.7630
 4366TIP3    H234590   1.426   4.224   2.066 -0.0840  0.9349  0.1309
 4367TIP3   OH234591   1.550   0.334  11.072  0.4564 -0.3400 -0.3868
 4367TIP3    H134592   1.476   0.345  11.131  0.4910 -0.7368 -0.2638
 4367TIP3    H234593   1.513   0.296  10.993  0.4812 -0.2475 -0.4429
 4368TIP3   OH234594   5.088   3.390   2.175  0.4271  0.2295 -0.4033
 4368TIP3    H134595   5.039   3.372   2.095  1.3966 -1.0698 -0.7240
 4368TIP3    H234596   5.050   3.332   2.241 -0.7175  1.6705  0.2313
 4369TIP3   OH234597   1.494   2.743   1.307  0.1378  0.5159 -0.4653
 4369TIP3    H134598   1.571   2.709   1.260 -0.9994 -1.9843 -0.6141
 4369TIP3    H234599   1.526   2.759   1.396  0.9733 -0.0607 -0.6492
 4370TIP3   OH234600   0.464   4.323  13.405 -0.3394 -0.0908  0.4321
 4370TIP3    H134601   0.508   4.311  13.321  0.0268  0.8922  0.4772
 4370TIP3    H234602   0.412   4.243  13.417 -0.7403 -0.0485 -0.9432
 4371TIP3   OH234603   6.801   3.698   4.402  0.1810 -0.3898  0.0069
 4371TIP3    H134604   6.760   3.693   4.488 -0.4351 -1.8081 -0.3602
 4371TIP3    H234605   6.858   3.621   4.398  2.6061  1.3083  0.3404
 4372TIP3   OH234606   1.978   0.012   0.236  0.3825 -0.3012  0.3940
 4372TIP3    H134607   1.988   0.104   0.260  1.7305 -0.8499  2.0089
 4372TIP3    H234608   1.986   0.012   0.140  0.5429  1.2272  0.3867
 4373TIP3   OH234609   3.272   3.414   5.461 -0.2274 -0.0817 -0.0177
 4373TIP3    H134610   3.227   3.495   5.486  0.5044  0.0732  0.7997
 4373TIP3    H234611   3.206   3.346   5.473 -0.9501  0.4177 -1.0179
 4374TIP3   OH234612   2.399   0.517   1.084 -0.5362 -0.1299  0.2508
 4374TIP3    H134613   2.443   0.454   1.029 -0.0207  1.4606 -1.2083
 4374TIP3    H234614   2.470   0.570   1.122 -1.0515  0.9016 -0.2055
 4375TIP3   OH234615   4.674   1.097  10.466  0.2436 -0.4815  0.0997
 4375TIP3    H134616   4.669   1.128  10.556 -0.3748 -0.8646  0.2068
 4375TIP3    H234617   4.644   1.171  10.413 -3.0948 -1.4599  0.4849
 4376TIP3   OH234618   4.248   3.171  15.813  0.1299  0.0318 -0.2104
 4376TIP3    H134619   4.261   3.254  15.767 -1.7477 -0.3619 -1.5357
 4376TIP3    H234620   4.268   3.105  15.747  1.2715 -0.5600  0.7368
 4377TIP3   OH234621   4.717   6.631   4.298  0.2165 -0.2450  0.4995
 4377TIP3    H134622   4.734   6.714   4.253  1.7582  0.1176  1.6967
 4377TIP3    H234623   4.625   6.637   4.325 -0.5500 -0.2322 -2.0440
 4378TIP3   OH234624   6.426   0.750   2.929 -0.4155 -0.3388 -0.3246
 4378TIP3    H134625   6.353   0.693   2.902 -1.3448  0.6120  0.1481
 4378TIP3    H234626   6.497   0.689   2.950 -1.0091 -1.2706 -0.9611
 4379TIP3   OH234627   2.326   1.368  15.051  0.3394 -0.5644 -0.7565
 4379TIP3    H134628   2.236   1.402  15.051  0.6349  0.2496 -0.6408
 4379TIP3    H234629   2.374   1.431  15.106  1.4990  0.4313 -2.8430
 4380TIP3   OH234630   6.184   2.162   0.583 -0.2813 -0.0600 -0.2638
 4380TIP3    H134631   6.091   2.154   0.604 -0.6428  2.0988 -0.9123
 4380TIP3    H234632   6.187   2.221   0.508  1.6091 -0.2081 -0.3283
 4381TIP3   OH234633   4.395   2.651   6.181  0.7523  0.1332  0.2040
 4381TIP3    H134634   4.377   2.745   6.177  1.1548  0.1813 -0.7510
 4381TIP3    H234635   4.440   2.632   6.099  1.6097 -0.6994  0.8534
 4382TIP3   OH234636   3.116   1.546   5.047  0.1392  0.1556  0.7147
 4382TIP3    H134637   3.074   1.616   5.096  1.0603  0.2666  1.3734
 4382TIP3    H234638   3.198   1.584   5.015  0.2097 -0.3408  0.2937
 4383TIP3   OH234639   2.639   1.085   0.497 -0.4161  0.4921  0.3180
 4383TIP3    H134640   2.626   1.010   0.439  2.4230 -0.9603  1.4562
 4383TIP3    H234641   2.636   1.161   0.439  0.0445 -0.7627 -1.3903
 4384TIP3   OH234642   3.428   0.069   0.150  0.1981  0.1142 -0.0547
 4384TIP3    H134643   3.469   0.034   0.071  2.0528  0.4657  0.7378
 4384TIP3    H234644   3.381   0.147   0.120  2.5713  1.4188 -0.4822
 4385TIP3   OH234645   6.723   3.718   0.484 -0.2002 -0.0393  0.0440
 4385TIP3    H134646   6.704   3.694   0.393  1.0159  1.0032 -0.4889
 4385TIP3    H234647   6.809   3.682   0.502 -0.2175  0.2003  0.6333
 4386TIP3   OH234648   1.689   3.902   2.798  0.8281  0.0212 -0.2967
 4386TIP3    H134649   1.611   3.857   2.764  0.6072  0.6784 -0.6741
 4386TIP3    H234650   1.669   3.918   2.890  0.6774 -0.1589 -0.2966
 4387TIP3   OH234651   4.564   1.697  11.767 -0.6004  0.2912  0.0090
 4387TIP3    H134652   4.584   1.613  11.808  0.3269  1.5431  2.1552
 4387TIP3    H234653   4.471   1.712  11.786 -0.6825 -0.0849 -0.0975
 4388TIP3   OH234654   3.287   6.266  16.525  0.1065 -0.4455  0.0409
 4388TIP3    H134655   3.210   6.308  16.563  0.3532 -0.1052  0.1663
 4388TIP3    H234656   3.337   6.338  16.485  1.5890 -0.3130  2.0839
 4389TIP3   OH234657   3.358   0.867  16.458 -0.0436 -0.1566  0.6248
 4389TIP3    H134658   3.281   0.817  16.429 -0.0729  0.7408 -0.9140
 4389TIP3    H234659   3.321   0.946  16.497  0.0258 -0.9812  2.3858
 4390TIP3   OH234660   0.596   5.992   0.526 -0.8927 -0.0240 -0.0127
 4390TIP3    H134661   0.544   5.918   0.556 -0.1989  0.3480  2.1955
 4390TIP3    H234662   0.606   6.047   0.603  1.4204  0.7117 -0.8038
 4391TIP3   OH234663   4.779   1.063   5.281 -0.0912 -0.2452  0.0923
 4391TIP3    H134664   4.718   1.120   5.328  1.2343  0.8535  0.5048
 4391TIP3    H234665   4.837   1.028   5.349  1.2441  0.6090 -0.5782
 4392TIP3   OH234666   1.461   1.855  15.643  0.1892 -0.9273 -0.0120
 4392TIP3    H134667   1.393   1.845  15.576 -0.7828 -1.2853  1.0012
 4392TIP3    H234668   1.479   1.766  15.672  0.7288 -0.7901  0.0706
 4393TIP3   OH234669   1.634   4.070   5.835 -0.5086 -0.2838  0.1057
 4393TIP3    H134670   1.629   4.021   5.917  1.7632  0.5254  0.7646
 4393TIP3    H234671   1.666   4.007   5.771  1.0436 -0.0430  0.6344
 4394TIP3   OH234672   0.364   4.969   3.237  0.2410  0.2744  0.9171
 4394TIP3    H134673   0.397   5.027   3.306  0.0246  3.0372 -1.2241
 4394TIP3    H234674   0.279   4.940   3.268 -0.5330  2.7163  1.1741
 4395TIP3   OH234675   2.507   4.928   4.130 -0.1644  0.0117 -0.1610
 4395TIP3    H134676   2.423   4.918   4.084 -0.2050 -1.1207  0.1293
 4395TIP3    H234677   2.531   5.019   4.116 -1.5003  0.3790 -0.1639
 4396TIP3   OH234678   2.676   2.750   1.757  0.0301  0.0905  0.0261
 4396TIP3    H134679   2.646   2.659   1.757  1.9820 -0.5822  1.3211
 4396TIP3    H234680   2.607   2.797   1.803  0.3378 -1.2240  1.8986
 4397TIP3   OH234681   3.600   0.405   4.117  0.5392 -0.8021  0.1087
 4397TIP3    H134682   3.592   0.333   4.054  0.7385 -0.7288  0.0030
 4397TIP3    H234683   3.694   0.414   4.132  0.7067  1.3409 -2.0542
 4398TIP3   OH234684   4.283   2.935  13.279  0.0399 -0.0235  0.3401
 4398TIP3    H134685   4.229   3.013  13.290  0.3358  0.4054 -1.1319
 4398TIP3    H234686   4.267   2.883  13.358 -2.3892  0.1812  0.0085
 4399TIP3   OH234687   0.981   5.007   1.663  0.1619 -0.9384  0.4592
 4399TIP3    H134688   0.953   5.049   1.744 -1.1972 -0.0754 -0.4375
 4399TIP3    H234689   1.074   5.029   1.655 -0.1533  0.5868  0.8053
 4400TIP3   OH234690   1.586   1.577   2.309  0.6554 -0.3855 -0.1589
 4400TIP3    H134691   1.665   1.538   2.273 -0.4829 -2.7970 -0.1613
 4400TIP3    H234692   1.613   1.610   2.395  1.8689 -0.3557 -0.5407
 4401TIP3   OH234693   6.532   4.316  12.394  0.2375 -0.1875 -0.2348
 4401TIP3    H134694   6.554   4.409  12.400  2.1970 -0.7198  1.4742
 4401TIP3    H234695   6.477   4.300  12.471 -0.7846 -0.2689 -0.9781
 4402TIP3   OH234696   4.130   3.611   3.651 -0.0569  0.0727 -0.2180
 4402TIP3    H134697   4.098   3.701   3.647  0.4383  0.3093  0.9586
 4402TIP3    H234698   4.100   3.579   3.736 -0.4107 -0.9415 -0.7207
 4403TIP3   OH234699   0.980   4.436   4.273  0.0730  0.1203 -0.2250
 4403TIP3    H134700   0.992   4.364   4.211  1.2296 -0.1371  0.2659
 4403TIP3    H234701   0.896   4.475   4.250  0.1774 -0.3956 -1.5138
 4404TIP3   OH234702   4.496   2.755   4.721  0.5022 -0.1631  0.1842
 4404TIP3    H134703   4.522   2.667   4.696  0.7187 -0.0901  0.1535
 4404TIP3    H234704   4.493   2.803   4.638 -0.0228 -0.2469  0.1501
 4405TIP3   OH234705   1.747   0.545  16.235  0.4962 -0.3926  0.2462
 4405TIP3    H134706   1.764   0.538  16.329  1.8771  1.1047  0.1313
 4405TIP3    H234707   1.656   0.574  16.229 -0.0093 -1.7593  1.0788
 4406TIP3   OH234708   0.855   4.490  11.401  0.2153 -0.8352  0.4763
 4406TIP3    H134709   0.934   4.500  11.348 -0.6616 -2.7650 -1.2569
 4406TIP3    H234710   0.860   4.399  11.433 -1.6282 -1.2016 -0.2299
 4407TIP3   OH234711   1.836   3.952  13.385  1.1286  0.3383 -0.3685
 4407TIP3    H134712   1.803   4.036  13.352 -0.5065  1.1184  3.0802
 4407TIP3    H234713   1.925   3.970  13.414  2.0714 -0.0265 -2.8580
 4408TIP3   OH234714   3.036   0.218  17.107 -0.1491  0.2834  0.8201
 4408TIP3    H134715   3.084   0.287  17.062 -0.1718  0.4593  1.0651
 4408TIP3    H234716   3.019   0.254  17.195 -1.0347  0.3734  0.6235
 4409TIP3   OH234717   2.390   3.375  14.964  0.1206  0.4338 -0.2970
 4409TIP3    H134718   2.348   3.305  14.914 -0.9154  0.5811  0.3424
 4409TIP3    H234719   2.330   3.391  15.037 -0.5190  3.1591 -1.3603
 4410TIP3   OH234720   6.743   5.625   5.668  0.1726  0.0691  0.4512
 4410TIP3    H134721   6.816   5.666   5.621 -0.6528  1.5261  0.4185
 4410TIP3    H234722   6.771   5.623   5.759  0.5540 -0.0341  0.3327
 4411TIP3   OH234723   3.065   2.140   2.812  0.2237  0.3694 -0.5770
 4411TIP3    H134724   2.971   2.147   2.795  0.3140  2.1120 -0.4394
 4411TIP3    H234725   3.092   2.229   2.835  1.4967 -0.5024  1.5087
 4412TIP3   OH234726   2.068   3.525   1.993  0.4143  0.0114  0.1466
 4412TIP3    H134727   2.013   3.562   2.063 -1.1798 -0.4336 -0.8443
 4412TIP3    H234728   2.126   3.597   1.969 -0.1055  0.6822  0.8407
 4413TIP3   OH234729   1.517   3.432  11.038  0.0488 -0.5276  0.1997
 4413TIP3    H134730   1.601   3.400  11.003 -0.7255 -3.2654  0.6902
 4413TIP3    H234731   1.452   3.396  10.978 -0.8244  1.0675  0.1840
 4414TIP3   OH234732   4.984   5.823   6.020  0.2382 -0.6161 -0.7883
 4414TIP3    H134733   4.921   5.844   6.089  1.8348 -0.5451  0.7197
 4414TIP3    H234734   4.944   5.853   5.939 -1.0541  0.6752  0.3179
 4415TIP3   OH234735   4.371   2.870  11.253 -0.2537  0.8733 -0.8683
 4415TIP3    H134736   4.376   2.780  11.285 -1.6917  0.3125 -2.1652
 4415TIP3    H234737   4.442   2.876  11.188  0.5058  1.0010 -0.0339
 4416TIP3   OH234738   0.294   3.085  16.477  0.3184  0.4539 -0.1222
 4416TIP3    H134739   0.279   3.128  16.561 -0.9268  0.0026 -0.1070
 4416TIP3    H234740   0.311   3.157  16.416  3.6849  0.6695  0.9783
 4417TIP3   OH234741   3.333   6.621  15.107 -0.8036 -0.1824 -0.0193
 4417TIP3    H134742   3.272   6.652  15.040 -1.1321 -1.3548 -0.2720
 4417TIP3    H234743   3.328   6.525  15.102  0.0820 -0.2837  0.8482
 4418TIP3   OH234744   1.786   0.548  11.795 -0.1295 -0.0336  0.1516
 4418TIP3    H134745   1.833   0.481  11.843  1.8024  1.0887 -0.1145
 4418TIP3    H234746   1.808   0.531  11.703 -0.4059  0.3659  0.0108
 4419TIP3   OH234747   5.526   5.289   1.576  0.6475  0.8054  0.2522
 4419TIP3    H134748   5.558   5.281   1.665 -0.5816 -1.8610  0.5134
 4419TIP3    H234749   5.562   5.213   1.530 -0.9722  0.6295 -0.7784
 4420TIP3   OH234750   4.831   3.110   1.005 -0.0712  0.2339  0.1412
 4420TIP3    H134751   4.736   3.100   1.008 -0.0242 -0.7547 -0.9434
 4420TIP3    H234752   4.845   3.195   0.962 -0.4757 -0.2108 -0.9064
 4421TIP3   OH234753   4.833   3.590   0.358 -0.2008 -0.0358  0.2607
 4421TIP3    H134754   4.908   3.611   0.303 -1.9482  2.5938 -1.2882
 4421TIP3    H234755   4.869   3.577   0.445  2.2398 -0.8210 -0.8333
 4422TIP3   OH234756   3.332   1.719  12.853  0.4497  0.2591  0.0915
 4422TIP3    H134757   3.239   1.696  12.859  0.3149  1.1100  1.7435
 4422TIP3    H234758   3.374   1.666  12.921  1.0415  0.5271 -0.0600
 4423TIP3   OH234759   1.656   2.154   0.254  0.5306  0.1790  0.0245
 4423TIP3    H134760   1.626   2.145   0.345 -1.1940  2.4320 -0.2564
 4423TIP3    H234761   1.614   2.082   0.207  0.6631 -0.4265  0.8241
 4424TIP3   OH234762   4.997   6.814  13.103 -0.8963  0.3812  0.5038
 4424TIP3    H134763   5.081   6.824  13.147 -1.0168  1.0238  0.5948
 4424TIP3    H234764   4.956   6.739  13.146  0.8685 -1.8256 -1.5120
 4425TIP3   OH234765   6.522   4.065   6.561  0.0368  0.2345  0.2510
 4425TIP3    H134766   6.550   4.148   6.522  1.0225  0.2738  0.9990
 4425TIP3    H234767   6.427   4.066   6.555  0.0192  1.5910  0.5611
 4426TIP3   OH234768   2.387   0.928  16.955 -0.4202 -0.7135 -0.3229
 4426TIP3    H134769   2.361   1.019  16.941 -2.0263 -1.0033  0.6309
 4426TIP3    H234770   2.391   0.918  17.050 -0.7101 -1.7449 -0.4071
 4427TIP3   OH234771   4.601   1.455  12.786  0.5217  0.1867 -0.3330
 4427TIP3    H134772   4.550   1.525  12.745 -0.3978  0.3307  1.0272
 4427TIP3    H234773   4.651   1.499  12.855 -0.0327 -0.4713  0.5000
 4428TIP3   OH234774   3.427   3.891  11.412 -0.5531 -0.1479  0.1352
 4428TIP3    H134775   3.437   3.979  11.375  0.3816 -0.4450 -0.3417
 4428TIP3    H234776   3.332   3.878  11.418 -0.7591 -0.3277 -2.7626
 4429TIP3   OH234777   6.402   1.739  11.223 -0.2704  0.4408 -0.5460
 4429TIP3    H134778   6.399   1.660  11.169  0.7411 -1.2973  1.8349
 4429TIP3    H234779   6.495   1.750  11.244 -0.7610  0.2617  1.9102
 4430TIP3   OH234780   0.276   6.528  16.818 -0.6784  0.9029  0.3279
 4430TIP3    H134781   0.194   6.529  16.769 -0.5586 -0.7732  0.0701
 4430TIP3    H234782   0.249   6.531  16.910 -1.1417 -1.5915  0.3175
 4431TIP3   OH234783   4.275   3.403  15.654  0.6351  0.3828  0.6634
 4431TIP3    H134784   4.182   3.400  15.631  0.4593  0.8926  1.2844
 4431TIP3    H234785   4.318   3.436  15.575  0.2084  0.7962  0.6006
 4432TIP3   OH234786   1.705   5.982  10.964  0.6974  0.1909  0.9244
 4432TIP3    H134787   1.625   6.018  10.925  1.3498  1.1319  0.4173
 4432TIP3    H234788   1.674   5.913  11.023 -0.5184  0.8541  1.0904
 4433TIP3   OH234789   4.100   4.806  10.836 -0.3025  0.5459 -0.1583
 4433TIP3    H134790   4.119   4.767  10.750  3.8894  2.6136 -0.2662
 4433TIP3    H234791   4.161   4.763  10.896 -1.0571  1.3522  1.2187
 4434TIP3   OH234792   0.507   6.586   2.884  0.1032 -0.5236 -0.5292
 4434TIP3    H134793   0.572   6.654   2.869  0.1734 -0.5187 -0.2102
 4434TIP3    H234794   0.423   6.627   2.863  0.1258 -0.2774 -0.1330
 4435TIP3   OH234795   4.648   5.586  11.391  0.4455 -0.2225 -0.2468
 4435TIP3    H134796   4.651   5.493  11.369  1.2184 -0.3186  0.2584
 4435TIP3    H234797   4.559   5.600  11.424  0.1776 -0.6792 -0.7625
 4436TIP3   OH234798   2.006   2.381   0.328 -0.1921  0.0044 -0.1565
 4436TIP3    H134799   1.976   2.299   0.289 -0.2423 -0.8585  1.6485
 4436TIP3    H234800   1.936   2.406   0.389  1.1034 -0.1312  1.4211
 4437TIP3   OH234801   1.446   3.298   3.543 -0.1896  0.3068  0.2614
 4437TIP3    H134802   1.366   3.249   3.526 -0.4153  0.3547  1.1276
 4437TIP3    H234803   1.498   3.241   3.599 -0.3850  0.9801  1.1476
 4438TIP3   OH234804   2.880   6.122   4.019  0.4491 -0.1717 -0.1481
 4438TIP3    H134805   2.802   6.097   3.970  0.9368 -1.9996 -0.0136
 4438TIP3    H234806   2.847   6.180   4.088 -0.6082  0.1447 -0.9122
 4439TIP3   OH234807   0.371   3.398   2.063 -0.4157  0.2086  0.3925
 4439TIP3    H134808   0.440   3.415   1.999 -0.5848  2.4992  0.7655
 4439TIP3    H234809   0.417   3.397   2.147 -0.3363 -1.8379  0.3470
 4440TIP3   OH234810   0.172   1.143  14.891  0.2973  0.2516  0.0424
 4440TIP3    H134811   0.125   1.061  14.901  2.0635 -0.8816 -0.7519
 4440TIP3    H234812   0.143   1.177  14.806 -0.7461  0.6480  0.5627
 4441TIP3   OH234813   2.084   0.537  14.447 -0.3507 -0.2859  0.0661
 4441TIP3    H134814   2.131   0.457  14.469 -0.1206 -0.3069 -0.4965
 4441TIP3    H234815   2.080   0.586  14.529  0.6253 -0.2972  0.1163
 4442TIP3   OH234816   1.724   1.683   5.632  0.3368  0.6160 -0.3585
 4442TIP3    H134817   1.649   1.697   5.573  0.2945 -0.6619 -0.6217
 4442TIP3    H234818   1.719   1.590   5.655  1.8619  0.5272 -0.3813
 4443TIP3   OH234819   6.436   2.196  11.220  0.0104  0.2987  0.0053
 4443TIP3    H134820   6.367   2.137  11.190 -0.3095  0.6382  0.0693
 4443TIP3    H234821   6.444   2.261  11.150  0.2655  0.2576 -0.0028
 4444TIP3   OH234822   5.260   5.105  14.515  0.4916 -0.0746  0.0797
 4444TIP3    H134823   5.292   5.091  14.426  0.1684 -0.5065  0.0275
 4444TIP3    H234824   5.335   5.141  14.563  1.2599 -1.6820  0.1226
 4445TIP3   OH234825   4.141   5.213  15.768 -0.4357  0.2184  0.3778
 4445TIP3    H134826   4.093   5.293  15.745  1.4547  2.0366  2.5252
 4445TIP3    H234827   4.159   5.171  15.684 -2.4478  1.4344 -0.7196
 4446TIP3   OH234828   3.794   0.491   0.241 -0.1228 -0.3316  0.2863
 4446TIP3    H134829   3.780   0.514   0.333 -0.7596 -1.5798  0.5179
 4446TIP3    H234830   3.885   0.464   0.237 -0.4209 -1.4911  0.8395
 4447TIP3   OH234831   4.402   4.395  15.682 -0.1746  0.1955 -0.4070
 4447TIP3    H134832   4.417   4.354  15.767 -0.5535 -0.1649 -0.5139
 4447TIP3    H234833   4.481   4.376  15.632 -1.2548 -2.3250 -1.2223
 4448TIP3   OH234834   5.447   4.427   3.628 -0.1991 -0.4686  1.1032
 4448TIP3    H134835   5.473   4.356   3.569 -1.6791 -1.0420  1.1159
 4448TIP3    H234836   5.528   4.452   3.673  0.4247 -1.8572  0.7869
 4449TIP3   OH234837   0.797   5.761   1.542 -0.2065  0.0154  0.0277
 4449TIP3    H134838   0.720   5.725   1.497 -0.5976  2.5784 -1.4599
 4449TIP3    H234839   0.872   5.721   1.497 -0.6387 -0.3771 -0.3513
 4450TIP3   OH234840   1.187   1.158  15.476 -0.5864  0.1870 -1.1094
 4450TIP3    H134841   1.105   1.161  15.525 -0.8054 -0.8215 -1.3963
 4450TIP3    H234842   1.161   1.134  15.387  0.0665 -0.6088 -1.0867
 4451TIP3   OH234843   6.223   5.995  12.729  0.2813  0.4126  0.5084
 4451TIP3    H134844   6.186   6.081  12.749 -1.0350  0.4616 -1.9491
 4451TIP3    H234845   6.317   6.010  12.725  0.0668  1.7339  0.1728
 4452TIP3   OH234846   1.502   4.143  15.525 -0.6186  0.1408 -0.2346
 4452TIP3    H134847   1.479   4.232  15.551 -0.0188  0.8552 -2.0159
 4452TIP3    H234848   1.595   4.136  15.544 -0.5449  0.0977 -0.5980
 4453TIP3   OH234849   5.323   2.443  14.855  0.3122  0.4758  0.2438
 4453TIP3    H134850   5.230   2.443  14.832  0.0580 -1.1080  1.2061
 4453TIP3    H234851   5.324   2.441  14.950  1.3495 -0.1734  0.2225
 4454TIP3   OH234852   5.526   5.994  11.478 -0.7564 -0.0024  0.0340
 4454TIP3    H134853   5.459   5.928  11.491 -0.6418  0.2214  1.7805
 4454TIP3    H234854   5.509   6.028  11.389 -1.3973 -1.6787 -0.4931
 4455TIP3   OH234855   2.879   0.534   3.399 -0.6493 -0.7317 -0.3718
 4455TIP3    H134856   2.823   0.572   3.466 -2.9602 -0.7568 -2.2252
 4455TIP3    H234857   2.965   0.525   3.441 -2.2547 -1.6345  2.8558
 4456TIP3   OH234858   2.417   6.717  17.230 -0.1036  0.8591 -0.5622
 4456TIP3    H134859   2.414   6.622  17.221  0.3783  0.5102  2.3213
 4456TIP3    H234860   2.329   6.742  17.257  0.1410  1.0297  0.1026
 4457TIP3   OH234861   5.827   4.109   1.962 -0.0987  0.4420 -0.4415
 4457TIP3    H134862   5.763   4.179   1.973  0.1241  0.3633  1.5974
 4457TIP3    H234863   5.868   4.101   2.048 -0.0394 -2.1062 -0.6736
 4458TIP3   OH234864   0.286   6.463   4.010 -0.1568  0.2684 -0.2908
 4458TIP3    H134865   0.201   6.427   3.983 -0.6707 -0.4611  2.1683
 4458TIP3    H234866   0.350   6.408   3.967 -0.9484 -0.5577 -0.4247
 4459TIP3   OH234867   1.298   5.554   2.111  0.6917 -0.1595  0.0958
 4459TIP3    H134868   1.223   5.605   2.080  1.5996  0.6113 -0.8632
 4459TIP3    H234869   1.261   5.469   2.135 -0.2315 -0.3589 -1.9595
 4460TIP3   OH234870   4.671   1.577   3.241  0.0635 -0.5595  0.4585
 4460TIP3    H134871   4.629   1.642   3.185 -0.0809  0.5298  1.7793
 4460TIP3    H234872   4.736   1.626   3.291 -0.8201 -1.1689  2.2936
 4461TIP3   OH234873   1.123   2.634   5.534  0.4091  0.0132  0.0331
 4461TIP3    H134874   1.068   2.675   5.600  0.8623  0.8400 -0.0987
 4461TIP3    H234875   1.148   2.550   5.573  0.2508  0.2705  0.6983
 4462TIP3   OH234876   5.766   2.458   5.593 -0.1910  0.3011  0.3966
 4462TIP3    H134877   5.764   2.368   5.561  0.2143  0.5057 -0.2167
 4462TIP3    H234878   5.778   2.450   5.687 -0.1533 -0.2883  0.3426
 4463TIP3   OH234879   3.402   5.442  13.163  0.4338  0.4297 -0.4320
 4463TIP3    H134880   3.471   5.433  13.097  0.5065 -0.0980 -0.2789
 4463TIP3    H234881   3.447   5.438  13.247  0.3869  1.4785 -0.3419
 4464TIP3   OH234882   1.661   3.045   0.009  0.1536 -0.8506 -0.2499
 4464TIP3    H134883   1.612   3.102   0.068  1.1279  0.9745 -1.1550
 4464TIP3    H234884   1.667   2.961   0.055  1.7195  0.7967  2.6606
 4465TIP3   OH234885   5.053   1.517   6.148 -0.5798  0.0845 -0.2591
 4465TIP3    H134886   5.052   1.422   6.141 -1.0001  0.0423  0.3405
 4465TIP3    H234887   5.056   1.535   6.242  0.8811  0.6633 -0.4079
 4466TIP3   OH234888   2.659   6.221  16.431  0.0960 -0.5779  0.3121
 4466TIP3    H134889   2.568   6.246  16.446  0.5231  0.2784  1.5243
 4466TIP3    H234890   2.691   6.285  16.368  0.3409  0.1212  1.1539
 4467TIP3   OH234891   0.217   3.624   5.225  0.3553 -0.5484 -0.4769
 4467TIP3    H134892   0.179   3.636   5.312 -1.0697  0.8510 -1.2688
 4467TIP3    H234893   0.304   3.663   5.231 -1.2487  3.2362 -0.7688
 4468TIP3   OH234894   0.011   6.216   1.871 -0.5034  0.1644 -0.1948
 4468TIP3    H134895  -0.069   6.196   1.821 -0.8834 -2.3898  1.3218
 4468TIP3    H234896   0.082   6.196   1.810 -0.9814 -1.5690 -0.2267
 4469TIP3   OH234897   0.339   3.425   4.738  0.1510 -0.1280 -0.4579
 4469TIP3    H134898   0.326   3.331   4.753  0.1734 -0.0977 -0.2584
 4469TIP3    H234899   0.364   3.461   4.823  0.5718 -0.0131 -0.6275
 4470TIP3   OH234900   0.722   2.416  13.070  0.4196 -1.1442 -0.6196
 4470TIP3    H134901   0.667   2.395  12.994 -1.4006  0.9247  0.1007
 4470TIP3    H234902   0.762   2.500  13.048  0.3032 -0.8025  0.4687
 4471TIP3   OH234903   5.438   2.685  12.444 -0.4553 -0.6638 -0.0515
 4471TIP3    H134904   5.487   2.608  12.475 -0.6684 -0.4578  0.7978
 4471TIP3    H234905   5.349   2.652  12.431 -0.0176 -1.1383 -1.9832
 4472TIP3   OH234906   0.581   5.153   5.047  0.0539  0.2627 -0.5510
 4472TIP3    H134907   0.670   5.135   5.018  0.9912  1.8371  1.2444
 4472TIP3    H234908   0.586   5.152   5.143 -1.7937  0.6256 -0.4288
 4473TIP3   OH234909   6.741   3.129  11.561 -0.3280 -0.5993  0.0197
 4473TIP3    H134910   6.688   3.098  11.634  0.1998 -1.9118 -0.1378
 4473TIP3    H234911   6.709   3.218  11.544 -1.4770 -0.8413  0.8566
 4474TIP3   OH234912   1.039   2.941   1.639 -0.5284 -0.0170 -0.0894
 4474TIP3    H134913   1.045   3.036   1.647  1.8811 -0.1121 -0.4517
 4474TIP3    H234914   1.101   2.907   1.703  0.5203 -1.2755 -1.7220
 4475TIP3   OH234915   1.710   0.678   6.264 -0.1828  0.0301 -0.3789
 4475TIP3    H134916   1.746   0.591   6.282  0.0932  0.0807 -0.6640
 4475TIP3    H234917   1.622   0.676   6.300 -0.5811 -0.7407 -1.3784
 4476TIP3   OH234918   3.253   1.806   6.315  0.8526 -0.4497  0.3824
 4476TIP3    H134919   3.224   1.854   6.392 -0.0076 -1.0653  0.4496
 4476TIP3    H234920   3.307   1.735   6.349 -1.0859 -1.8727  0.5800
 4477TIP3   OH234921   6.022   2.467  14.243  0.2473  0.1582 -0.7402
 4477TIP3    H134922   5.938   2.437  14.210  0.3303 -1.9635  0.8539
 4477TIP3    H234923   6.078   2.472  14.166 -1.0598  0.6845 -1.6712
 4478TIP3   OH234924   3.095   0.960  12.827 -0.1288 -0.6149  0.3566
 4478TIP3    H134925   3.091   0.920  12.740  1.5934  0.6769 -0.3545
 4478TIP3    H234926   3.008   0.945  12.864 -1.0702 -0.7115 -1.8027
 4479TIP3   OH234927   5.186   4.767  13.385 -0.2878  0.0169 -0.0089
 4479TIP3    H134928   5.197   4.859  13.360 -0.6041 -0.2748 -1.2600
 4479TIP3    H234929   5.092   4.751  13.372 -0.0135 -0.8165 -0.9472
 4480TIP3   OH234930   2.939   6.087  13.536  0.2196 -0.6356 -0.0892
 4480TIP3    H134931   2.945   6.044  13.622  1.7712  0.7241  0.4953
 4480TIP3    H234932   2.899   6.020  13.479  0.9039 -2.2051  1.2305
 4481TIP3   OH234933   6.701   6.615   0.618  0.1691 -0.4230  0.4588
 4481TIP3    H134934   6.691   6.699   0.573 -0.8769 -0.4117  0.7040
 4481TIP3    H234935   6.772   6.571   0.571  0.6421  0.5417  0.2543
 4482TIP3   OH234936   1.091   4.045   0.441  0.4722 -0.2219 -0.3001
 4482TIP3    H134937   1.070   4.113   0.376  0.7085 -0.5335 -0.7098
 4482TIP3    H234938   1.094   3.964   0.390  0.8714 -0.4414  0.0672
 4483TIP3   OH234939   5.959   5.055  15.791  0.5607 -0.8897 -0.2057
 4483TIP3    H134940   5.956   4.960  15.784  1.2002 -0.9456  0.3053
 4483TIP3    H234941   5.870   5.083  15.767  0.8042 -1.5091 -1.9186
 4484TIP3   OH234942   3.859   1.747  15.710 -0.6176 -0.4472 -0.8010
 4484TIP3    H134943   3.852   1.809  15.637 -1.2752 -0.0034 -0.3768
 4484TIP3    H234944   3.918   1.790  15.772 -0.2424 -0.7190 -0.9730
 4485TIP3   OH234945   1.953   3.800   3.236 -0.6911  0.1997  0.2434
 4485TIP3    H134946   1.911   3.780   3.152  1.3852 -1.1571 -0.5224
 4485TIP3    H234947   1.940   3.894   3.248 -1.4470  0.3159 -1.3667
 4486TIP3   OH234948   0.029   4.500  15.328  0.2421 -0.1327 -0.0245
 4486TIP3    H134949   0.051   4.570  15.267 -0.0126 -0.5140 -0.5622
 4486TIP3    H234950   0.097   4.433  15.315  0.4175 -0.0417  0.4008
 4487TIP3   OH234951   2.769   0.375   2.344  0.0886  0.6921  0.0939
 4487TIP3    H134952   2.771   0.349   2.252  1.7023  1.0184  0.0191
 4487TIP3    H234953   2.709   0.449   2.348  0.3359  0.9381 -0.7654
 4488TIP3   OH234954   0.810   3.723   5.130 -0.0750  0.1575 -0.1460
 4488TIP3    H134955   0.850   3.782   5.194  1.1938  0.3103 -1.0504
 4488TIP3    H234956   0.785   3.780   5.057  0.6974 -0.3244 -0.8044
 4489TIP3   OH234957   5.737   5.800   3.649 -0.9097  0.6588 -0.3750
 4489TIP3    H134958   5.758   5.849   3.569  3.8128 -0.8082 -0.1827
 4489TIP3    H234959   5.755   5.860   3.720 -0.0563  0.3150 -0.2929
 4490TIP3   OH234960   4.005   0.094  16.724 -0.6876  0.3607  0.2295
 4490TIP3    H134961   4.095   0.079  16.751 -1.3941 -0.4744  2.2227
 4490TIP3    H234962   3.956   0.021  16.762 -2.0621  0.2876 -1.6240
 4491TIP3   OH234963   0.103   5.230  15.405 -0.0473 -0.1571  0.6629
 4491TIP3    H134964   0.055   5.182  15.472 -1.0037  0.1357  0.1926
 4491TIP3    H234965   0.193   5.198  15.412 -0.4308 -1.1302  1.1573
 4492TIP3   OH234966   2.681   3.400   0.145  0.1299 -0.0061 -0.3068
 4492TIP3    H134967   2.716   3.374   0.230 -1.0868 -2.3412 -0.4690
 4492TIP3    H234968   2.589   3.421   0.162  0.0769  0.2938 -0.9242
 4493TIP3   OH234969   5.000   1.549   1.039 -0.3609 -0.7173 -0.0848
 4493TIP3    H134970   5.011   1.460   1.071  0.2006 -0.6752 -0.1484
 4493TIP3    H234971   5.086   1.572   1.004 -0.5626 -0.2272 -0.2566
 4494TIP3   OH234972   6.585   5.460  14.713 -0.2268  0.3814  0.1968
 4494TIP3    H134973   6.495   5.459  14.682 -1.2262 -0.8355  2.9602
 4494TIP3    H234974   6.580   5.495  14.802  1.8147 -1.1711  0.9805
 4495TIP3   OH234975   6.798   1.776  17.162 -0.3286 -0.1877 -0.2100
 4495TIP3    H134976   6.852   1.727  17.225 -1.1155 -0.8890 -0.0838
 4495TIP3    H234977   6.714   1.730  17.162 -0.3445 -0.1698 -1.7483
 4496TIP3   OH234978   5.284   1.144  15.279  0.0375  0.2775  0.3634
 4496TIP3    H134979   5.255   1.225  15.239 -0.3942  0.7303  1.5518
 4496TIP3    H234980   5.377   1.137  15.255 -0.2726  0.4234 -0.8652
 4497TIP3   OH234981   4.148   0.781  15.801 -0.0719 -0.6131 -0.3342
 4497TIP3    H134982   4.162   0.802  15.894 -0.5635  0.3677 -0.4741
 4497TIP3    H234983   4.233   0.797  15.760  0.3860 -1.9104  0.0990
 4498TIP3   OH234984   5.047   2.516   0.618  0.1152  0.6650  0.0497
 4498TIP3    H134985   5.138   2.488   0.630  0.4744  2.2087  1.0411
 4498TIP3    H234986   5.041   2.542   0.526  0.2238 -0.9664 -0.4431
 4499TIP3   OH234987   1.349   3.576  13.164  0.5340  0.1755  0.0784
 4499TIP3    H134988   1.381   3.506  13.221 -1.2861 -2.0540 -1.5249
 4499TIP3    H234989   1.257   3.585  13.186  0.7760  2.1828  0.3366
 4500TIP3   OH234990   0.562   6.222   5.134 -0.3516  0.1625  0.1160
 4500TIP3    H134991   0.562   6.167   5.055  0.9747  1.4306 -0.8056
 4500TIP3    H234992   0.631   6.185   5.189 -0.3211  0.1325  0.0575
 4501TIP3   OH234993   6.683   6.514   2.773 -0.2300 -0.1596 -0.0505
 4501TIP3    H134994   6.680   6.604   2.804 -0.4681  0.5753 -2.0959
 4501TIP3    H234995   6.603   6.474   2.806  1.3747 -0.5935  3.5609
 4502TIP3   OH234996   5.616   2.014  13.130  0.2099  0.0908  0.1208
 4502TIP3    H134997   5.522   2.009  13.110  0.0503 -0.7420  1.0615
 4502TIP3    H234998   5.623   2.091  13.186 -0.5055 -2.0503  3.2402
 4503TIP3   OH234999   0.351   2.406   0.237  0.0301 -0.1674  0.6490
 4503TIP3    H135000   0.376   2.449   0.155 -0.9901  2.4961  1.6831
 4503TIP3    H235001   0.256   2.416   0.241  0.0466 -0.5443  2.0386
 4504TIP3   OH235002   6.007   0.972   2.633  0.2257  0.4523  0.1930
 4504TIP3    H135003   5.957   1.025   2.695  1.4908  2.8655 -0.7796
 4504TIP3    H235004   6.074   0.929   2.685  0.2977  1.2167  0.7310
 4505TIP3   OH235005   6.561   6.183  14.269 -0.1658  0.3163  0.5246
 4505TIP3    H135006   6.564   6.093  14.236 -1.2464  0.9322 -1.3854
 4505TIP3    H235007   6.506   6.178  14.347  0.5873 -0.8357  0.9944
 4506TIP3   OH235008   3.652   2.843   4.148  0.1326 -0.1271 -0.7005
 4506TIP3    H135009   3.707   2.764   4.148  1.1256  0.5597 -0.7036
 4506TIP3    H235010   3.695   2.902   4.086 -0.7588  0.3252 -0.8961
 4507TIP3   OH235011   6.809   2.466  11.052  0.1746  0.1293 -0.5195
 4507TIP3    H135012   6.741   2.507  10.999  0.0691 -0.6617 -1.0053
 4507TIP3    H235013   6.890   2.478  11.001  0.2076  0.0668 -0.4821
 4508TIP3   OH235014   6.409   0.434  12.589  0.2673 -0.5046 -0.0245
 4508TIP3    H135015   6.320   0.451  12.556 -0.0220 -1.0581  0.4631
 4508TIP3    H235016   6.404   0.346  12.627  0.1159  0.7940  3.1198
 4509TIP3   OH235017   3.905   6.015  11.803  0.2433  0.1435 -0.4394
 4509TIP3    H135018   3.911   6.110  11.797  0.3184  0.1043 -0.9654
 4509TIP3    H235019   3.917   5.996  11.896  1.4204  0.5546 -0.5028
 4510TIP3   OH235020   3.994   4.182   5.371  0.2095 -0.2892  0.0139
 4510TIP3    H135021   3.974   4.171   5.464  1.6287  0.6383  0.4388
 4510TIP3    H235022   3.989   4.276   5.356 -0.8017 -0.4881 -1.0525
 4511TIP3   OH235023   0.091   6.721  12.063  0.2203  0.2221  0.5899
 4511TIP3    H135024   0.050   6.639  12.092 -0.7539  0.9163  1.2105
 4511TIP3    H235025   0.021   6.769  12.019  0.8260  0.6661  0.0905
 4512TIP3   OH235026   6.601   3.468   6.549 -0.3025  1.0962 -0.0251
 4512TIP3    H135027   6.530   3.522   6.585 -0.3776  1.5449 -0.8264
 4512TIP3    H235028   6.680   3.501   6.592 -0.7418 -0.4643  2.0713
 4513TIP3   OH235029   2.681   0.214  16.913  0.2992  0.1800  0.2493
 4513TIP3    H135030   2.664   0.130  16.957  1.0549 -0.2348 -0.2316
 4513TIP3    H235031   2.745   0.192  16.845 -0.5256  0.9001 -0.7689
 4514TIP3   OH235032   1.029   0.227  14.715  0.1088  0.2287  0.9160
 4514TIP3    H135033   1.038   0.224  14.810  1.0665 -2.1208  0.7894
 4514TIP3    H235034   1.120   0.232  14.683 -0.1491 -0.0661  0.1215
 4515TIP3   OH235035   4.687   4.837  15.838 -0.0360 -0.2943 -0.3175
 4515TIP3    H135036   4.680   4.830  15.933  0.6907  1.5239 -0.1229
 4515TIP3    H235037   4.767   4.789  15.816 -0.2032 -0.7140 -0.0136
 4516TIP3   OH235038   2.857   0.653   2.871  0.1191  0.4131  0.4683
 4516TIP3    H135039   2.821   0.742   2.866  0.4086  0.5020 -0.0536
 4516TIP3    H235040   2.887   0.645   2.962 -1.7639  0.1236  1.0852
 4517TIP3   OH235041   4.057   0.973  16.265 -0.2110  0.5934  0.0214
 4517TIP3    H135042   4.065   0.922  16.185 -0.1569  0.8005 -0.1063
 4517TIP3    H235043   4.009   0.916  16.325  1.8196 -0.5218  0.6493
 4518TIP3   OH235044   2.355   1.517   4.908 -0.2161 -0.1085 -0.0229
 4518TIP3    H135045   2.281   1.545   4.853 -0.7417 -0.4777  0.4942
 4518TIP3    H235046   2.420   1.484   4.845 -0.8941 -0.7091 -0.4119
 4519TIP3   OH235047   2.737   4.051   5.536  0.0907 -1.4287  0.2139
 4519TIP3    H135048   2.692   4.128   5.571  0.2742 -1.2616  0.0859
 4519TIP3    H235049   2.711   4.047   5.444 -1.1973 -2.4552  0.5992
 4520TIP3   OH235050   1.644   0.493  10.056 -0.1238 -0.1987 -0.2044
 4520TIP3    H135051   1.589   0.488  10.134 -0.6088  1.6482 -0.4107
 4520TIP3    H235052   1.733   0.498  10.091 -0.3217  0.3497  0.2312
 4521TIP3   OH235053   0.364   2.858  16.956 -0.5540 -0.7745 -0.1948
 4521TIP3    H135054   0.398   2.938  16.915 -1.2810 -0.6032 -0.4677
 4521TIP3    H235055   0.374   2.790  16.889  2.5622 -1.5336  0.9486
 4522TIP3   OH235056   1.310   1.463   3.266  0.0626 -0.0096  0.1350
 4522TIP3    H135057   1.378   1.445   3.200 -0.1552 -0.1709 -0.0506
 4522TIP3    H235058   1.237   1.406   3.240 -0.2750  0.4272  0.1247
 4523TIP3   OH235059   4.493   6.731   4.046  0.0468  0.2618 -0.3843
 4523TIP3    H135060   4.572   6.681   4.026 -0.2856 -0.7747  0.8947
 4523TIP3    H235061   4.524   6.805   4.099  0.4751  1.2049 -1.9094
 4524TIP3   OH235062   6.047   2.125   3.066  0.4648  0.3921  0.5225
 4524TIP3    H135063   5.998   2.051   3.102  0.4940  0.7435  1.3111
 4524TIP3    H235064   6.139   2.104   3.084  0.4324  0.9324  1.3897
 4525TIP3   OH235065   0.205   2.967   6.010  1.0884 -0.2468 -0.9865
 4525TIP3    H135066   0.181   2.876   6.030  0.1198  0.0848 -0.6160
 4525TIP3    H235067   0.264   2.991   6.081 -0.5066  0.1632  0.2275
 4526TIP3   OH235068   4.076   3.065   0.808 -0.1518  0.0422  0.3822
 4526TIP3    H135069   4.024   3.088   0.886 -1.6661 -0.1962 -0.5306
 4526TIP3    H235070   4.165   3.056   0.841 -0.6633  0.5511  1.9864
 4527TIP3   OH235071   6.043   5.662   3.014 -0.0737  0.0128  0.5304
 4527TIP3    H135072   5.954   5.681   2.986 -0.3457  2.1457  2.7068
 4527TIP3    H235073   6.096   5.673   2.935 -1.4681  0.6213 -0.3363
 4528TIP3   OH235074   3.541   3.192   1.503 -0.2675 -0.3280 -0.6529
 4528TIP3    H135075   3.579   3.121   1.452  0.0370 -0.4344 -0.2852
 4528TIP3    H235076   3.448   3.171   1.510  0.0357 -1.3403  0.5047
 4529TIP3   OH235077   6.713   4.506   5.831 -0.2899 -0.3226  0.3854
 4529TIP3    H135078   6.760   4.441   5.779 -0.4060  0.0320 -0.1685
 4529TIP3    H235079   6.637   4.529   5.777 -0.4956 -0.0711  0.7836
 4530TIP3   OH235080   4.906   3.157  15.268  0.1154 -0.1517  0.0085
 4530TIP3    H135081   4.856   3.228  15.228 -1.1452  0.2788  2.2568
 4530TIP3    H235082   4.998   3.186  15.260 -0.3322  1.3831  0.2226
 4531TIP3   OH235083   5.583   0.613   5.538 -0.3486  0.0633 -0.4171
 4531TIP3    H135084   5.530   0.538   5.508  0.6536 -0.5700 -0.6239
 4531TIP3    H235085   5.598   0.596   5.631 -0.4824  0.2350 -0.3627
 4532TIP3   OH235086   1.930   1.750   2.184  0.3128 -0.9398 -0.7030
 4532TIP3    H135087   1.889   1.824   2.140  0.1800  0.7364  2.1481
 4532TIP3    H235088   2.017   1.744   2.145  0.0844  0.3073 -1.4210
 4533TIP3   OH235089   4.874   4.984   5.280  0.0496  0.1565 -0.1417
 4533TIP3    H135090   4.890   4.932   5.359 -2.4172 -0.5663 -0.0886
 4533TIP3    H235091   4.811   4.933   5.230  0.8158  1.1002 -2.1132
 4534TIP3   OH235092   3.121   4.399   2.625 -0.7504 -0.4542 -0.4141
 4534TIP3    H135093   3.084   4.442   2.702 -0.5195 -1.0590  0.0385
 4534TIP3    H235094   3.084   4.447   2.550  0.8963  1.6387  0.1013
 4535TIP3   OH235095   6.426   2.924   2.330  0.4985 -0.1489  0.0998
 4535TIP3    H135096   6.375   2.903   2.409  2.4805  1.6294  1.9101
 4535TIP3    H235097   6.397   2.859   2.266 -2.9126 -0.1666  1.5123
 4536TIP3   OH235098   5.480   3.870  11.682 -0.1409  0.0055 -0.4232
 4536TIP3    H135099   5.442   3.791  11.642  1.9419 -1.3231  0.1588
 4536TIP3    H235100   5.447   3.870  11.771  0.5403 -0.6978 -0.1647
 4537TIP3   OH235101   6.249   5.434   2.164 -0.4280 -0.1238  0.3687
 4537TIP3    H135102   6.186   5.466   2.229 -1.4702  1.7333 -1.4921
 4537TIP3    H235103   6.217   5.348   2.140 -0.0599 -0.8124  2.2638
 4538TIP3   OH235104   1.127   5.903   6.016  0.7063 -0.7647  0.7483
 4538TIP3    H135105   1.111   5.827   5.960  1.0486 -0.6817  0.5349
 4538TIP3    H235106   1.175   5.868   6.091  0.1532 -0.8944  1.0427
 4539TIP3   OH235107   0.201   3.006  14.328  0.5721  0.5514 -0.0642
 4539TIP3    H135108   0.224   2.913  14.323 -3.7964 -0.6559  0.1718
 4539TIP3    H235109   0.144   3.021  14.252 -1.9225  2.0225  2.0268
 4540TIP3   OH235110   0.205   5.011   5.250 -0.2014  0.0632 -0.3330
 4540TIP3    H135111   0.163   5.003   5.336 -0.0610  0.8432 -0.1883
 4540TIP3    H235112   0.136   4.988   5.188 -0.7210  0.8993 -0.0760
 4541TIP3   OH235113   1.642   5.220   1.665 -0.2033 -0.3012  0.2966
 4541TIP3    H135114   1.729   5.197   1.696  0.4331  1.1110 -0.3765
 4541TIP3    H235115   1.656   5.297   1.609 -1.8685 -0.0904  0.1386
 4542TIP3   OH235116   1.714   0.959  10.945 -0.0710 -0.0357 -0.3929
 4542TIP3    H135117   1.632   0.991  10.982  0.1934 -0.7700  0.8751
 4542TIP3    H235118   1.770   1.036  10.940 -0.0787  0.0662  0.8510
 4543TIP3   OH235119   5.633   2.049   1.916 -0.5179  0.0435 -0.1205
 4543TIP3    H135120   5.648   2.128   1.865  1.1397  0.8088  1.4712
 4543TIP3    H235121   5.545   2.060   1.953 -0.6496  0.7184 -0.6362
 4544TIP3   OH235122   4.696   2.950   0.464 -0.0773  0.4735 -0.4663
 4544TIP3    H135123   4.712   2.962   0.370  2.0113  0.8282 -0.0822
 4544TIP3    H235124   4.746   2.872   0.487 -1.9996 -0.6504  0.0108
 4545TIP3   OH235125   2.457   4.938  15.913 -0.2560 -0.2701  0.0317
 4545TIP3    H135126   2.470   4.894  15.996  0.7311  1.7055  0.9461
 4545TIP3    H235127   2.500   4.881  15.849 -0.0594 -1.2429  1.0151
 4546TIP3   OH235128   2.819   2.897   0.523  0.3340 -0.0579 -0.0020
 4546TIP3    H135129   2.752   2.870   0.585 -0.0244  0.8989  0.0353
 4546TIP3    H235130   2.882   2.947   0.575  0.2733  0.3488 -0.3123
 4547TIP3   OH235131   0.205   2.686   1.581  0.1484 -0.1894  0.0655
 4547TIP3    H135132   0.176   2.752   1.644 -1.1775 -0.6044 -0.1011
 4547TIP3    H235133   0.296   2.710   1.562  0.6805 -0.2075  2.3252
 4548TIP3   OH235134   3.314   5.236  14.299  0.4140  0.6118  0.4522
 4548TIP3    H135135   3.384   5.280  14.251 -0.0157  0.6293 -0.1605
 4548TIP3    H235136   3.257   5.201  14.231  1.2685 -1.7383  0.9092
 4549TIP3   OH235137   4.850   4.025   1.963 -0.0315 -0.5459  0.4132
 4549TIP3    H135138   4.826   4.115   1.984 -0.4188 -0.6858  0.5712
 4549TIP3    H235139   4.820   3.974   2.039  1.5148 -0.6141  1.0045
 4550TIP3   OH235140   4.617   2.522  11.683 -0.1754 -0.3506 -0.0911
 4550TIP3    H135141   4.690   2.573  11.716  0.0542 -1.1807  0.6904
 4550TIP3    H235142   4.642   2.501  11.592 -1.5449  3.3075 -1.3907
 4551TIP3   OH235143   3.914   4.534   5.758 -0.5055  0.3150  0.5773
 4551TIP3    H135144   3.967   4.524   5.837  0.7499 -0.9596 -0.3832
 4551TIP3    H235145   3.960   4.600   5.706 -0.3740 -0.1019  0.1596
 4552TIP3   OH235146   2.171   2.930   0.048  0.4571  0.1120 -0.3849
 4552TIP3    H135147   2.252   2.899   0.008 -0.1633 -2.2063  0.1182
 4552TIP3    H235148   2.103   2.913  -0.018 -0.0426 -0.5146  0.2841
 4553TIP3   OH235149   1.796   5.063   2.521 -0.1471  0.4096  0.2717
 4553TIP3    H135150   1.770   5.115   2.445  1.1853  0.1720 -0.3654
 4553TIP3    H235151   1.737   5.092   2.591 -1.7186  0.2788 -0.9657
 4554TIP3   OH235152   4.398   0.488  11.437 -0.3446 -0.5984  0.4414
 4554TIP3    H135153   4.395   0.577  11.402 -0.5781 -1.1754 -1.0541
 4554TIP3    H235154   4.404   0.500  11.531 -0.0721  1.0094  0.2432
 4555TIP3   OH235155   3.187   4.424   0.570 -1.0098  0.9954 -0.1983
 4555TIP3    H135156   3.265   4.479   0.560 -0.1426 -0.3708 -1.0379
 4555TIP3    H235157   3.168   4.425   0.664  0.8165  0.2513  0.1865
 4556TIP3   OH235158   6.565   6.624   5.500 -0.0878  0.2279 -0.2969
 4556TIP3    H135159   6.601   6.537   5.483 -0.0630 -0.0806  1.2304
 4556TIP3    H235160   6.513   6.645   5.423  1.9963 -0.0354 -1.8178
 4557TIP3   OH235161   2.608   6.609  13.964  0.5562  0.3014 -0.2853
 4557TIP3    H135162   2.552   6.637  13.892 -0.3311 -2.0581 -0.5492
 4557TIP3    H235163   2.682   6.670  13.962 -1.9325  3.4650  0.0535
 4558TIP3   OH235164   5.318   2.288   0.082  0.6700 -0.3194 -0.5794
 4558TIP3    H135165   5.280   2.201   0.073 -0.3430  0.0003  0.5345
 4558TIP3    H235166   5.349   2.310  -0.006  1.0693 -1.8566 -0.8384
 4559TIP3   OH235167   3.956   2.686  16.500  0.0608 -0.2791  0.5289
 4559TIP3    H135168   3.974   2.593  16.487 -1.3521 -0.8830  2.5842
 4559TIP3    H235169   3.979   2.701  16.592 -0.3812  1.2560  0.3986
 4560TIP3   OH235170   4.732   6.218   2.804 -0.6131 -0.4084  0.1878
 4560TIP3    H135171   4.660   6.215   2.868 -1.1127 -1.3365 -0.4138
 4560TIP3    H235172   4.810   6.195   2.856 -0.7604  0.5152  0.8237
 4561TIP3   OH235173   2.206   1.468  12.935  0.4764 -0.4354 -0.2461
 4561TIP3    H135174   2.265   1.392  12.935  0.6625 -0.2914 -0.5187
 4561TIP3    H235175   2.259   1.540  12.902  0.6457  0.0874  1.1142
 4562TIP3   OH235176   6.250   5.929   3.190 -0.1252  0.0720 -0.0704
 4562TIP3    H135177   6.236   5.978   3.271  0.7632 -2.8505  1.9535
 4562TIP3    H235178   6.181   5.862   3.190 -0.3558  0.2890 -1.9373
 4563TIP3   OH235179   5.421   3.399   0.180  0.5556 -0.0896  0.2286
 4563TIP3    H135180   5.509   3.420   0.212  0.8644 -0.9548 -0.0230
 4563TIP3    H235181   5.415   3.445   0.096  0.8107 -0.1118  0.1975
 4564TIP3   OH235182   1.330   6.238  13.486  0.7412 -0.3559  0.3434
 4564TIP3    H135183   1.262   6.171  13.475 -1.5627  1.4843  2.6084
 4564TIP3    H235184   1.317   6.298  13.412  1.0060 -0.9286 -0.1671
 4565TIP3   OH235185   5.063   2.830  12.954 -0.0367  0.2036 -0.1115
 4565TIP3    H135186   4.971   2.853  12.955  0.3628  1.8730  1.2992
 4565TIP3    H235187   5.077   2.787  12.870 -1.9802  0.3960 -0.5424
 4566TIP3   OH235188   6.602   2.565  16.240 -0.0663 -0.4485 -0.3063
 4566TIP3    H135189   6.649   2.545  16.320 -0.0840 -0.9796 -0.4264
 4566TIP3    H235190   6.670   2.576  16.174 -0.0444  0.1086 -0.1958
 4567TIP3   OH235191   4.161   6.638  16.242 -0.4319 -0.5133 -0.2148
 4567TIP3    H135192   4.108   6.592  16.177  1.6499 -0.1197 -2.2734
 4567TIP3    H235193   4.241   6.584  16.249 -0.1503  0.0731  1.1513
 4568TIP3   OH235194   5.344   3.980   3.083  0.0838 -0.1018  0.1639
 4568TIP3    H135195   5.424   3.974   3.031 -0.2882 -2.5552 -0.1819
 4568TIP3    H235196   5.371   4.023   3.164  2.0139 -2.0380  0.5747
 4569TIP3   OH235197   4.914   3.351  15.728  0.4572  0.0607 -0.0689
 4569TIP3    H135198   4.950   3.269  15.693  0.2218  0.1919 -0.6179
 4569TIP3    H235199   4.838   3.324  15.779 -0.8546  0.1200 -1.9598
 4570TIP3   OH235200   2.349   2.933  15.228 -0.4851  0.1125  0.3251
 4570TIP3    H135201   2.437   2.937  15.190  0.0145 -0.0755  1.4409
 4570TIP3    H235202   2.290   2.945  15.153  0.5150  3.3171 -0.0346
 4571TIP3   OH235203   4.115   1.442  15.595 -0.3219  0.7234  0.2791
 4571TIP3    H135204   4.178   1.415  15.528  1.3885  0.6190  1.8871
 4571TIP3    H235205   4.111   1.538  15.588 -1.8594  0.5649 -1.4350
 4572TIP3   OH235206   4.165   4.838   6.149 -0.5881 -0.2603  0.1126
 4572TIP3    H135207   4.086   4.885   6.177 -1.1748 -1.2779  0.2022
 4572TIP3    H235208   4.199   4.799   6.230 -1.2910 -1.7335 -0.2871
 4573TIP3   OH235209   3.740   5.950  16.951 -0.3857  0.6783  0.2123
 4573TIP3    H135210   3.692   5.994  16.880  1.4642 -0.1115 -1.6035
 4573TIP3    H235211   3.816   6.006  16.966  0.7878 -0.6777 -0.5344
 4574TIP3   OH235212   5.232   3.716  14.104  0.1534  0.5532  0.6606
 4574TIP3    H135213   5.271   3.665  14.033 -0.0218 -1.5903  2.0810
 4574TIP3    H235214   5.138   3.716  14.084  0.3576  2.1300 -0.4517
 4575TIP3   OH235215   3.009   2.869   0.282  0.0515  0.1418  0.1853
 4575TIP3    H135216   3.003   2.964   0.274 -0.6682  0.1229  0.4612
 4575TIP3    H235217   2.921   2.842   0.308  0.6198 -0.4509  1.5328
 4576TIP3   OH235218   4.152   3.945  16.848 -0.5025  0.2227  0.1740
 4576TIP3    H135219   4.088   3.882  16.817 -0.1988  0.3930 -0.8147
 4576TIP3    H235220   4.224   3.939  16.786 -0.6719  1.8729 -0.2009
 4577TIP3   OH235221   4.053   4.159   6.081  0.8077  0.0645  0.1336
 4577TIP3    H135222   4.032   4.099   6.153 -0.0365 -0.0974 -0.2379
 4577TIP3    H235223   4.083   4.239   6.125  1.5175 -0.4734  0.6390
 4578TIP3   OH235224   0.965   5.828   1.911  0.0181  0.1520  0.2387
 4578TIP3    H135225   0.944   5.912   1.871 -1.0820 -0.7452 -1.0737
 4578TIP3    H235226   0.914   5.826   1.992 -0.4043  0.4856 -0.0242
 4579TIP3   OH235227   4.455   0.135   6.053  0.1203 -0.9438 -0.1936
 4579TIP3    H135228   4.426   0.203   5.993 -0.0831 -0.3082  0.6256
 4579TIP3    H235229   4.545   0.116   6.027 -0.0188 -0.7898 -0.7965
 4580TIP3   OH235230   6.641   3.651  11.930  0.5440  0.7220 -0.3265
 4580TIP3    H135231   6.607   3.728  11.977  0.6737  0.1363  0.7527
 4580TIP3    H235232   6.734   3.670  11.918  0.4784  0.9445 -0.4878
 4581TIP3   OH235233   2.852   3.027  16.138  0.0826 -0.0709  0.0304
 4581TIP3    H135234   2.765   3.064  16.124 -0.0103  0.7781  2.5813
 4581TIP3    H235235   2.910   3.102  16.151  0.7483 -0.6642  0.6230
 4582TIP3   OH235236   5.110   5.480   2.481 -0.4858 -0.2203 -0.2713
 4582TIP3    H135237   5.154   5.565   2.490  0.4489 -0.7266 -0.0249
 4582TIP3    H235238   5.042   5.496   2.415 -0.0367  0.6153 -0.5445
 4583TIP3   OH235239   3.013   4.160   5.389  0.3937 -0.6160  0.8889
 4583TIP3    H135240   2.970   4.075   5.385  0.5474 -0.6785  0.5238
 4583TIP3    H235241   3.004   4.187   5.480  0.8326 -1.2826  1.1340
 4584TIP3   OH235242   1.271   4.121   1.325  0.3522  0.4459 -1.0005
 4584TIP3    H135243   1.294   4.191   1.265  0.7663  0.5502 -0.7217
 4584TIP3    H235244   1.266   4.043   1.270 -0.1078  0.6914 -1.3096
 4585TIP3   OH235245   5.880   2.660   1.937  0.2039 -0.0726  0.5264
 4585TIP3    H135246   5.829   2.614   2.003  3.1065  0.0371  2.9599
 4585TIP3    H235247   5.971   2.649   1.964  1.4268  1.1370 -2.7244
 4586TIP3   OH235248   4.923   1.514  13.917 -0.5101  0.0821  0.8268
 4586TIP3    H135249   4.980   1.587  13.893 -0.6806 -0.3373 -0.9535
 4586TIP3    H235250   4.961   1.479  13.997  1.2044  0.3884  0.1666
 4587TIP3   OH235251   4.867   3.688   2.753  0.0550  0.2081  0.6734
 4587TIP3    H135252   4.860   3.782   2.767  1.4917  0.2453  1.1959
 4587TIP3    H235253   4.907   3.679   2.666  0.1660  0.0891  0.7354
 4588TIP3   OH235254   6.498   6.555  11.214 -0.2659 -0.5020  0.1323
 4588TIP3    H135255   6.463   6.467  11.203 -1.4352  0.1001 -1.0599
 4588TIP3    H235256   6.552   6.569  11.136 -0.6150  0.0810 -0.0068
 4589TIP3   OH235257   5.525   6.440   6.735 -0.3723  0.5763  0.1657
 4589TIP3    H135258   5.493   6.350   6.742 -0.0213  0.5158  0.9432
 4589TIP3    H235259   5.581   6.440   6.657 -0.8100  0.2595 -0.1529
 4590TIP3   OH235260   6.743   2.729   1.322 -0.1480 -0.0307 -0.0085
 4590TIP3    H135261   6.811   2.724   1.255 -0.7304 -0.0321 -0.5947
 4590TIP3    H235262   6.661   2.735   1.274 -0.3854  2.9455  0.6879
 4591TIP3   OH235263   0.670   0.952  11.919 -0.0446 -0.2260 -0.1866
 4591TIP3    H135264   0.733   0.940  11.847 -0.4956  0.5545 -0.7211
 4591TIP3    H235265   0.586   0.922  11.882 -0.3993  0.7570 -0.2026
 4592TIP3   OH235266   4.638   0.015   3.019  0.1056  0.4616 -0.0151
 4592TIP3    H135267   4.560   0.011   3.075 -1.5895 -0.8264 -2.3955
 4592TIP3    H235268   4.628   0.097   2.971  0.3296  0.3925 -0.1796
 4593TIP3   OH235269   1.704   5.029  11.354 -0.6139 -0.5644  0.3878
 4593TIP3    H135270   1.667   5.010  11.267  1.2627 -1.4628 -0.2241
 4593TIP3    H235271   1.682   5.121  11.369 -1.2731 -0.5019 -0.8725
 4594TIP3   OH235272   3.772   1.765   4.530  0.7250 -0.0999  0.0093
 4594TIP3    H135273   3.686   1.761   4.487  1.3706 -1.0478 -1.2254
 4594TIP3    H235274   3.829   1.806   4.466  1.3901 -0.2368  0.5092
 4595TIP3   OH235275   2.385   4.675   5.591 -0.0708  0.1257  0.4979
 4595TIP3    H135276   2.420   4.721   5.667 -0.7596 -0.2177  1.0407
 4595TIP3    H235277   2.342   4.743   5.539  1.5833  0.5862 -0.3029
 4596TIP3   OH235278   3.445   1.589  13.771 -0.2131 -0.1167  0.3552
 4596TIP3    H135279   3.398   1.636  13.703  0.2956  0.5610  0.4699
 4596TIP3    H235280   3.439   1.497  13.746 -0.0160  0.1342 -0.6048
 4597TIP3   OH235281   6.614   2.596   0.186  0.1262  0.3365  0.2852
 4597TIP3    H135282   6.685   2.564   0.131 -0.6961 -1.2544  0.1261
 4597TIP3    H235283   6.568   2.660   0.132 -0.8288 -1.3957 -0.9882
 4598TIP3   OH235284   2.033   3.533  16.972  0.3640  0.3084  0.1994
 4598TIP3    H135285   2.048   3.443  16.945 -0.1152  0.2139  0.2442
 4598TIP3    H235286   1.964   3.528  17.037  1.6123  0.5249  1.5746
 4599TIP3   OH235287   1.672   4.944  16.197 -0.3687 -0.3670 -0.2018
 4599TIP3    H135288   1.583   4.977  16.210 -0.0849  0.8455 -1.2685
 4599TIP3    H235289   1.693   4.898  16.278 -1.8432 -0.3785  0.1838
 4600TIP3   OH235290   3.361   3.717  16.344 -0.1066  0.0596  0.3252
 4600TIP3    H135291   3.306   3.770  16.401 -1.3522  0.6836 -1.3947
 4600TIP3    H235292   3.424   3.779  16.307 -0.1908 -0.0685 -0.0328
 4601TIP3   OH235293   0.953   5.752   2.553  0.4481  0.0536  0.3126
 4601TIP3    H135294   1.004   5.786   2.626  1.2044 -0.1791 -0.1085
 4601TIP3    H235295   0.865   5.786   2.568  0.5331 -0.2239  1.4838
 4602TIP3   OH235296   3.739   1.821  15.388 -0.1569 -0.4738 -0.5297
 4602TIP3    H135297   3.744   1.803  15.294  0.2124 -0.1747 -0.5691
 4602TIP3    H235298   3.825   1.797  15.422 -0.4095 -0.9318 -0.2026
 4603TIP3   OH235299   0.376   1.395   6.314  0.2359 -0.7003  0.2036
 4603TIP3    H135300   0.324   1.320   6.283 -0.0641 -0.3730 -0.0996
 4603TIP3    H235301   0.467   1.367   6.304  0.2182  0.0191 -2.6800
 4604TIP3   OH235302   6.474   2.622  15.091 -0.2501 -0.0743 -0.6982
 4604TIP3    H135303   6.438   2.534  15.083  0.0892 -0.4691  1.8822
 4604TIP3    H235304   6.404   2.679  15.058 -1.4483 -1.1421 -0.0309
 4605TIP3   OH235305   6.365   5.348   0.404 -0.6702 -0.0930 -0.6910
 4605TIP3    H135306   6.414   5.298   0.339 -0.2548 -3.0509  1.8122
 4605TIP3    H235307   6.287   5.378   0.358 -0.4985 -2.3333 -2.4970
 4606TIP3   OH235308   0.574   6.081   3.009 -0.6308  0.1667 -0.0353
 4606TIP3    H135309   0.490   6.053   2.975 -1.2080  1.3185  0.4048
 4606TIP3    H235310   0.580   6.174   2.984 -0.0071  0.3950  0.9125
 4607TIP3   OH235311   5.249   6.186  12.074 -0.3702 -0.0570  0.0706
 4607TIP3    H135312   5.299   6.208  11.995 -0.9404  0.7081 -0.0816
 4607TIP3    H235313   5.314   6.188  12.144 -0.0551  0.2502 -0.2290
 4608TIP3   OH235314   2.179   4.382   5.581 -0.3103 -0.0699  0.5722
 4608TIP3    H135315   2.108   4.322   5.601 -0.5828  0.6652  1.8667
 4608TIP3    H235316   2.161   4.459   5.635  0.8298  0.5801  0.0349
 4609TIP3   OH235317   3.205   3.789  12.008 -0.4869  0.1500 -0.3962
 4609TIP3    H135318   3.248   3.809  12.091  0.5007  1.1747 -1.1367
 4609TIP3    H235319   3.113   3.774  12.031 -0.2282  0.4527  0.8616
 4610TIP3   OH235320   3.973   4.562  13.338  0.1002  0.1947  0.2013
 4610TIP3    H135321   3.892   4.581  13.385 -0.2932 -1.3690  0.1774
 4610TIP3    H235322   3.983   4.467  13.344  1.8426  0.3432  0.0609
 4611TIP3   OH235323   6.205   3.431  11.412 -0.1173 -0.7733 -0.0571
 4611TIP3    H135324   6.255   3.509  11.390  0.0913 -0.7437  0.5384
 4611TIP3    H235325   6.249   3.393  11.488 -0.6070 -1.1058  0.0656
 4612TIP3   OH235326   3.037   4.740  15.767  0.3958 -0.6982  0.2410
 4612TIP3    H135327   2.947   4.708  15.757  0.4977 -0.6501 -0.8663
 4612TIP3    H235328   3.080   4.717  15.685  1.6904 -1.6253  1.1717
 4613TIP3   OH235329   4.522   0.298   3.996 -0.3563  0.3814 -0.2955
 4613TIP3    H135330   4.508   0.393   3.991 -0.3758  0.5061  1.7308
 4613TIP3    H235331   4.617   0.288   3.992 -0.4278  0.3432 -2.3244
 4614TIP3   OH235332   1.065   3.486   1.835 -0.3050  0.7425  0.2438
 4614TIP3    H135333   1.134   3.456   1.894 -1.0051 -1.9928 -0.2539
 4614TIP3    H235334   0.994   3.514   1.894 -0.4892 -0.7133  0.7417
 4615TIP3   OH235335   0.171   3.217   2.891 -0.3388  0.2136 -0.3684
 4615TIP3    H135336   0.161   3.309   2.912 -1.0740  0.3810 -1.4206
 4615TIP3    H235337   0.239   3.215   2.823  0.8378 -0.1703  0.8013
 4616TIP3   OH235338   6.191   2.955   1.317 -0.2098 -0.1002 -0.1462
 4616TIP3    H135339   6.209   3.039   1.357  1.0790 -0.0471 -0.8157
 4616TIP3    H235340   6.213   2.890   1.384 -1.8165  0.0919  0.5979
 4617TIP3   OH235341   0.299   6.196   5.981 -0.1521  0.0604  0.1761
 4617TIP3    H135342   0.327   6.262   6.044  0.6411  0.0622 -0.1778
 4617TIP3    H235343   0.278   6.119   6.034  0.6694  0.0073  0.4241
 4618TIP3   OH235344   5.849   4.902   0.629 -0.3242 -0.1004  0.0092
 4618TIP3    H135345   5.866   4.994   0.647  0.6572 -0.2903  0.0620
 4618TIP3    H235346   5.929   4.857   0.656 -0.7026 -0.9345 -0.2589
 4619TIP3   OH235347   0.965   4.959   3.714  0.0324 -0.2066  0.0417
 4619TIP3    H135348   1.034   4.919   3.660  0.8279  0.2077  0.7573
 4619TIP3    H235349   0.957   5.048   3.681  1.0905  0.3041  1.1448
 4620TIP3   OH235350   6.695   2.252   2.255  0.1259  0.4771 -0.3284
 4620TIP3    H135351   6.646   2.333   2.267 -1.3547 -0.3727 -0.4692
 4620TIP3    H235352   6.753   2.269   2.181  0.0285  1.4918 -0.1749
 4621TIP3   OH235353   6.651   5.579  12.547  0.0226  0.4052 -0.3392
 4621TIP3    H135354   6.567   5.533  12.542  1.0238 -1.5118 -0.0546
 4621TIP3    H235355   6.680   5.584  12.456 -0.2383  0.7311 -0.4022
 4622TIP3   OH235356   2.222   4.724  16.106  0.4220 -0.8067 -0.3323
 4622TIP3    H135357   2.172   4.694  16.183 -1.0726  2.1780 -0.0880
 4622TIP3    H235358   2.312   4.726  16.137 -0.0117 -0.8097  0.9895
 4623TIP3   OH235359   6.154   2.647  12.378  0.0871  0.4149 -0.6500
 4623TIP3    H135360   6.140   2.554  12.396 -1.3404  0.4016 -1.7407
 4623TIP3    H235361   6.249   2.658  12.379  0.2222 -0.6838  1.2693
 4624TIP3   OH235362   1.240   1.621   4.481 -0.3239 -0.4549  0.5083
 4624TIP3    H135363   1.281   1.625   4.568  0.9384  0.4248 -0.1109
 4624TIP3    H235364   1.286   1.550   4.436  0.6114  0.5738 -0.2064
 4625TIP3   OH235365   4.940   2.382  10.518  0.7472  0.0803 -0.7974
 4625TIP3    H135366   4.922   2.357  10.609  2.1220  1.2770 -0.1728
 4625TIP3    H235367   4.944   2.299  10.470 -3.1236 -0.4267 -0.3946
 4626TIP3   OH235368   0.599   0.628  15.829 -0.2147 -0.2688  0.6441
 4626TIP3    H135369   0.554   0.708  15.858 -0.7962 -0.8799  1.4533
 4626TIP3    H235370   0.573   0.618  15.738 -1.0658 -0.1522  0.8646
 4627TIP3   OH235371   1.592   3.369  13.103  0.2949  0.5447  0.1157
 4627TIP3    H135372   1.512   3.318  13.112  1.6066 -1.3074  1.8208
 4627TIP3    H235373   1.601   3.415  13.187  0.5714  1.4293 -0.3873
 4628TIP3   OH235374   6.590   4.725  14.505  0.1069  0.7102  0.0393
 4628TIP3    H135375   6.646   4.659  14.464 -0.9545 -0.3810  0.3453
 4628TIP3    H235376   6.504   4.712  14.466 -0.7231  0.1883  1.9937
 4629TIP3   OH235377   0.510   4.461   0.336  0.7695  0.2933 -0.4321
 4629TIP3    H135378   0.471   4.535   0.382  0.2328  0.4004 -1.0591
 4629TIP3    H235379   0.442   4.432   0.275  1.0281 -0.6230 -0.2900
 4630TIP3   OH235380   5.009   3.752   0.883 -0.0874 -0.3286  0.0969
 4630TIP3    H135381   5.057   3.748   0.965 -0.3531  1.1336  0.3392
 4630TIP3    H235382   5.027   3.839   0.848  0.6092 -1.1849 -1.7680
 4631TIP3   OH235383   1.465   0.052  12.342 -0.3234  0.1689 -0.7885
 4631TIP3    H135384   1.459  -0.040  12.316  1.4074 -0.5137  1.1447
 4631TIP3    H235385   1.519   0.092  12.274  0.7104 -0.7174 -0.5025
 4632TIP3   OH235386   6.299   3.367  11.670  0.1619  0.1050 -0.0350
 4632TIP3    H135387   6.335   3.280  11.682 -0.1056 -0.1523 -1.0571
 4632TIP3    H235388   6.367   3.426  11.702  0.5453 -0.4561  0.1849
 4633TIP3   OH235389   1.899   5.445  15.156  0.4196 -0.0297  0.2363
 4633TIP3    H135390   1.871   5.416  15.243 -1.2109  2.7298  0.6902
 4633TIP3    H235391   1.950   5.524  15.172  0.1052  0.5085 -1.3165
 4634TIP3   OH235392   6.471   4.886   1.927  0.1732 -0.3367 -0.0223
 4634TIP3    H135393   6.427   4.890   2.012 -0.5088  1.7474 -0.4571
 4634TIP3    H235394   6.442   4.802   1.890 -0.4627 -0.7120  1.2922
 4635TIP3   OH235395   1.060   1.443   5.402 -0.6006  0.4249  0.2690
 4635TIP3    H135396   1.105   1.406   5.477  0.8361  0.1589 -0.7115
 4635TIP3    H235397   1.046   1.369   5.343  1.3587  1.1963 -1.2339
 4636TIP3   OH235398   4.664   3.487  15.289  0.0417 -0.0367 -0.2113
 4636TIP3    H135399   4.612   3.547  15.236 -0.0259  0.1035  0.0150
 4636TIP3    H235400   4.741   3.538  15.315  0.4945 -0.3673 -0.8820
 4637TIP3   OH235401   0.782   1.633   0.225  0.6945 -0.4165  0.1543
 4637TIP3    H135402   0.830   1.676   0.154  0.8984 -1.1688 -0.1679
 4637TIP3    H235403   0.691   1.662   0.213  0.9961  0.7114  0.5428
 4638TIP3   OH235404   0.502   2.387   4.568 -0.3145 -0.4540 -0.1421
 4638TIP3    H135405   0.427   2.374   4.625 -0.8705  1.8028 -0.3338
 4638TIP3    H235406   0.465   2.385   4.479  0.0774 -0.8199 -0.2991
 4639TIP3   OH235407   2.605   5.909   3.750  0.1296 -0.0348 -0.3159
 4639TIP3    H135408   2.677   5.949   3.702 -1.8914  1.6903 -1.9836
 4639TIP3    H235409   2.598   5.960   3.831  1.5992 -1.0459  0.4698
 4640TIP3   OH235410   3.942   5.194  10.565 -0.0490 -0.5110 -0.1538
 4640TIP3    H135411   3.897   5.182  10.482  1.0228 -3.3931 -0.3709
 4640TIP3    H235412   4.019   5.137  10.559  0.5625 -0.0179  2.4348
 4641TIP3   OH235413   1.920   2.533  15.236  0.5986 -0.1749  0.3436
 4641TIP3    H135414   1.970   2.553  15.157 -0.1597 -0.3715 -0.1908
 4641TIP3    H235415   1.942   2.604  15.297  0.4096  0.5253 -0.3956
 4642TIP3   OH235416   3.548   3.919   0.375  0.0042 -0.4742  0.0612
 4642TIP3    H135417   3.580   3.832   0.350 -2.4942 -1.6702  0.8585
 4642TIP3    H235418   3.517   3.958   0.293  1.5776 -0.1377 -0.3748
 4643TIP3   OH235419   2.389   6.628   1.250 -0.2813  0.4492 -0.2504
 4643TIP3    H135420   2.362   6.582   1.331 -1.5829  2.4587  0.4938
 4643TIP3    H235421   2.480   6.653   1.266 -0.3567  0.3467  0.3697
 4644TIP3   OH235422   3.447   5.798   1.673 -0.2600  0.2564  0.6006
 4644TIP3    H135423   3.514   5.774   1.609 -0.6382 -0.4613  0.4761
 4644TIP3    H235424   3.491   5.791   1.758 -0.5623 -1.5423  0.6175
 4645TIP3   OH235425   3.202   1.031  15.087  0.3671  0.3929 -0.6497
 4645TIP3    H135426   3.287   1.073  15.101  0.6085 -0.3340  0.1293
 4645TIP3    H235427   3.151   1.096  15.040  1.3859  0.8101 -1.2029
 4646TIP3   OH235428   5.186   4.252  16.775  0.7364  0.3832  0.0869
 4646TIP3    H135429   5.208   4.219  16.862  1.4858 -1.0226 -0.6105
 4646TIP3    H235430   5.173   4.173  16.722 -0.4175  1.2171 -0.9110
 4647TIP3   OH235431   2.758   2.289  12.804  0.1645 -0.5195 -0.0054
 4647TIP3    H135432   2.821   2.347  12.762 -0.6865 -0.0586 -0.6755
 4647TIP3    H235433   2.678   2.299  12.752 -0.4545 -1.1103  0.8117
 4648TIP3   OH235434   6.782   3.845  13.992 -0.0171  0.2601 -0.2178
 4648TIP3    H135435   6.830   3.889  13.922  1.5337 -1.0904 -0.0493
 4648TIP3    H235436   6.709   3.903  14.012  0.3318  1.3351 -1.9781
 4649TIP3   OH235437   0.025   5.698   4.861  0.4373 -0.0415  0.8125
 4649TIP3    H135438  -0.059   5.710   4.816  0.7514 -2.5251 -0.4964
 4649TIP3    H235439   0.029   5.772   4.922 -2.6240  0.2179  0.8153
 4650TIP3   OH235440   0.010   5.629  12.924 -0.1819  0.1727 -0.0229
 4650TIP3    H135441   0.099   5.657  12.903 -0.2174 -0.7643 -1.5082
 4650TIP3    H235442  -0.033   5.707  12.958  1.2652  0.5782  0.9052
 4651TIP3   OH235443   4.257   2.744   1.772 -0.3134 -0.3600 -0.3632
 4651TIP3    H135444   4.352   2.756   1.772 -0.1355 -1.5812  0.7287
 4651TIP3    H235445   4.245   2.653   1.800 -1.8361  0.1583  0.7257
 4652TIP3   OH235446   3.277   2.774   3.895  0.0019  0.7101 -0.5221
 4652TIP3    H135447   3.273   2.817   3.809  0.5154 -0.0908 -0.9568
 4652TIP3    H235448   3.309   2.842   3.954  0.5503  1.0135 -1.1543
 4653TIP3   OH235449   4.047   2.731   6.028 -0.1995  0.3388  0.6518
 4653TIP3    H135450   4.015   2.727   6.118 -0.5873  2.6422  0.6512
 4653TIP3    H235451   4.087   2.818   6.021 -0.1869  0.1947 -1.3906
 4654TIP3   OH235452   1.363   0.101   0.519 -0.5681  0.4402  0.1731
 4654TIP3    H135453   1.381   0.134   0.432 -1.6564  1.3884  0.2969
 4654TIP3    H235454   1.283   0.050   0.510 -1.1360  1.2028  0.7544
 4655TIP3   OH235455   1.439   6.634   5.231 -0.6391 -0.3417 -0.3705
 4655TIP3    H135456   1.431   6.632   5.136  0.1404 -0.3232 -0.4398
 4655TIP3    H235457   1.461   6.724   5.252 -1.9180 -0.0926 -0.0740
 4656TIP3   OH235458   5.329   4.194   5.566 -0.1878  0.5469  0.4556
 4656TIP3    H135459   5.235   4.188   5.549 -0.5776  0.5222  2.5493
 4656TIP3    H235460   5.348   4.288   5.561 -0.1236  0.4761 -0.8960
 4657TIP3   OH235461   3.538   1.918  16.546 -0.5801 -0.6592  0.2233
 4657TIP3    H135462   3.520   1.830  16.579 -1.5874 -0.4831  0.1410
 4657TIP3    H235463   3.624   1.939  16.583 -0.2324 -1.7567  0.0675
 4658TIP3   OH235464   1.883   4.833   3.214  0.1127  0.1265 -0.1086
 4658TIP3    H135465   1.796   4.869   3.232 -0.1465  0.2470 -1.5501
 4658TIP3    H235466   1.874   4.740   3.232 -0.4627  0.0562 -0.7137
 4659TIP3   OH235467   0.502   0.650  13.424 -0.2335  0.7191  0.6839
 4659TIP3    H135468   0.526   0.595  13.499 -1.0946  2.2569  2.1042
 4659TIP3    H235469   0.583   0.660  13.374  0.2062 -0.8151  1.0478
 4660TIP3   OH235470   0.620   1.312   5.183  0.5524  0.1320  0.5258
 4660TIP3    H135471   0.612   1.331   5.090  0.7111 -0.2358  0.4389
 4660TIP3    H235472   0.674   1.383   5.218  0.4824  0.2744  0.3401
 4661TIP3   OH235473   3.551   3.737   5.546  0.3936 -0.0807 -0.1289
 4661TIP3    H135474   3.492   3.698   5.611 -1.6936 -0.2698 -2.0764
 4661TIP3    H235475   3.568   3.825   5.578 -1.4624  0.1847  0.1782
 4662TIP3   OH235476   6.473   0.023   5.636  0.3977  0.5228  0.0778
 4662TIP3    H135477   6.434   0.074   5.565 -1.3015 -1.0061 -0.1029
 4662TIP3    H235478   6.495  -0.061   5.596  0.7030  0.1328  1.0456
 4663TIP3   OH235479   5.478   3.786   4.577 -0.6532  0.2278  0.1143
 4663TIP3    H135480   5.463   3.806   4.485 -0.2907 -0.2134 -0.0443
 4663TIP3    H235481   5.525   3.703   4.576  1.7003  1.5192  0.5949
 4664TIP3   OH235482   3.414   5.823  13.889 -0.4788 -0.6041 -0.4771
 4664TIP3    H135483   3.496   5.798  13.932 -1.0274 -1.7352 -0.0659
 4664TIP3    H235484   3.437   5.900  13.836  0.4786  0.0673  0.8903
 4665TIP3   OH235485   4.987   2.235   2.555 -0.1453 -0.3476  0.0102
 4665TIP3    H135486   4.990   2.321   2.595 -2.6031  0.5426 -1.5972
 4665TIP3    H235487   5.035   2.245   2.473  0.0566 -0.6868  0.0843
 4666TIP3   OH235488   6.001   4.125   2.955 -0.1622  0.6248 -0.2340
 4666TIP3    H135489   5.991   4.174   2.874 -1.6070 -0.1666 -0.5403
 4666TIP3    H235490   5.953   4.175   3.020 -0.0301  0.6167 -0.1289
 4667TIP3   OH235491   4.215   0.853  14.833 -0.3501  0.2408  0.4613
 4667TIP3    H135492   4.147   0.917  14.855 -1.4742 -1.2743  1.4876
 4667TIP3    H235493   4.233   0.807  14.915  0.5596 -0.6443 -0.2191
 4668TIP3   OH235494   1.604   6.372  13.310  0.1287 -0.1457  0.7190
 4668TIP3    H135495   1.565   6.404  13.391 -0.4624 -1.3703  0.9336
 4668TIP3    H235496   1.693   6.348  13.334 -0.3595 -1.4641  1.2566
 4669TIP3   OH235497   0.685   6.683   5.644 -0.7521  0.2326  0.1188
 4669TIP3    H135498   0.688   6.706   5.551 -0.5220  0.3842  0.1646
 4669TIP3    H235499   0.627   6.749   5.683  0.3143  1.0549  0.3389
 4670TIP3   OH235500   1.983   6.773   5.421 -0.1061  0.6763  0.1415
 4670TIP3    H135501   2.050   6.714   5.387 -0.3941  1.2237 -1.4321
 4670TIP3    H235502   1.900   6.730   5.399 -0.2979 -0.4532  2.9074
 4671TIP3   OH235503   1.355   2.418   5.554  0.1462 -0.1819 -0.1118
 4671TIP3    H135504   1.436   2.381   5.518  0.0863  0.4663 -0.9263
 4671TIP3    H235505   1.300   2.433   5.477 -0.3273  0.3928  0.3412
 4672TIP3   OH235506   4.924   3.153   5.176  0.2901 -0.5008  0.7632
 4672TIP3    H135507   4.833   3.160   5.149  0.7880 -1.3056 -1.1972
 4672TIP3    H235508   4.969   3.224   5.131  1.2865 -2.3772 -1.2790
 4673TIP3   OH235509   1.047   2.382  14.069 -0.1973  0.2509  0.0745
 4673TIP3    H135510   1.001   2.321  14.013  1.2997  0.0105 -0.9343
 4673TIP3    H235511   1.138   2.378  14.039  0.3570  1.1975  1.5626
 4674TIP3   OH235512   1.388   0.980   4.243  0.1924  0.0721  0.1218
 4674TIP3    H135513   1.314   0.993   4.184  0.4714 -0.7565 -0.4257
 4674TIP3    H235514   1.420   0.892   4.222  1.8909  0.7708 -0.2556
 4675TIP3   OH235515   4.206   3.685   5.100  0.2229  0.1694  0.2083
 4675TIP3    H135516   4.241   3.596   5.099  0.3360  0.2005  0.9181
 4675TIP3    H235517   4.271   3.737   5.054  0.5094  0.0059  0.4252
 4676TIP3   OH235518   2.117   0.453  15.207  0.3457  0.6612 -0.4117
 4676TIP3    H135519   2.092   0.418  15.293  1.8595  0.5608  0.0051
 4676TIP3    H235520   2.180   0.389  15.173  0.2893  1.0684 -1.2949
 4677TIP3   OH235521   0.386   0.033  14.483  0.0506  0.2516  0.0672
 4677TIP3    H135522   0.303   0.076  14.505 -1.5997 -2.7540 -0.0492
 4677TIP3    H235523   0.414  -0.009  14.564  1.2557  0.8990 -0.0077
 4678TIP3   OH235524   2.092   5.468  11.400 -0.5902 -0.4661 -0.3735
 4678TIP3    H135525   2.028   5.518  11.450 -0.2224 -0.2328 -0.1281
 4678TIP3    H235526   2.176   5.488  11.443 -0.1376  0.5147 -1.7083
 4679TIP3   OH235527   4.427   2.781   4.032 -0.2452 -0.1440  0.1346
 4679TIP3    H135528   4.360   2.713   4.021  0.8308 -1.0347 -1.1347
 4679TIP3    H235529   4.453   2.774   4.124 -0.4887 -1.1430  0.1359
 4680TIP3   OH235530   6.058   5.984   2.977  0.0777 -0.2622 -0.2075
 4680TIP3    H135531   5.995   6.001   2.907  1.5113  0.2083 -1.3989
 4680TIP3    H235532   6.079   6.070   3.013  0.5733 -0.3448 -0.2891
 4681TIP3   OH235533   4.668   3.983   5.738 -0.0895 -0.0857 -0.2796
 4681TIP3    H135534   4.750   3.975   5.690 -0.6772 -1.6422 -1.0369
 4681TIP3    H235535   4.603   4.009   5.673 -0.8022 -1.7936 -0.2761
 4682TIP3   OH235536   4.403   5.418   3.002  0.4734  0.3403  0.3872
 4682TIP3    H135537   4.328   5.399   3.058 -0.5187  0.2708 -0.9436
 4682TIP3    H235538   4.368   5.418   2.913  1.5777  2.6651 -0.1014
 4683TIP3   OH235539   0.832   6.188  13.321  0.5511  0.0490  0.2306
 4683TIP3    H135540   0.772   6.118  13.348  3.1596 -1.5142  2.2389
 4683TIP3    H235541   0.828   6.251  13.393  1.3799 -0.1259  0.4373
 4684TIP3   OH235542   3.755   6.802  11.568  0.4595  0.0389 -0.1099
 4684TIP3    H135543   3.678   6.858  11.563  0.6709  0.3323 -0.0920
 4684TIP3    H235544   3.817   6.841  11.506  0.3279 -0.6126 -0.6653
 4685TIP3   OH235545   6.150   4.515  16.437 -0.0222 -0.5773  0.2761
 4685TIP3    H135546   6.147   4.494  16.530 -0.5151 -1.2372  0.1166
 4685TIP3    H235547   6.105   4.599  16.430  2.5318  0.8695  1.0064
 4686TIP3   OH235548   1.929   0.266   0.326 -0.0750  0.3921 -0.7619
 4686TIP3    H135549   1.833   0.264   0.322  0.0340 -1.7412 -3.4247
 4686TIP3    H235550   1.949   0.347   0.373 -3.1717  0.7361  0.0951
 4687TIP3   OH235551   6.126   5.661   4.212 -0.2885  0.2275  0.6630
 4687TIP3    H135552   6.047   5.702   4.248  0.0589 -0.1490  1.8780
 4687TIP3    H235553   6.094   5.601   4.145 -0.9182  1.2344  0.0351
 4688TIP3   OH235554   1.249   2.690  16.605  0.3989  0.5609 -0.0391
 4688TIP3    H135555   1.233   2.780  16.634  1.4663  0.2018  1.7199
 4688TIP3    H235556   1.289   2.647  16.680  1.1032 -1.0437 -1.2986
 4689TIP3   OH235557   1.120   2.422   3.611  0.1569 -0.4631  0.2741
 4689TIP3    H135558   1.091   2.390   3.526  0.0386 -2.2364  0.9622
 4689TIP3    H235559   1.192   2.364   3.635 -0.0918 -0.2436  1.5861
 4690TIP3   OH235560   1.831   2.358  12.405 -0.2494  0.5553  0.5960
 4690TIP3    H135561   1.891   2.302  12.455 -2.5349 -2.0674  0.4925
 4690TIP3    H235562   1.773   2.396  12.470 -0.0061  1.1914  0.4451
 4691TIP3   OH235563   2.021   6.379   3.813  0.4563  0.0670 -0.1791
 4691TIP3    H135564   1.981   6.292   3.803 -1.9444  1.2084 -0.9712
 4691TIP3    H235565   1.964   6.424   3.875  0.0869  1.9676 -1.8499
 4692TIP3   OH235566   0.419   2.608  11.929  0.2763 -0.1716 -0.2871
 4692TIP3    H135567   0.366   2.531  11.945 -0.0455  0.4830  2.0927
 4692TIP3    H235568   0.358   2.672  11.892  0.0426 -0.3818 -0.2656
 4693TIP3   OH235569   1.476   4.239  13.767  0.5061  0.0079  0.5697
 4693TIP3    H135570   1.559   4.208  13.802  1.0510 -0.9037 -1.4791
 4693TIP3    H235571   1.418   4.163  13.772  0.6951 -0.2485 -0.7732
 4694TIP3   OH235572   4.706   3.844   2.440 -0.2650 -0.1176  0.1270
 4694TIP3    H135573   4.633   3.788   2.464 -0.1221 -0.6242 -0.6131
 4694TIP3    H235574   4.672   3.933   2.449 -0.8280 -0.3449  0.2465
 4695TIP3   OH235575   5.994   3.980   4.719  0.0910 -0.8308  0.5470
 4695TIP3    H135576   5.914   3.949   4.676 -0.3359 -1.2681  1.6420
 4695TIP3    H235577   6.008   3.919   4.791  1.9763 -1.3285 -0.2139
 4696TIP3   OH235578   5.316   5.003  14.849 -0.4411  0.4127 -0.2737
 4696TIP3    H135579   5.367   5.084  14.859 -1.7166  1.1638  0.3383
 4696TIP3    H235580   5.230   5.033  14.820  0.0654 -0.9860 -3.4479
 4697TIP3   OH235581   1.441   3.827   0.408 -0.0171 -0.2253  0.1933
 4697TIP3    H135582   1.422   3.835   0.502 -0.3910  2.5240 -0.0667
 4697TIP3    H235583   1.396   3.747   0.381 -0.4887 -0.6754  2.2185
 4698TIP3   OH235584   3.774   6.649   3.001 -0.1527  0.1609 -0.0634
 4698TIP3    H135585   3.803   6.702   2.926  0.7272 -0.9658 -0.5238
 4698TIP3    H235586   3.788   6.706   3.077  1.0146  0.5242 -0.5327
 4699TIP3   OH235587   5.060   0.939   2.378 -0.0016 -0.3181 -0.1528
 4699TIP3    H135588   5.139   0.886   2.386  0.2501  0.1074  0.1651
 4699TIP3    H235589   5.027   0.948   2.467 -0.5063 -0.6385 -0.3019
 4700TIP3   OH235590   3.773   2.851   1.336 -0.1903 -0.0626 -0.1769
 4700TIP3    H135591   3.854   2.899   1.349 -0.2842  0.7851 -2.5863
 4700TIP3    H235592   3.783   2.772   1.390  1.7458  0.5752  0.4291
 4701TIP3   OH235593   1.846   0.997  13.276 -0.4109  0.5595 -0.3029
 4701TIP3    H135594   1.883   0.944  13.346  0.6950  1.4650 -0.1805
 4701TIP3    H235595   1.754   0.970  13.271 -0.2188 -0.3202  0.7222
 4702TIP3   OH235596   5.882   4.171  14.910  0.1100 -0.7102 -0.1697
 4702TIP3    H135597   5.876   4.179  14.815  1.7955  0.1128 -0.2294
 4702TIP3    H235598   5.919   4.084  14.925 -1.1998 -1.2880 -0.2073
 4703TIP3   OH235599   3.472   6.105  17.179  0.5438  0.4048 -0.5466
 4703TIP3    H135600   3.399   6.045  17.167 -0.1763  0.9599  0.9013
 4703TIP3    H235601   3.431   6.192  17.187  1.4089  0.8115 -0.4366
 4704TIP3   OH235602   2.443   3.518   6.007  0.5521  0.2030 -0.0997
 4704TIP3    H135603   2.414   3.432   5.979  1.9755 -0.2970 -0.1113
 4704TIP3    H235604   2.387   3.579   5.959  0.5863 -0.6937 -1.3175
 4705TIP3   OH235605   4.942   1.232  13.774 -0.0929 -0.1167  0.6812
 4705TIP3    H135606   4.997   1.308  13.793 -0.8619  0.5501  0.2317
 4705TIP3    H235607   4.922   1.238  13.681 -0.1942 -0.8488  0.6496
 4706TIP3   OH235608   6.435   5.915  11.561 -0.2365  0.1412 -0.6513
 4706TIP3    H135609   6.520   5.955  11.578 -0.7962  0.8636  0.4994
 4706TIP3    H235610   6.412   5.943  11.472  0.7187 -0.0563 -0.9596
 4707TIP3   OH235611   2.193   0.784  13.078  0.3425  0.5112  0.4223
 4707TIP3    H135612   2.183   0.878  13.066 -0.9343  0.4692  1.0970
 4707TIP3    H235613   2.172   0.746  12.992  0.6685  0.8128  0.2058
 4708TIP3   OH235614   2.051   3.483  11.239 -0.0065 -0.0761 -0.3255
 4708TIP3    H135615   1.991   3.537  11.189 -1.3432  1.4610  2.8262
 4708TIP3    H235616   2.039   3.395  11.204 -1.0516  0.9097 -2.5158
 4709TIP3   OH235617   6.246   0.864   5.134 -0.4863  0.3365 -0.0429
 4709TIP3    H135618   6.237   0.771   5.113  1.9530 -0.0305  0.4182
 4709TIP3    H235619   6.196   0.875   5.215 -0.6163 -0.6184  0.0127
 4710TIP3   OH235620   1.953   6.766   1.957  0.4286 -0.5462 -0.7438
 4710TIP3    H135621   1.858   6.771   1.942 -0.1952 -1.6518  2.5124
 4710TIP3    H235622   1.984   6.854   1.937 -1.9579  1.0341  1.9901
 4711TIP3   OH235623   1.654   0.265  11.936 -0.7164  0.4201 -0.2459
 4711TIP3    H135624   1.631   0.299  11.850 -1.7963 -0.7751 -0.4375
 4711TIP3    H235625   1.747   0.286  11.945 -0.5543  0.4194 -1.7663
 4712TIP3   OH235626   5.262   5.276  11.790  0.3234  0.4505 -0.1442
 4712TIP3    H135627   5.342   5.307  11.832 -0.5943  0.1908  1.8370
 4712TIP3    H235628   5.276   5.294  11.697  3.1667 -0.6744  0.0003
 4713TIP3   OH235629   5.502   2.930   0.580  0.2377  0.8761  0.3833
 4713TIP3    H135630   5.439   2.874   0.534 -0.7085  1.6179  0.7515
 4713TIP3    H235631   5.511   2.890   0.667  0.3410  0.7141  0.2968
 4714TIP3   OH235632   1.501   5.879  15.304 -0.6471 -0.1867  1.1299
 4714TIP3    H135633   1.461   5.966  15.299  0.9104  0.4612 -0.5715
 4714TIP3    H235634   1.536   5.873  15.393 -0.7681  0.9357  1.2572
 4715TIP3   OH235635   2.883   6.743  15.187  0.2954  0.2474  0.4195
 4715TIP3    H135636   2.957   6.801  15.174  0.9290 -0.6411 -0.0038
 4715TIP3    H235637   2.833   6.750  15.106 -0.1635  0.9448  0.7562
 4716TIP3   OH235638   2.222   1.165  10.790  0.1252 -0.1920 -0.5142
 4716TIP3    H135639   2.214   1.141  10.698 -0.6745  0.9829 -0.7595
 4716TIP3    H235640   2.209   1.083  10.838  0.5464 -0.8001 -1.4418
 4717TIP3   OH235641   2.597   4.990   1.467  0.1369  0.3749 -0.3833
 4717TIP3    H135642   2.520   4.936   1.449 -0.2721  0.1135  2.0306
 4717TIP3    H235643   2.670   4.941   1.428 -0.5526 -0.7199 -0.3095
 4718TIP3   OH235644   0.095   0.219   1.367  0.3805  0.2088  0.2665
 4718TIP3    H135645   0.063   0.196   1.455 -0.6787  0.4092 -0.0577
 4718TIP3    H235646   0.058   0.306   1.351  0.3903  0.0805 -0.4642
 4719TIP3   OH235647   3.545   4.842  12.559 -0.1165 -0.2144  0.6030
 4719TIP3    H135648   3.618   4.874  12.505  0.2194  0.6945  1.5942
 4719TIP3    H235649   3.478   4.816  12.495  0.9203 -0.7029 -0.3016
 4720TIP3   OH235650   5.131   4.373  12.692  0.4107  0.7968  0.2979
 4720TIP3    H135651   5.121   4.380  12.787  1.7920 -0.0579  0.5264
 4720TIP3    H235652   5.117   4.280  12.673 -3.4480  1.5232 -0.8304
 4721TIP3   OH235653   4.662   3.010  16.706  0.3049 -0.9623  0.2588
 4721TIP3    H135654   4.587   2.960  16.674 -0.8673 -0.4364  2.0768
 4721TIP3    H235655   4.725   2.944  16.736 -0.0356 -1.3813  0.0401
 4722TIP3   OH235656   1.135   6.055   1.899  0.0647 -0.2058 -0.0028
 4722TIP3    H135657   1.173   5.981   1.946 -0.7567 -1.5170 -1.3593
 4722TIP3    H235658   1.149   6.034   1.807  0.0178  1.4395 -0.3867
 4723TIP3   OH235659   1.237   3.954   3.523 -0.6132  0.0170  0.1885
 4723TIP3    H135660   1.272   4.008   3.452  1.4442 -0.2172  0.9888
 4723TIP3    H235661   1.199   3.878   3.478 -0.0327  0.2608 -0.7257
 4724TIP3   OH235662   4.420   4.780   4.833  0.0951 -0.1056 -0.3936
 4724TIP3    H135663   4.397   4.871   4.851  1.0940 -0.0717  0.7591
 4724TIP3    H235664   4.336   4.733   4.839 -0.1492  0.4593  0.8397
 4725TIP3   OH235665   6.238   2.972  12.497 -0.7066  0.2464  0.6581
 4725TIP3    H135666   6.161   2.943  12.545 -1.6755  1.8538  0.1380
 4725TIP3    H235667   6.222   2.947  12.407 -0.9635  1.1907  0.4290
 4726TIP3   OH235668   6.250   2.400   2.692  0.0313  0.4417  0.0680
 4726TIP3    H135669   6.215   2.321   2.651 -0.0451  0.5988 -0.1758
 4726TIP3    H235670   6.185   2.468   2.673 -0.1140  0.4676  0.6492
 4727TIP3   OH235671   2.448   2.960   1.438  0.1154 -0.3169  0.2178
 4727TIP3    H135672   2.378   2.972   1.374  0.5604 -0.4161 -0.2965
 4727TIP3    H235673   2.403   2.934   1.518 -0.3861 -1.1182 -0.3077
 4728TIP3   OH235674   3.192   2.013   4.237  0.2226  0.0336  0.3687
 4728TIP3    H135675   3.189   1.952   4.164  0.8617  0.1670  0.2252
 4728TIP3    H235676   3.278   1.997   4.277 -0.1306 -0.0544  1.0976
 4729TIP3   OH235677   6.241   2.039  13.802  0.2452  0.5628 -0.4583
 4729TIP3    H135678   6.241   2.068  13.711  0.2854 -0.7241 -0.8694
 4729TIP3    H235679   6.330   2.057  13.833  0.6921 -0.4478 -1.1370
 4730TIP3   OH235680   4.812   4.849  13.701 -0.0118 -0.1257  0.2071
 4730TIP3    H135681   4.906   4.862  13.696 -0.0688  0.1993 -0.1356
 4730TIP3    H235682   4.775   4.936  13.683 -0.4310 -0.9220 -3.1879
 4731TIP3   OH235683   6.339   1.496  15.253  0.1987  0.0344 -0.3079
 4731TIP3    H135684   6.283   1.485  15.176 -1.2839 -0.6559  0.8508
 4731TIP3    H235685   6.310   1.578  15.292  0.3998 -0.0288 -0.0310
 4732TIP3   OH235686   6.641   5.800   0.235 -0.0351 -0.6758 -0.5227
 4732TIP3    H135687   6.596   5.765   0.159  1.7777 -1.4402 -1.2665
 4732TIP3    H235688   6.643   5.727   0.298  1.3269 -1.0858 -1.0183
 4733TIP3   OH235689   3.663   3.546   3.722 -0.2018  0.2074  0.3930
 4733TIP3    H135690   3.638   3.619   3.666  0.5612  0.3675  0.2654
 4733TIP3    H235691   3.746   3.572   3.762  0.9100 -1.2594 -0.9105
 4734TIP3   OH235692   0.545   2.544  15.271 -0.1895  0.1029 -0.0865
 4734TIP3    H135693   0.625   2.592  15.248  1.4097 -0.3999  3.9076
 4734TIP3    H235694   0.567   2.452  15.254 -0.4456  0.0923 -0.3584
 4735TIP3   OH235695   6.553   4.121  14.348 -0.3116 -0.4555  0.4290
 4735TIP3    H135696   6.635   4.150  14.308  0.3332 -1.0918  1.2634
 4735TIP3    H235697   6.485   4.156  14.292  0.5627 -0.6987 -0.7966
 4736TIP3   OH235698   3.690   2.768  13.609  0.3199 -0.0504  0.4814
 4736TIP3    H135699   3.658   2.789  13.521  0.9445 -0.0322  0.2508
 4736TIP3    H235700   3.772   2.818  13.616 -0.0230  0.4078  1.2937
 4737TIP3   OH235701   5.988   4.410   2.678  0.3621  1.1842 -0.2488
 4737TIP3    H135702   6.051   4.479   2.701  1.3640 -0.1561  1.1723
 4737TIP3    H235703   6.042   4.339   2.642 -0.6224  1.0144 -1.4339
 4738TIP3   OH235704   3.752   5.636   2.482  0.4579  0.4677  0.3652
 4738TIP3    H135705   3.810   5.587   2.424  2.1024  0.7593  1.7101
 4738TIP3    H235706   3.763   5.595   2.568  0.7221  2.2349  1.2029
 4739TIP3   OH235707   0.196   3.763   4.625  0.0409  0.3085  0.6008
 4739TIP3    H135708   0.179   3.823   4.552  0.8422  1.8263  1.6337
 4739TIP3    H235709   0.244   3.691   4.585  0.1283  0.9253 -0.4429
 4740TIP3   OH235710   4.714   2.037   0.336  0.3469  0.0390  0.0115
 4740TIP3    H135711   4.736   1.968   0.273 -0.3404 -0.0736 -0.1118
 4740TIP3    H235712   4.662   1.993   0.403  0.9295  0.1958  0.5700
 4741TIP3   OH235713   5.527   6.740  13.842  0.4746  0.5713 -0.3672
 4741TIP3    H135714   5.606   6.778  13.881  0.3655  2.1673 -1.6663
 4741TIP3    H235715   5.457   6.759  13.905  0.6459  1.4291 -0.4435
 4742TIP3   OH235716   5.728   1.931   1.360 -0.4267  0.2284 -0.1839
 4742TIP3    H135717   5.650   1.876   1.368 -0.0578 -0.1581  0.8531
 4742TIP3    H235718   5.745   1.934   1.266 -0.2208 -1.7899 -0.2390
 4743TIP3   OH235719   6.022   1.528  12.386 -0.1456 -0.4042  0.1313
 4743TIP3    H135720   6.026   1.437  12.355  0.4325 -0.3265 -0.0217
 4743TIP3    H235721   6.050   1.523  12.477 -0.7827 -0.4776  0.3236
 4744TIP3   OH235722   2.867   1.826  17.139  0.1474  0.0502  0.0993
 4744TIP3    H135723   2.845   1.878  17.216 -1.8429 -0.7977  0.1459
 4744TIP3    H235724   2.935   1.766  17.169  0.4530  0.7466  0.7966
 4745TIP3   OH235725   6.063   4.508   0.356 -0.4376  0.7115 -0.0755
 4745TIP3    H135726   6.070   4.457   0.436 -0.2871  0.7124 -0.0885
 4745TIP3    H235727   6.076   4.445   0.286 -1.2224  0.5888 -0.1198
 4746TIP3   OH235728   0.748   4.978   3.527  0.4801 -0.4479  0.4827
 4746TIP3    H135729   0.704   5.062   3.545  0.1839 -1.0428  2.7408
 4746TIP3    H235730   0.824   5.002   3.475 -1.1188  0.9001 -1.3133
 4747TIP3   OH235731   4.370   0.375  10.728  0.7624 -0.2028 -0.4952
 4747TIP3    H135732   4.361   0.317  10.652  3.6212  1.9850 -2.6390
 4747TIP3    H235733   4.454   0.350  10.767  0.3166  0.1108  0.7014
 4748TIP3   OH235734   0.683   1.494   6.155 -0.8626  0.8069  0.0339
 4748TIP3    H135735   0.657   1.407   6.126  0.6718  1.0816 -2.2921
 4748TIP3    H235736   0.722   1.480   6.242 -0.0648 -0.9268 -0.5822
 4749TIP3   OH235737   0.925   3.392  11.632 -0.3838 -0.5903 -0.1259
 4749TIP3    H135738   0.980   3.325  11.673 -0.1048 -0.2043  0.1349
 4749TIP3    H235739   0.836   3.366  11.654 -0.2248 -0.1181  1.1706
 4750TIP3   OH235740   1.141   1.380   5.649  0.5368  0.2965  0.0595
 4750TIP3    H135741   1.145   1.465   5.693 -0.8585  0.8095 -0.7523
 4750TIP3    H235742   1.130   1.317   5.719 -0.0105  0.9528  0.5725
 4751TIP3   OH235743   4.508   0.460   5.190 -0.1056  0.0107  0.3995
 4751TIP3    H135744   4.527   0.376   5.149 -0.6328 -0.1157  0.4156
 4751TIP3    H235745   4.421   0.449   5.228 -0.0920  0.4990  0.5720
 4752TIP3   OH235746   2.498   2.852  11.653  0.0906  0.2602 -0.0302
 4752TIP3    H135747   2.467   2.876  11.741  2.8857 -2.3132  1.7791
 4752TIP3    H235748   2.574   2.909  11.639  0.9030 -0.7697  0.1438
 4753TIP3   OH235749   2.095   5.167   4.255  0.5362 -0.0198 -0.2130
 4753TIP3    H135750   2.042   5.221   4.196 -0.3870 -0.1375  0.5005
 4753TIP3    H235751   2.031   5.114   4.302  1.3613 -0.9212 -0.0931
 4754TIP3   OH235752   1.056   6.809   4.272 -0.5720 -0.0897  0.3377
 4754TIP3    H135753   0.976   6.769   4.307  0.2036 -2.6508 -0.7339
 4754TIP3    H235754   1.120   6.801   4.343 -0.1843 -1.5408 -0.1593
 4755TIP3   OH235755   3.193   3.881  16.483  0.5612  0.2938  0.6281
 4755TIP3    H135756   3.121   3.847  16.535 -0.1038 -0.0070 -0.4738
 4755TIP3    H235757   3.217   3.964  16.525  1.7246 -1.1437  2.9192
 4756TIP3   OH235758   4.029   3.161   3.715 -0.3072 -0.0080 -0.5008
 4756TIP3    H135759   3.936   3.174   3.696 -0.0226  1.1357 -1.1802
 4756TIP3    H235760   4.037   3.177   3.809 -1.1161 -2.0604 -0.0591
 4757TIP3   OH235761   0.906   5.777  16.355  0.4902  0.0361  0.3545
 4757TIP3    H135762   0.866   5.831  16.424  0.1975 -0.8950  0.9248
 4757TIP3    H235763   0.953   5.839  16.300 -0.6955  0.9952  0.4159
 4758TIP3   OH235764   0.495   4.700  15.087 -0.1293 -0.0519 -0.1839
 4758TIP3    H135765   0.512   4.733  15.175 -2.4214 -0.1630  0.3491
 4758TIP3    H235766   0.494   4.778  15.032 -0.2814  0.2037  0.1768
 4759TIP3   OH235767   0.164   0.513   1.062  0.3970 -0.1520 -0.2546
 4759TIP3    H135768   0.101   0.454   1.021  0.1922 -0.3023  0.2745
 4759TIP3    H235769   0.248   0.491   1.020  0.5432 -1.6444  0.7641
 4760TIP3   OH235770   2.558   5.251  16.113  0.3846 -0.0441  1.0211
 4760TIP3    H135771   2.633   5.262  16.055 -0.1971  1.7385  0.5648
 4760TIP3    H235772   2.577   5.171  16.162  1.4810 -0.8938 -0.7249
 4761TIP3   OH235773   4.588   3.404   4.105 -0.0742  0.7816 -0.1774
 4761TIP3    H135774   4.671   3.391   4.150 -0.3502 -0.0712  0.0977
 4761TIP3    H235775   4.522   3.380   4.170 -0.4960  0.2173 -0.8144
 4762TIP3   OH235776   0.672   4.277   1.749 -0.6624  0.1220 -0.2999
 4762TIP3    H135777   0.642   4.212   1.686 -1.9947  2.1416 -1.7925
 4762TIP3    H235778   0.596   4.334   1.762 -0.0471  0.3967  2.2902
 4763TIP3   OH235779   0.841   0.139   1.788  0.1803  0.1253  0.0060
 4763TIP3    H135780   0.883   0.224   1.800 -2.0213  1.3284 -0.5761
 4763TIP3    H235781   0.886   0.100   1.713  0.6447  1.1420 -0.2476
 4764TIP3   OH235782   5.453   4.371   1.413  0.2364 -0.1061  0.1193
 4764TIP3    H135783   5.446   4.366   1.509 -0.9367 -0.0373  0.0486
 4764TIP3    H235784   5.542   4.342   1.394  0.0078 -1.5310  1.1284
 4765TIP3   OH235785   6.098   5.235   2.287 -1.0692 -0.2157  0.2213
 4765TIP3    H135786   6.112   5.169   2.220 -2.0385 -1.4305  1.1966
 4765TIP3    H235787   6.008   5.265   2.274 -1.3264 -0.5874  1.0816
 4766TIP3   OH235788   3.456   6.732  15.612 -0.0614  0.1203 -0.3970
 4766TIP3    H135789   3.511   6.655  15.596  0.7335  0.3155  1.3122
 4766TIP3    H235790   3.367   6.701  15.602  0.2377 -1.1522  0.7592
 4767TIP3   OH235791   5.157   2.125  16.607  0.2404 -0.4576 -0.1294
 4767TIP3    H135792   5.093   2.104  16.540  1.2042 -0.8887 -0.9248
 4767TIP3    H235793   5.106   2.134  16.687 -1.1363  1.6386 -1.1978
 4768TIP3   OH235794   6.434   1.012  11.311  0.2407 -0.0530 -0.1818
 4768TIP3    H135795   6.371   1.063  11.362  1.4333 -1.4902  2.8674
 4768TIP3    H235796   6.383   0.938  11.277 -0.2201  0.0208  0.3477
 4769TIP3   OH235797   6.483   5.397   5.863  0.2285  0.1889  0.4520
 4769TIP3    H135798   6.404   5.343   5.870  0.5747 -0.7340 -2.1203
 4769TIP3    H235799   6.491   5.416   5.769  2.5372  1.0542  0.7895
 4770TIP3   OH235800   5.747   2.265   5.835  0.3130  0.0332  0.1494
 4770TIP3    H135801   5.719   2.211   5.762 -3.1066  0.3282  1.1520
 4770TIP3    H235802   5.788   2.204   5.897  1.7731 -0.4463 -1.2602
 4771TIP3   OH235803   2.104   3.253   5.343  0.2088 -0.1442 -0.0845
 4771TIP3    H135804   2.113   3.295   5.429 -1.0422 -0.1263  0.0520
 4771TIP3    H235805   2.135   3.163   5.357 -2.8391 -1.0656  1.2028
 4772TIP3   OH235806   5.072   5.595  13.511 -0.0927 -0.1800  0.5563
 4772TIP3    H135807   5.135   5.667  13.501  0.4198 -1.1149 -3.7634
 4772TIP3    H235808   4.988   5.639  13.526  0.3124  1.3309 -1.3814
 4773TIP3   OH235809   1.180   5.427  12.645 -0.2043  0.2145 -0.1164
 4773TIP3    H135810   1.217   5.350  12.603  1.2555  0.2000  1.1249
 4773TIP3    H235811   1.154   5.397  12.732  1.3388  1.3062  0.7709
 4774TIP3   OH235812   0.412   1.379   5.645  0.7549  0.1672  0.1335
 4774TIP3    H135813   0.332   1.396   5.695  0.3823 -1.2986  0.0583
 4774TIP3    H235814   0.443   1.295   5.678  0.5847 -0.7622 -1.9763
 4775TIP3   OH235815   1.772   3.500   1.650 -0.3479 -0.1830  0.5754
 4775TIP3    H135816   1.738   3.588   1.666 -1.1213 -0.4833  0.6373
 4775TIP3    H235817   1.693   3.446   1.643  0.1614 -1.0848  1.7513
 4776TIP3   OH235818   4.862   3.986   1.064  0.2162 -0.2617 -0.1776
 4776TIP3    H135819   4.866   4.048   1.137  0.3353 -0.9375  0.3945
 4776TIP3    H235820   4.774   3.998   1.028 -0.2061 -0.6353  0.7103
 4777TIP3   OH235821   5.084   3.165   4.005  0.0128 -0.7495  0.0567
 4777TIP3    H135822   4.990   3.147   4.010  0.0280 -0.5528  1.4795
 4777TIP3    H235823   5.126   3.079   4.008 -0.1181 -0.8321 -0.4770
 4778TIP3   OH235824   4.994   3.825  16.598  0.7550  0.0578 -0.1511
 4778TIP3    H135825   4.992   3.748  16.542  0.7648 -1.9553  2.5128
 4778TIP3    H235826   4.906   3.831  16.635  0.8127  1.2119 -0.1640
 4779TIP3   OH235827   2.025   3.634   3.424  0.0798 -0.3360  0.4095
 4779TIP3    H135828   2.108   3.597   3.392  1.0478  0.8847  1.4787
 4779TIP3    H235829   1.995   3.690   3.353 -0.3679 -1.5890 -0.4031
 4780TIP3   OH235830   5.393   5.296  13.395  0.1112  0.0252  0.1012
 4780TIP3    H135831   5.450   5.371  13.377  0.2041 -0.2094 -0.5981
 4780TIP3    H235832   5.349   5.279  13.312  1.1867 -1.6071 -0.1680
 4781TIP3   OH235833   4.048   4.305  15.536  0.4364  0.3949  0.2583
 4781TIP3    H135834   4.099   4.379  15.568  1.4827  0.1577 -0.8179
 4781TIP3    H235835   4.091   4.228  15.574  0.4917  0.2305 -0.1383
 4782TIP3   OH235836   1.158   2.930   6.359  0.4556  0.4098 -0.7227
 4782TIP3    H135837   1.237   2.919   6.412  0.1653  0.4056 -0.2881
 4782TIP3    H235838   1.092   2.962   6.421 -0.4682 -1.6092 -0.6198
 4783TIP3   OH235839   6.482   0.069  10.807  0.2110 -0.1781 -0.0498
 4783TIP3    H135840   6.454   0.053  10.717  1.0433  0.7686 -0.4689
 4783TIP3    H235841   6.419   0.019  10.860  0.3434 -1.5720 -1.1860
 4784TIP3   OH235842   0.337   1.847  14.031 -0.0852  0.4096  0.0287
 4784TIP3    H135843   0.344   1.875  13.940 -3.7431 -1.5565 -0.9596
 4784TIP3    H235844   0.310   1.925  14.079  0.2937  1.0698 -0.8406
 4785TIP3   OH235845   4.382   3.706  14.070 -0.0941 -0.5652 -0.1080
 4785TIP3    H135846   4.322   3.717  14.144 -2.1789 -1.6588 -1.5761
 4785TIP3    H235847   4.457   3.660  14.107 -1.4352 -1.7475  1.2270
 4786TIP3   OH235848   0.064   4.345   3.317  0.1522 -0.3459  0.5716
 4786TIP3    H135849   0.079   4.250   3.312  0.4950 -0.2096 -1.0233
 4786TIP3    H235850   0.150   4.381   3.337  0.1656 -0.3009  0.4281
 4787TIP3   OH235851   4.409   5.795  11.194 -0.1278  0.2255  0.1742
 4787TIP3    H135852   4.452   5.828  11.273 -1.5759  1.2853  0.5557
 4787TIP3    H235853   4.402   5.872  11.137  0.3124 -0.3871 -0.7327
 4788TIP3   OH235854   5.279   5.648  11.903 -0.0730 -0.0232  0.2260
 4788TIP3    H135855   5.210   5.624  11.965 -0.2780 -2.5477 -0.9170
 4788TIP3    H235856   5.328   5.567  11.889 -0.3685  0.3369 -3.3186
 4789TIP3   OH235857   1.169   5.364   3.570 -0.8932  0.3117 -0.2116
 4789TIP3    H135858   1.176   5.458   3.552  0.1030 -0.2327 -2.8465
 4789TIP3    H235859   1.140   5.326   3.487  1.2715 -2.0164  0.0547
 4790TIP3   OH235860   1.925   4.492   0.394 -0.1689  0.7270  0.5062
 4790TIP3    H135861   1.983   4.416   0.397 -0.4256  0.5493  0.9436
 4790TIP3    H235862   1.847   4.461   0.348  0.1425  1.0110 -0.2292
 4791TIP3   OH235863   1.081   0.496  12.088 -0.0928 -0.1068  0.2811
 4791TIP3    H135864   1.137   0.419  12.095 -0.8855 -0.7001  0.1763
 4791TIP3    H235865   1.106   0.551  12.163 -2.6597 -2.5573  3.0968
 4792TIP3   OH235866   2.328   1.559  17.122 -0.3948  0.7076 -0.3482
 4792TIP3    H135867   2.292   1.641  17.155 -0.9589  0.8530 -1.2823
 4792TIP3    H235868   2.260   1.494  17.139 -0.9432  0.8956 -1.7038
 4793TIP3   OH235869   1.987   6.777   4.025  0.3117 -0.3558  0.0639
 4793TIP3    H135870   1.949   6.815   4.105  0.7103  0.7045 -0.2433
 4793TIP3    H235871   1.938   6.819   3.954  0.7166 -0.4660 -0.2772
 4794TIP3   OH235872   3.310   4.516   6.289  0.4022  0.1387 -0.1492
 4794TIP3    H135873   3.270   4.430   6.277 -1.6582  1.2670 -1.5788
 4794TIP3    H235874   3.250   4.562   6.348  1.0424  0.9017 -0.0907
 4795TIP3   OH235875   3.419   1.965  14.961  0.0395 -0.3175 -0.1547
 4795TIP3    H135876   3.335   1.992  14.998 -0.3180 -1.1874 -0.3124
 4795TIP3    H235877   3.461   2.047  14.935 -1.8587 -0.0259 -2.4580
 4796TIP3   OH235878   1.501   2.647  12.191 -1.3965 -0.4441  0.1866
 4796TIP3    H135879   1.423   2.657  12.137 -0.6015  1.8789 -0.5597
 4796TIP3    H235880   1.551   2.579  12.147 -0.6326  1.6052 -2.2010
 4797TIP3   OH235881   3.460   4.371  13.832  0.3259 -0.1246 -0.1863
 4797TIP3    H135882   3.390   4.392  13.893 -2.0355 -1.5913 -2.3070
 4797TIP3    H235883   3.440   4.421  13.754  1.5646 -0.6813 -0.8724
 4798TIP3   OH235884   0.424   2.251  14.970  0.5729  0.1821 -0.1278
 4798TIP3    H135885   0.501   2.238  14.914  0.2074  0.7745 -0.7873
 4798TIP3    H235886   0.447   2.210  15.053  1.2845 -0.3646 -0.5852
 4799TIP3   OH235887   6.596   1.781  11.943  0.6939  0.1102  0.0846
 4799TIP3    H135888   6.638   1.705  11.984  0.8265 -1.0169 -2.0712
 4799TIP3    H235889   6.503   1.765  11.953  0.7053 -0.9135 -1.3492
 4800TIP3   OH235890   6.649   5.707   1.851  0.0135 -0.4625 -0.0518
 4800TIP3    H135891   6.641   5.775   1.785 -0.6835 -0.0529  0.4451
 4800TIP3    H235892   6.677   5.629   1.803  3.8707  0.9406 -0.1715
 4801TIP3   OH235893   4.091   5.618   4.066  0.1556 -0.1244  0.7937
 4801TIP3    H135894   4.071   5.654   3.980  0.7054 -1.1589  0.2390
 4801TIP3    H235895   4.124   5.693   4.116  0.9857  0.2119 -0.2614
 4802TIP3   OH235896   0.312   4.518   4.942 -0.3370  0.2220 -0.3174
 4802TIP3    H135897   0.313   4.520   5.037 -0.9774 -0.7860 -0.2829
 4802TIP3    H235898   0.288   4.607   4.916 -0.2648  0.4684  0.4634
 4803TIP3   OH235899   2.652   4.503   1.189  0.5943 -0.6003 -0.1115
 4803TIP3    H135900   2.673   4.552   1.109  0.8128  0.5218  0.6376
 4803TIP3    H235901   2.720   4.527   1.251  0.0841 -1.0121  0.6146
 4804TIP3   OH235902   4.359   3.177  12.886  0.0955 -0.2237 -0.5003
 4804TIP3    H135903   4.270   3.201  12.860  0.1255 -0.2309 -0.6098
 4804TIP3    H235904   4.374   3.225  12.967  0.1801  0.1914 -0.7607
 4805TIP3   OH235905   0.917   2.044  12.015 -0.2822 -0.3681 -0.4929
 4805TIP3    H135906   0.895   1.957  11.980 -0.5589  0.1886 -1.7344
 4805TIP3    H235907   0.982   2.078  11.954 -1.6504  1.1012 -1.1682
 4806TIP3   OH235908   0.207   4.093  14.569 -0.3451 -0.6837 -0.4889
 4806TIP3    H135909   0.198   4.102  14.664  2.0962  0.2678 -0.2962
 4806TIP3    H235910   0.200   3.999  14.553 -0.4249 -0.8865  0.6743
 4807TIP3   OH235911   4.090   2.583  14.321  0.2188  0.4501  0.0647
 4807TIP3    H135912   4.073   2.665  14.275 -0.2359  0.3490  0.0550
 4807TIP3    H235913   4.008   2.564  14.368  0.3717  0.0776  0.1828
 4808TIP3   OH235914   4.130   4.327   4.251 -0.1578  0.0044 -0.4157
 4808TIP3    H135915   4.133   4.422   4.247 -0.1548 -0.1015 -3.4414
 4808TIP3    H235916   4.046   4.308   4.294 -0.2954  1.3384 -0.0671
 4809TIP3   OH235917   4.506   5.844  12.091 -0.3880  1.0881 -0.6783
 4809TIP3    H135918   4.527   5.772  12.151  0.4919  2.0648  0.1949
 4809TIP3    H235919   4.450   5.803  12.025 -1.0488 -0.0952  0.5717
 4810TIP3   OH235920   4.479   3.958   3.484  0.2458 -0.0359 -0.1074
 4810TIP3    H135921   4.423   3.888   3.451 -0.9688  0.6676  0.3977
 4810TIP3    H235922   4.568   3.929   3.466 -0.2732 -1.3198 -0.6560
 4811TIP3   OH235923   5.329   0.117  15.089 -0.0529 -0.3860  0.7366
 4811TIP3    H135924   5.273   0.174  15.140  0.7616 -0.2347  1.4636
 4811TIP3    H235925   5.291   0.030  15.099 -1.2062 -0.0018 -0.2486
 4812TIP3   OH235926   0.193   4.730   0.684  0.1132  0.5305  0.0131
 4812TIP3    H135927   0.257   4.667   0.652 -0.4011  0.4820 -0.9278
 4812TIP3    H235928   0.193   4.718   0.779  2.0845  1.1078  0.0955
 4813TIP3   OH235929   1.604   5.459  14.214  0.5938  0.0328 -0.0266
 4813TIP3    H135930   1.657   5.472  14.292  0.4625  0.5466 -0.0241
 4813TIP3    H235931   1.662   5.413  14.153  1.2140  1.0403 -0.2133
 4814TIP3   OH235932   2.753   5.372  14.376 -0.0697  0.5842 -0.5365
 4814TIP3    H135933   2.739   5.285  14.340 -0.6971  1.3908 -2.3407
 4814TIP3    H235934   2.746   5.430  14.300 -1.2194  2.3405  0.8668
 4815TIP3   OH235935   5.103   1.449  14.100  0.1225  0.2546  0.5987
 4815TIP3    H135936   5.077   1.458  14.192 -1.5193 -2.1654  0.4149
 4815TIP3    H235937   5.159   1.371  14.099  1.5205  1.2450 -0.2129
 4816TIP3   OH235938   6.423   5.202  15.574 -0.2885  0.4205  0.2063
 4816TIP3    H135939   6.456   5.189  15.485  0.5703 -1.3967  0.7668
 4816TIP3    H235940   6.336   5.163  15.574 -0.7040  1.3399 -0.1094
 4817TIP3   OH235941   5.037   5.859  15.034 -0.5505 -0.0898  0.0905
 4817TIP3    H135942   5.053   5.952  15.021  2.2007 -0.7525 -1.8408
 4817TIP3    H235943   5.060   5.819  14.950  1.2234 -2.8209  1.7742
 4818TIP3   OH235944   4.616   1.475  16.447 -0.1188  0.2722 -0.3920
 4818TIP3    H135945   4.521   1.469  16.452 -0.2074  2.3817  1.0502
 4818TIP3    H235946   4.648   1.408  16.509 -0.6224 -0.9899 -1.4734
 4819TIP3   OH235947   6.092   5.734  16.680  0.4273 -0.0944  0.2330
 4819TIP3    H135948   6.179   5.718  16.717  0.7005 -0.7185 -0.6709
 4819TIP3    H235949   6.109   5.784  16.599  0.1722 -2.7863 -1.5456
 4820TIP3   OH235950   6.568   5.762  15.396 -0.3287 -0.2337 -0.0975
 4820TIP3    H135951   6.536   5.839  15.444  4.4686  0.1178  2.8541
 4820TIP3    H235952   6.567   5.789  15.304  1.8663  3.6641  0.9318
 4821TIP3   OH235953   4.004   1.171  11.724  0.0016 -0.4978  0.1696
 4821TIP3    H135954   4.020   1.240  11.789 -2.3958  1.4347 -1.1839
 4821TIP3    H235955   3.992   1.219  11.642 -3.2085 -2.3918 -0.5444
 4822TIP3   OH235956   0.820   0.808  17.090  0.0500 -0.0020 -0.8738
 4822TIP3    H135957   0.790   0.819  17.180 -0.6750  0.6183 -1.1849
 4822TIP3    H235958   0.906   0.849  17.088 -0.1885  0.5193 -0.6070
 4823TIP3   OH235959   2.010   0.502   3.698  0.2260  0.1833  0.1106
 4823TIP3    H135960   1.941   0.437   3.688 -2.5136  2.7850  1.2919
 4823TIP3    H235961   2.014   0.519   3.792  0.5204  2.0861 -0.2175
 4824TIP3   OH235962   2.543   5.677   5.061  0.3579 -0.5993 -0.6863
 4824TIP3    H135963   2.623   5.728   5.047  0.1994 -0.1222  0.1057
 4824TIP3    H235964   2.570   5.586   5.047  1.8717 -0.7914  2.7959
 4825TIP3   OH235965   4.281   5.129   0.640 -0.2406  0.4184 -0.5670
 4825TIP3    H135966   4.242   5.190   0.702 -1.9531 -0.9961 -0.2183
 4825TIP3    H235967   4.285   5.046   0.687  1.2218  0.0218 -1.3506
 4826TIP3   OH235968   0.300   6.557   5.253 -0.6136 -0.6879  0.1472
 4826TIP3    H135969   0.367   6.506   5.297 -1.5738 -0.6123  1.7306
 4826TIP3    H235970   0.345   6.636   5.224 -0.1148 -0.3865  1.6856
 4827TIP3   OH235971   4.477   4.980  15.737 -0.2049 -0.0287  0.1768
 4827TIP3    H135972   4.489   5.075  15.745  2.7392 -0.4081  0.5720
 4827TIP3    H235973   4.551   4.942  15.784 -0.0786 -2.5332 -1.9279
 4828TIP3   OH235974   6.513   6.720  14.843  0.1359  0.2085  0.3523
 4828TIP3    H135975   6.530   6.730  14.750 -1.3116 -3.4917 -0.4143
 4828TIP3    H235976   6.419   6.737  14.852 -0.1023 -1.2305  0.7917
 4829TIP3   OH235977   4.025   4.447  14.549 -0.2805 -0.2806 -0.2746
 4829TIP3    H135978   3.943   4.398  14.555 -1.2694  1.4693  0.7995
 4829TIP3    H235979   4.030   4.475  14.458 -2.7909  2.7916  0.4633
 4830TIP3   OH235980   0.047   5.562  14.870  0.2629  0.0569  0.5847
 4830TIP3    H135981   0.122   5.520  14.912 -0.5962 -1.4622  0.6399
 4830TIP3    H235982  -0.001   5.602  14.943  0.9125  0.8582  0.5732
 4831TIP3   OH235983   1.179   0.179   3.353  0.5516 -0.2697 -0.1891
 4831TIP3    H135984   1.157   0.094   3.315 -0.5200 -0.1193  0.0558
 4831TIP3    H235985   1.094   0.222   3.363  1.0926  0.8427 -0.3479
 4832TIP3   OH235986   3.192   4.411   2.266  0.6334 -0.5817 -0.0866
 4832TIP3    H135987   3.104   4.433   2.296 -0.1352 -0.6401 -2.2310
 4832TIP3    H235988   3.249   4.475   2.307 -0.3736 -0.6923  1.5122
 4833TIP3   OH235989   2.119   2.883   0.768  0.0283  0.6558  0.0178
 4833TIP3    H135990   2.118   2.817   0.700  0.0193 -0.8328  1.4387
 4833TIP3    H235991   2.200   2.867   0.816 -0.8117  0.5746  1.4293
 4834TIP3   OH235992   5.153   2.853   0.744  0.1408 -0.1632 -0.3546
 4834TIP3    H135993   5.145   2.852   0.839  0.5876 -0.1326 -0.3144
 4834TIP3    H235994   5.211   2.780   0.723 -0.0202 -0.2213 -0.6113
 4835TIP3   OH235995   4.012   3.954   4.663  0.0074 -0.1224 -0.1416
 4835TIP3    H135996   4.011   3.918   4.574  0.0151  1.7907 -0.9392
 4835TIP3    H235997   4.100   3.990   4.673  0.0883 -0.5437  0.7594
 4836TIP3   OH235998   0.133   3.467   1.457 -0.0750  0.1700 -0.0070
 4836TIP3    H135999   0.190   3.477   1.533  0.7888  0.1656 -0.6446
 4836TIP3    H236000   0.126   3.373   1.445  0.3111  0.1775 -0.3123
 4837TIP3   OH236001   6.261   6.524  14.413 -0.9658 -0.9106  0.4381
 4837TIP3    H136002   6.197   6.537  14.343 -1.0998 -1.6852  0.4115
 4837TIP3    H236003   6.335   6.580  14.389 -1.4878 -0.2787  0.2900
 4838TIP3   OH236004   6.612   1.800   6.801 -0.1695 -0.0587 -0.2482
 4838TIP3    H136005   6.540   1.859   6.778  0.6783 -0.2461 -3.8168
 4838TIP3    H236006   6.681   1.858   6.832 -0.2653  0.6177 -1.2454
 4839TIP3   OH236007   6.813   2.449  11.348 -0.7021  0.1994  0.0784
 4839TIP3    H136008   6.878   2.398  11.395 -0.7755  0.3090  0.3037
 4839TIP3    H236009   6.823   2.424  11.257 -1.4727 -1.0347  0.3188
 4840TIP3   OH236010   3.509   2.282   2.445 -0.1871  0.2959 -0.4935
 4840TIP3    H136011   3.423   2.324   2.452  0.1389  0.8069  0.4971
 4840TIP3    H236012   3.489   2.189   2.439 -0.7396  0.2027  2.2407
 4841TIP3   OH236013   6.229   3.191   4.389 -0.4282 -0.2689  0.1437
 4841TIP3    H136014   6.284   3.196   4.311  1.5077  1.2415  1.5560
 4841TIP3    H236015   6.225   3.097   4.410 -0.5431 -0.6331 -1.4387
 4842TIP3   OH236016   4.398   4.411   5.422  0.2197  0.0672 -0.1807
 4842TIP3    H136017   4.324   4.401   5.363  0.0878  0.1941 -0.0387
 4842TIP3    H236018   4.371   4.365   5.502  0.4496 -0.2180 -0.2669
 4843TIP3   OH236019   1.890   2.851   2.567  0.0675 -0.3032 -0.4945
 4843TIP3    H136020   1.925   2.899   2.641 -0.2028 -0.5866 -0.1815
 4843TIP3    H236021   1.931   2.764   2.572 -1.8519 -1.1683  0.7894
 4844TIP3   OH236022   3.273   4.230   1.560  0.7041  0.4091  0.0388
 4844TIP3    H136023   3.179   4.244   1.545  0.6999  0.4365  0.0915
 4844TIP3    H236024   3.278   4.192   1.648  0.8215  1.3962  0.4597
 4845TIP3   OH236025   5.995   2.886  15.539  0.7993 -0.0946  0.0019
 4845TIP3    H136026   6.074   2.935  15.514  0.3557  0.3891 -0.4784
 4845TIP3    H236027   6.020   2.839  15.618  1.6359 -0.1050 -0.2574
 4846TIP3   OH236028   6.131   1.599   0.583  0.5692 -0.3018 -0.1648
 4846TIP3    H136029   6.189   1.629   0.513  0.8929 -0.9327 -0.1683
 4846TIP3    H236030   6.060   1.554   0.538 -0.0684  0.6862 -0.1769
 4847TIP3   OH236031   1.134   2.458   2.752  0.5758  0.0848  0.0784
 4847TIP3    H136032   1.139   2.456   2.657  1.0592  0.5416  0.0907
 4847TIP3    H236033   1.046   2.490   2.772  0.6170  0.3822 -0.2198
 4848TIP3   OH236034   1.369   1.541   1.356  0.0295 -0.7128  0.7055
 4848TIP3    H136035   1.360   1.533   1.261  0.2617 -0.2846  0.6423
 4848TIP3    H236036   1.289   1.504   1.392 -0.1477 -0.6905  0.3299
 4849TIP3   OH236037   6.143   3.678  11.162  0.0823 -0.5014 -0.0857
 4849TIP3    H136038   6.207   3.736  11.202  1.2544 -0.7466 -1.5428
 4849TIP3    H236039   6.101   3.733  11.095  0.0178 -0.8489 -0.3287
 4850TIP3   OH236040   5.601   4.224   4.710  0.2681 -0.2054 -0.1589
 4850TIP3    H136041   5.694   4.208   4.694 -0.2682 -0.8492 -2.8418
 4850TIP3    H236042   5.573   4.153   4.768  1.1236 -0.8784 -0.5651
 4851TIP3   OH236043   4.405   3.124  14.227 -0.1773 -0.0316  0.1937
 4851TIP3    H136044   4.321   3.169  14.232  0.4459  1.0510  1.2512
 4851TIP3    H236045   4.385   3.032  14.241 -1.4443 -0.0655 -1.7448
 4852TIP3   OH236046   4.120   6.265   4.811 -0.5025  0.2665  0.3032
 4852TIP3    H136047   4.132   6.360   4.805  0.3341  0.1097 -0.7260
 4852TIP3    H236048   4.209   6.231   4.822 -0.7989 -0.4059  0.6345
 4853TIP3   OH236049   0.768   4.290  13.368  0.3382  0.0098 -0.5582
 4853TIP3    H136050   0.780   4.385  13.370 -1.7715  0.2974 -0.5894
 4853TIP3    H236051   0.719   4.273  13.288 -0.2380 -0.9864 -0.0073
 4854TIP3   OH236052   0.480   2.844  16.493  0.4924  0.3096 -0.5589
 4854TIP3    H136053   0.556   2.850  16.435  2.1031  0.6283  1.5146
 4854TIP3    H236054   0.451   2.935  16.504 -0.4036  0.1581 -1.5989
 4855TIP3   OH236055   1.596   1.569   6.440 -1.0093 -0.2263 -0.2224
 4855TIP3    H136056   1.583   1.491   6.386 -4.5588  0.0238  0.1159
 4855TIP3    H236057   1.545   1.552   6.519  0.7631  1.1437  1.2529
 4856TIP3   OH236058   2.865   1.035   3.381 -0.2312  0.1119  0.3195
 4856TIP3    H136059   2.860   1.006   3.472  2.2933  1.5089  0.9297
 4856TIP3    H236060   2.952   1.010   3.351 -1.0876 -0.4948 -1.8051
 4857TIP3   OH236061   4.349   0.530  14.208  0.3865  0.1652  0.0494
 4857TIP3    H136062   4.330   0.439  14.230  1.2165  0.2133  0.9835
 4857TIP3    H236063   4.281   0.580  14.253  1.4975  0.1908  1.7387
 4858TIP3   OH236064   5.589   2.916   5.543 -0.1966  0.0630 -0.6373
 4858TIP3    H136065   5.603   3.010   5.543 -1.4767  0.2606 -1.5382
 4858TIP3    H236066   5.659   2.882   5.486 -0.0228  0.5092 -0.6908
 4859TIP3   OH236067   2.864   6.429   5.961 -0.2410 -0.1295 -0.3533
 4859TIP3    H136068   2.798   6.382   6.012 -1.0717  0.8026 -0.5504
 4859TIP3    H236069   2.861   6.519   5.994 -1.5916  0.7588 -2.7708
 4860TIP3   OH236070   2.209   2.046  15.551  0.0742  0.0328  0.2283
 4860TIP3    H136071   2.152   2.095  15.492 -1.3916  0.3466  1.8796
 4860TIP3    H236072   2.160   1.967  15.572  0.8885 -0.4100  0.4632
 4861TIP3   OH236073   6.350   4.313  16.881 -0.4436 -0.2069 -0.1300
 4861TIP3    H136074   6.369   4.341  16.971 -1.3812  0.3728 -0.1043
 4861TIP3    H236075   6.309   4.227  16.891 -1.9589  0.5293  0.1065
 4862TIP3   OH236076   1.322   4.907  15.680 -0.5023  0.2505 -0.3402
 4862TIP3    H136077   1.362   4.937  15.761 -1.0455 -0.8331  0.3452
 4862TIP3    H236078   1.296   4.987  15.634 -0.9944  0.8481  0.9635
 4863TIP3   OH236079   0.538   5.459  15.482 -0.1648  0.1155 -0.0875
 4863TIP3    H136080   0.474   5.527  15.460 -0.3054 -0.1808 -0.5830
 4863TIP3    H236081   0.621   5.507  15.491 -0.6936  0.7001  1.8961
 4864TIP3   OH236082   3.803   4.998   5.137 -0.4764 -0.0452  0.0235
 4864TIP3    H136083   3.727   5.054   5.154 -0.9381 -1.0862  1.4228
 4864TIP3    H236084   3.789   4.965   5.048 -1.5255 -0.0348  0.1833
 4865TIP3   OH236085   5.743   5.657  16.606  0.4479 -0.0721  0.2886
 4865TIP3    H136086   5.788   5.574  16.621  1.1076  0.3722  0.8104
 4865TIP3    H236087   5.653   5.633  16.585  0.8185 -0.9515 -0.3031
 4866TIP3   OH236088   2.873   2.763   5.769 -0.0686  0.1404  0.3991
 4866TIP3    H136089   2.956   2.804   5.793  0.7173 -1.1922  0.0157
 4866TIP3    H236090   2.818   2.774   5.847  1.4852 -1.5993  1.8065
 4867TIP3   OH236091   2.421   6.527  12.701  0.5548  0.1566  0.1839
 4867TIP3    H136092   2.378   6.445  12.726  0.3892  0.3130  0.4185
 4867TIP3    H236093   2.422   6.580  12.781  3.4563 -0.8172  0.8576
 4868TIP3   OH236094   2.197   2.839   3.948 -0.2677  0.5092  0.0883
 4868TIP3    H136095   2.128   2.792   3.995 -0.6031 -1.1614 -2.0210
 4868TIP3    H236096   2.190   2.929   3.980 -2.5407  0.0808  0.9028
 4869TIP3   OH236097   3.989   1.436   4.269 -0.1227  0.1123  0.3416
 4869TIP3    H136098   3.898   1.459   4.250 -0.2516  0.7268  1.6930
 4869TIP3    H236099   4.011   1.486   4.347  2.2613  2.1498 -1.5498
 4870TIP3   OH236100   0.894   3.210  14.312  0.6411 -0.0708 -0.0754
 4870TIP3    H136101   0.937   3.127  14.294 -0.9461 -0.4437 -2.3805
 4870TIP3    H236102   0.938   3.273  14.254 -0.5788 -0.0596 -1.0021
 4871TIP3   OH236103   6.700   6.410   3.386 -0.5162 -0.3243 -0.1819
 4871TIP3    H136104   6.778   6.424   3.332 -1.0916  0.1350 -0.8910
 4871TIP3    H236105   6.669   6.323   3.363 -0.8296 -0.0821 -0.6842
 4872TIP3   OH236106   0.608   6.087  11.279  0.3446 -0.1185 -0.2555
 4872TIP3    H136107   0.687   6.043  11.309  0.0942 -0.1091  0.4286
 4872TIP3    H236108   0.589   6.152  11.347 -1.9462 -2.1246  1.1383
 4873TIP3   OH236109   6.084   3.456   3.557  0.0350  0.0754  0.1787
 4873TIP3    H136110   6.079   3.376   3.609  1.1785  0.6604  1.2043
 4873TIP3    H236111   6.054   3.429   3.470 -1.6667 -0.9601  1.0598
 4874TIP3   OH236112   3.985   0.561   5.555 -0.0164 -0.3714  0.5782
 4874TIP3    H136113   4.019   0.621   5.488 -1.4787 -0.0739  0.0847
 4874TIP3    H236114   3.910   0.518   5.513  1.0022 -2.5618  0.9289
 4875TIP3   OH236115   3.941   2.862  15.613  0.1932  0.2334 -0.3171
 4875TIP3    H136116   4.034   2.865  15.590  0.5787 -0.6665  1.0295
 4875TIP3    H236117   3.931   2.779  15.660 -1.1754  0.5821  0.0249
 4876TIP3   OH236118   4.870   3.052   1.954 -0.0615 -0.1557 -0.3306
 4876TIP3    H136119   4.862   3.002   1.873  0.4351 -0.2836 -0.3028
 4876TIP3    H236120   4.852   3.142   1.928 -0.0962 -0.2249 -0.5470
 4877TIP3   OH236121   6.429   0.492   1.301 -0.3124 -0.4670  0.1893
 4877TIP3    H136122   6.480   0.423   1.259  1.0630  0.8215 -0.3110
 4877TIP3    H236123   6.467   0.499   1.389  1.5616  1.6201 -0.7229
 4878TIP3   OH236124   0.243   6.163   0.464 -0.1511  0.3551  0.0653
 4878TIP3    H136125   0.170   6.224   0.457 -0.8686 -0.7233 -2.3645
 4878TIP3    H236126   0.205   6.084   0.501  0.3896  0.7135  1.4254
 4879TIP3   OH236127   4.698   4.410  13.537 -0.4826 -0.5170 -0.5568
 4879TIP3    H136128   4.687   4.346  13.466  0.1720  2.3922 -3.3914
 4879TIP3    H236129   4.618   4.463  13.534  0.8197  1.4647 -1.1180
 4880TIP3   OH236130   6.808   4.653  14.000 -0.1063 -0.0703  0.4026
 4880TIP3    H136131   6.726   4.610  14.023 -0.6466 -0.2104 -1.7372
 4880TIP3    H236132   6.783   4.740  13.970  0.7751  0.8756  2.2964
 4881TIP3   OH236133   1.184   5.544   3.830 -0.2977  0.0220 -0.1074
 4881TIP3    H136134   1.258   5.546   3.771 -0.8502  1.3053 -0.7904
 4881TIP3    H236135   1.186   5.457   3.870  1.0411 -0.2548 -0.7721
 4882TIP3   OH236136   4.415   5.341   0.948  0.3538  0.7770  0.3896
 4882TIP3    H136137   4.412   5.335   1.043  1.1400  0.6565  0.4150
 4882TIP3    H236138   4.362   5.268   0.917  1.3037 -0.0643  0.7342
 4883TIP3   OH236139   5.181   4.604   1.686  0.2679  1.0859  0.0558
 4883TIP3    H136140   5.267   4.567   1.706 -0.4393 -0.8768 -0.5244
 4883TIP3    H236141   5.195   4.655   1.606  0.0470 -2.5437 -2.3727
 4884TIP3   OH236142   1.905   3.685  11.108 -0.4149 -0.0141  0.1640
 4884TIP3    H136143   1.813   3.665  11.126 -0.7104 -1.1106 -2.3142
 4884TIP3    H236144   1.902   3.749  11.037  0.7263  0.8723  0.9052
 4885TIP3   OH236145   2.752   4.531   5.536 -0.1642  0.0092 -0.4582
 4885TIP3    H136146   2.823   4.533   5.472 -0.3127  2.7889 -0.6203
 4885TIP3    H236147   2.736   4.623   5.556 -1.7042 -0.7132  1.8335
 4886TIP3   OH236148   0.386   6.039  11.708  0.2228  0.4277  0.0441
 4886TIP3    H136149   0.355   6.079  11.627  0.0197 -0.1655 -0.1745
 4886TIP3    H236150   0.326   5.966  11.723  0.3480  0.4459  0.6513
 4887TIP3   OH236151   6.402   0.028   3.651  0.0004  0.5202 -0.8189
 4887TIP3    H136152   6.428  -0.047   3.704  0.1501  2.1721  1.5173
 4887TIP3    H236153   6.430   0.005   3.562  0.2362 -2.0629 -0.1311
 4888TIP3   OH236154   2.374   2.524   1.162 -0.0221 -0.2101 -0.3631
 4888TIP3    H136155   2.303   2.475   1.121 -1.2911  0.7211  0.6482
 4888TIP3    H236156   2.390   2.478   1.245 -0.0108  0.0493 -0.2203
 4889TIP3   OH236157   1.197   5.489   5.336  0.3316 -0.0026  0.1514
 4889TIP3    H136158   1.106   5.506   5.314 -0.4577 -3.4003  0.5649
 4889TIP3    H236159   1.225   5.421   5.275  2.0931 -0.1665  1.0933
 4890TIP3   OH236160   0.255   1.682   3.762 -0.1317  0.1308 -0.5586
 4890TIP3    H136161   0.276   1.675   3.855 -0.7074 -0.5621 -0.4772
 4890TIP3    H236162   0.226   1.594   3.738  1.2958 -0.0449 -1.7081
 4891TIP3   OH236163   2.425   5.139   1.632  0.1843  0.3035 -0.0635
 4891TIP3    H136164   2.475   5.212   1.669 -0.8214  1.2071 -0.4422
 4891TIP3    H236165   2.472   5.116   1.552 -0.0388  1.2176 -0.4749
 4892TIP3   OH236166   6.502   1.273   2.619  0.1592  0.1529 -0.2378
 4892TIP3    H136167   6.580   1.312   2.581 -0.6985  2.2049  0.0270
 4892TIP3    H236168   6.533   1.195   2.664  1.4645 -1.2710 -3.4966
 4893TIP3   OH236169   5.127   1.640   1.923 -0.5085 -0.0244  0.0479
 4893TIP3    H136170   5.034   1.624   1.904 -0.4311 -0.7513  0.2569
 4893TIP3    H236171   5.132   1.639   2.019 -0.1311 -0.8899  0.0190
 4894TIP3   OH236172   2.825   2.707   2.874 -0.6391  0.0081  0.1441
 4894TIP3    H136173   2.820   2.697   2.779 -0.1141  0.2526  0.0888
 4894TIP3    H236174   2.910   2.749   2.889 -2.0249  2.7923  0.4970
 4895TIP3   OH236175   2.236   4.242  13.540  0.2960  0.4576  0.0584
 4895TIP3    H136176   2.171   4.253  13.470 -1.4189  0.4991  1.6424
 4895TIP3    H236177   2.186   4.247  13.621  1.8789 -2.1844  1.2757
 4896TIP3   OH236178   1.041   3.766  16.804  0.0195 -0.3087  0.2910
 4896TIP3    H136179   1.067   3.703  16.737 -1.6207 -0.2816 -0.3750
 4896TIP3    H236180   1.067   3.724  16.887 -2.1958 -2.4657 -0.0510
 4897TIP3   OH236181   4.228   5.994   4.464 -0.1137 -0.8043  0.2797
 4897TIP3    H136182   4.246   6.086   4.445  0.1760 -0.9520 -0.1580
 4897TIP3    H236183   4.137   5.993   4.494 -0.1507 -0.3908  0.1815
 4898TIP3   OH236184   2.002   5.243  13.791  0.0932 -0.4043 -0.5287
 4898TIP3    H136185   2.014   5.320  13.847 -0.1728 -1.7532  1.4135
 4898TIP3    H236186   1.927   5.266  13.736  0.9826  1.3320 -1.0543
 4899TIP3   OH236187   1.936   5.108   0.727  0.5749  0.0944  0.2451
 4899TIP3    H136188   1.863   5.070   0.679  0.0231  1.5734 -0.1017
 4899TIP3    H236189   1.928   5.072   0.815  0.7383 -1.4867 -0.3645
 4900TIP3   OH236190   5.655   3.806  16.509  0.2953 -0.0517  0.0207
 4900TIP3    H136191   5.639   3.825  16.416  0.2598  1.7516  0.3837
 4900TIP3    H236192   5.579   3.841  16.554 -0.4717 -2.3686  0.6192
 4901TIP3   OH236193   1.134   5.527  14.740 -0.3315 -0.2015  0.4810
 4901TIP3    H136194   1.223   5.544  14.709 -0.9242  2.0672 -0.1015
 4901TIP3    H236195   1.133   5.561  14.829 -0.6344 -0.0728  0.4309
 4902TIP3   OH236196   5.060   2.364   5.935  0.4234 -0.5126 -0.9730
 4902TIP3    H136197   5.082   2.278   5.969 -0.5979 -2.0613 -4.0336
 4902TIP3    H236198   4.969   2.378   5.960  1.0428  0.3858  0.8497
 4903TIP3   OH236199   0.002   6.265   2.666  0.4468  0.0010 -0.2375
 4903TIP3    H136200  -0.012   6.356   2.690 -1.3398 -1.2891  4.2776
 4903TIP3    H236201  -0.083   6.236   2.633  0.7245 -0.2837 -0.7059
 4904TIP3   OH236202   6.358   3.083  14.669  0.4909 -0.4418 -0.2131
 4904TIP3    H136203   6.415   3.108  14.742  2.7502 -2.5798 -1.1611
 4904TIP3    H236204   6.337   2.991  14.685  0.9885 -0.9272 -2.2287
 4905TIP3   OH236205   3.293   4.080   5.894  0.9792 -0.3555 -0.1371
 4905TIP3    H136206   3.340   4.095   5.976  0.7526  0.4805 -0.1582
 4905TIP3    H236207   3.206   4.116   5.909  1.7242  2.1678 -1.6119
 4906TIP3   OH236208   0.445   0.082  14.963  0.0328  0.3512  0.2023
 4906TIP3    H136209   0.438   0.051  15.053 -0.6672  1.0346  0.3911
 4906TIP3    H236210   0.385   0.157  14.959 -0.2111  0.1081 -0.9240
 4907TIP3   OH236211   6.267   5.513   0.134  0.1494  0.2818  0.3443
 4907TIP3    H136212   6.204   5.489   0.202 -0.7060  1.0830 -0.1582
 4907TIP3    H236213   6.250   5.450   0.063 -3.3599  3.3493 -1.7379
 4908TIP3   OH236214   5.315   0.696   0.327  0.0965  0.5157 -0.5499
 4908TIP3    H136215   5.228   0.657   0.318 -0.3328  1.2334  0.3152
 4908TIP3    H236216   5.303   0.763   0.395  1.8540 -0.9832  1.2958
 4909TIP3   OH236217   2.828   4.004   3.207 -0.2935 -0.1828  0.5304
 4909TIP3    H136218   2.896   4.035   3.267  0.5041  0.1982 -0.5427
 4909TIP3    H236219   2.758   3.971   3.264  0.8924 -0.8139  1.6422
 4910TIP3   OH236220   5.459   6.651   1.552  0.0141 -0.0325 -0.1209
 4910TIP3    H136221   5.551   6.672   1.534 -0.4140  1.6174 -0.5119
 4910TIP3    H236222   5.411   6.700   1.486 -1.2200  0.1973  0.9339
 4911TIP3   OH236223   0.284   4.007  14.113  0.1520  0.7453 -0.0160
 4911TIP3    H136224   0.362   3.985  14.164  0.1758 -0.1527 -0.4222
 4911TIP3    H236225   0.298   3.962  14.029 -0.9918  0.2595  0.0522
 4912TIP3   OH236226   6.438   2.616  12.371 -0.4803  0.0286  0.0853
 4912TIP3    H136227   6.494   2.539  12.371 -0.3928  0.0323 -2.7761
 4912TIP3    H236228   6.465   2.666  12.293 -2.5932  1.3898  0.1652
 4913TIP3   OH236229   4.713   0.733   2.031 -0.0327 -0.1020  0.0371
 4913TIP3    H136230   4.625   0.709   2.061  0.7605 -2.0809  0.8768
 4913TIP3    H236231   4.714   0.829   2.037 -2.0907 -0.0505  0.1179
 4914TIP3   OH236232   4.010   1.784   2.221  0.2329 -0.4522  0.2514
 4914TIP3    H136233   3.984   1.789   2.129  0.3190 -3.0400  0.0483
 4914TIP3    H236234   4.095   1.828   2.225  1.0367 -1.8203 -1.2722
 4915TIP3   OH236235   2.259   5.370  15.051 -0.6942  0.0798 -0.2137
 4915TIP3    H136236   2.197   5.357  15.123  1.1793 -2.3988  1.0240
 4915TIP3    H236237   2.209   5.352  14.972 -2.3691  1.2933  0.5336
 4916TIP3   OH236238   3.456   3.437   5.171  0.6044  0.0487 -0.1492
 4916TIP3    H136239   3.486   3.526   5.157  1.4087 -0.1284  0.3964
 4916TIP3    H236240   3.534   3.389   5.200 -0.0775 -0.5505  0.7310
 4917TIP3   OH236241   6.506   0.276   1.943 -0.4836 -0.1713 -0.2159
 4917TIP3    H136242   6.505   0.251   2.036 -1.7719 -0.4302 -0.2932
 4917TIP3    H236243   6.424   0.323   1.930  0.6148  1.6556 -0.7546
 4918TIP3   OH236244   0.560   5.971   5.642 -0.2430 -0.5311 -0.0440
 4918TIP3    H136245   0.582   5.964   5.549  0.9913 -0.5689  0.2394
 4918TIP3    H236246   0.645   5.971   5.687 -0.8195 -0.3179  1.0696
 4919TIP3   OH236247   6.565   2.409   1.075 -0.2518  0.1060  0.7398
 4919TIP3    H136248   6.516   2.401   0.993 -0.9065 -0.1955  1.1547
 4919TIP3    H236249   6.523   2.347   1.134  0.7970 -0.3316  1.0292
 4920TIP3   OH236250   4.597   5.113  12.348  0.0137  0.0913  0.4697
 4920TIP3    H136251   4.600   5.060  12.268 -1.0928  0.4406  0.1892
 4920TIP3    H236252   4.598   5.048  12.419  2.3201 -0.1768  0.2204
 4921TIP3   OH236253   3.659   1.898  14.021 -0.6362 -0.0257 -0.2302
 4921TIP3    H136254   3.680   1.823  14.076  0.9282  0.6963  0.1928
 4921TIP3    H236255   3.655   1.862  13.932 -0.5159 -0.7257  0.0478
 4922TIP3   OH236256   1.158   1.062   1.038 -0.3668  0.0894  0.1485
 4922TIP3    H136257   1.188   0.980   1.076 -3.1096 -0.3341  1.4776
 4922TIP3    H236258   1.142   1.119   1.112 -0.9799  0.9556 -0.6382
 4923TIP3   OH236259   3.508   3.703  13.522  0.9124 -0.0874  0.1818
 4923TIP3    H136260   3.542   3.618  13.551 -0.2240 -0.0421  1.7221
 4923TIP3    H236261   3.414   3.698  13.540  0.4053  0.5277 -2.1499
 4924TIP3   OH236262   1.642   5.645  16.700  0.2517 -0.1740  0.5792
 4924TIP3    H136263   1.633   5.714  16.635 -2.4527  1.2813  2.3602
 4924TIP3    H236264   1.729   5.609  16.686  0.1766  0.8483 -3.0463
 4925TIP3   OH236265   3.841   2.619   4.658 -0.5260  0.1499  0.1112
 4925TIP3    H136266   3.850   2.685   4.589  0.4223 -2.0086 -1.8871
 4925TIP3    H236267   3.767   2.565   4.629 -0.4119 -0.4963  1.0275
 4926TIP3   OH236268   1.833   0.913  12.745  0.0655 -0.0948 -0.1728
 4926TIP3    H136269   1.772   0.971  12.699 -1.5841 -1.5126  0.2049
 4926TIP3    H236270   1.798   0.906  12.833 -0.1159 -2.1794 -0.3847
 4927TIP3   OH236271   2.209   2.446  11.390  0.1758  0.0819 -0.0199
 4927TIP3    H136272   2.304   2.435  11.395  0.0439 -0.9798  0.2871
 4927TIP3    H236273   2.197   2.532  11.349  1.2690  0.0470 -0.4329
 4928TIP3   OH236274   2.313   0.913   1.386 -0.1162 -0.6515  0.1834
 4928TIP3    H136275   2.280   0.938   1.299  0.5091 -1.6777 -0.3662
 4928TIP3    H236276   2.265   0.968   1.447  0.1937  0.8581 -0.8924
 4929TIP3   OH236277   4.647   5.116  12.971 -0.2269  0.1171  1.0888
 4929TIP3    H136278   4.707   5.041  12.970 -0.1914  0.1658 -0.6521
 4929TIP3    H236279   4.705   5.193  12.971 -0.2891  0.1616  0.0077
 4930TIP3   OH236280   5.590   0.188   0.888 -0.5169 -0.1512  1.0829
 4930TIP3    H136281   5.540   0.235   0.821  1.0140  2.1478  1.4636
 4930TIP3    H236282   5.661   0.146   0.840 -0.8410 -0.5649  0.9641
 4931TIP3   OH236283   0.444   0.441   1.124  0.9520  0.5325 -0.1250
 4931TIP3    H136284   0.484   0.507   1.181  2.6457 -0.0098 -0.6717
 4931TIP3    H236285   0.452   0.477   1.036  2.0560 -0.4771 -0.4471
 4932TIP3   OH236286   5.160   5.913  13.104  0.3179 -0.3929  0.3284
 4932TIP3    H136287   5.175   5.904  13.010 -0.3366 -0.6742  0.2444
 4932TIP3    H236288   5.242   5.949  13.138  0.6734 -0.5911 -0.3004
 4933TIP3   OH236289   5.457   2.808   2.817 -0.3986  0.7595  0.5235
 4933TIP3    H136290   5.480   2.766   2.901  4.0687  0.5606 -0.6794
 4933TIP3    H236291   5.425   2.895   2.842 -0.8078  0.0953  2.4890
 4934TIP3   OH236292   1.490   1.274   1.078  0.1570 -0.1268 -0.4942
 4934TIP3    H136293   1.440   1.352   1.053 -0.7487 -0.5738 -0.0987
 4934TIP3    H236294   1.458   1.205   1.020  0.4926 -0.3556 -0.4050
 4935TIP3   OH236295   4.424   3.098   2.863  0.5030  0.2276  0.3889
 4935TIP3    H136296   4.518   3.085   2.875  0.1283 -1.5398  1.6414
 4935TIP3    H236297   4.383   3.039   2.927 -1.4428  2.4236  1.2304
 4936TIP3   OH236298   1.313   0.848  10.832  0.4156 -0.3905 -0.2110
 4936TIP3    H136299   1.405   0.843  10.807  0.6098 -0.4298  0.5123
 4936TIP3    H236300   1.284   0.933  10.797  1.2873  0.5872  1.4010
 4937TIP3   OH236301   5.748   2.460  14.908 -0.0697  0.4946  0.6982
 4937TIP3    H136302   5.815   2.393  14.897 -1.4150 -0.9349  1.1538
 4937TIP3    H236303   5.783   2.536  14.861  1.9232 -0.1785  1.0404
 4938TIP3   OH236304   6.091   2.742   2.925  0.4526  0.1677  0.3283
 4938TIP3    H136305   6.043   2.662   2.904 -0.0552  0.0546  1.8226
 4938TIP3    H236306   6.171   2.712   2.969  0.4460  0.4546  0.5405
 4939TIP3   OH236307   4.039   2.983  10.534 -0.2271  0.4174 -0.5368
 4939TIP3    H136308   4.087   3.050  10.486  0.9754  0.7072  1.0140
 4939TIP3    H236309   4.097   2.959  10.607 -1.4660 -0.8898  0.0570
 4940TIP3   OH236310   6.154   1.036   4.906 -0.7282 -0.6378 -0.4090
 4940TIP3    H136311   6.059   1.042   4.897 -0.6486 -0.8464 -1.3787
 4940TIP3    H236312   6.168   0.956   4.957 -1.0913 -0.3185  0.2032
 4941TIP3   OH236313   2.426   4.333  17.245  0.1876  0.0918  0.2220
 4941TIP3    H136314   2.444   4.371  17.159  0.8617 -1.2024 -0.2151
 4941TIP3    H236315   2.335   4.356  17.262  0.3955  1.3717 -0.3067
 4942TIP3   OH236316   5.923   4.392  12.335  0.4586  0.1773 -0.4448
 4942TIP3    H136317   5.929   4.478  12.375  0.3910 -0.1058  0.1832
 4942TIP3    H236318   6.000   4.345  12.367  0.0349 -0.2814 -0.0911
 4943TIP3   OH236319   0.330   4.652  17.284  0.3832  0.3149 -0.6478
 4943TIP3    H136320   0.369   4.705  17.353 -1.1237  1.1936 -0.4417
 4943TIP3    H236321   0.237   4.677  17.284 -0.2705 -1.9559 -0.8937
 4944TIP3   OH236322   4.839   4.931  12.927  0.4913  0.6055  0.0168
 4944TIP3    H136323   4.894   4.956  12.853  0.9577 -4.7189 -1.7175
 4944TIP3    H236324   4.899   4.892  12.990 -0.6983 -1.8967 -0.2949
 4945TIP3   OH236325   0.727   5.927   0.291 -0.0032 -0.3261 -0.8719
 4945TIP3    H136326   0.684   5.971   0.364  1.4976 -1.6131  0.8506
 4945TIP3    H236327   0.820   5.944   0.305  0.3878 -1.7026 -1.7306
 4946TIP3   OH236328   5.941   2.842   2.700 -0.3073 -0.3368 -0.0949
 4946TIP3    H136329   5.995   2.818   2.775  0.7845  0.5432 -0.5747
 4946TIP3    H236330   6.004   2.867   2.632 -1.2912 -0.7175 -1.1603
 4947TIP3   OH236331   3.269   0.898   0.047 -0.4795 -0.1015 -0.2244
 4947TIP3    H136332   3.291   0.882   0.139 -2.0520 -2.0920 -0.1798
 4947TIP3    H236333   3.294   0.990   0.033  0.7421 -0.0713  1.8861
 4948TIP3   OH236334   5.835   0.786  10.763 -0.4005  0.1113 -0.4861
 4948TIP3    H136335   5.804   0.877  10.767  2.7116  1.2388 -0.9633
 4948TIP3    H236336   5.930   0.793  10.765 -0.0485 -3.0092 -2.9245
 4949TIP3   OH236337   1.641   3.980  14.918  0.2374 -0.4823  0.6491
 4949TIP3    H136338   1.616   3.889  14.902 -0.2124 -0.2476  0.0088
 4949TIP3    H236339   1.730   3.974  14.954 -0.3730 -1.2685  2.0944
 4950TIP3   OH236340   4.401   0.538  17.054  0.0961 -0.1684 -0.7143
 4950TIP3    H136341   4.468   0.602  17.030  1.3488 -1.0560  0.2919
 4950TIP3    H236342   4.321   0.571  17.014  0.1530  3.3975  1.8441
 4951TIP3   OH236343   3.904   2.541   5.901  0.4071  0.4521  0.0166
 4951TIP3    H136344   3.946   2.460   5.933 -3.5307 -1.0660  1.6089
 4951TIP3    H236345   3.945   2.611   5.952  3.0262 -0.6297 -0.5206
 4952TIP3   OH236346   3.084   1.427  13.328  0.4541  0.0139 -0.2824
 4952TIP3    H136347   3.065   1.388  13.413  0.6103  2.7150  1.0547
 4952TIP3    H236348   3.013   1.490  13.313  0.0464 -0.8994 -2.4979
 4953TIP3   OH236349   5.407   4.011   0.151 -0.1791 -0.1229 -0.3441
 4953TIP3    H136350   5.452   3.977   0.073 -1.2072 -0.1269 -0.9393
 4953TIP3    H236351   5.437   4.102   0.157  1.6529 -0.7732  0.5664
 4954TIP3   OH236352   1.435   1.196   4.413 -0.2453 -0.9820  0.5335
 4954TIP3    H136353   1.438   1.137   4.337  1.5646  1.0047 -0.9640
 4954TIP3    H236354   1.524   1.196   4.447 -0.9262 -1.4272  2.3880
 4955TIP3   OH236355   3.564   5.926  12.755 -0.5396  0.0930  0.5019
 4955TIP3    H136356   3.551   5.897  12.664 -1.7336  0.3910  0.5685
 4955TIP3    H236357   3.530   5.854  12.808 -0.4960  0.2242  0.7084
 4956TIP3   OH236358   2.879   6.212  10.860 -0.1342  0.1625  0.3938
 4956TIP3    H136359   2.937   6.204  10.935  2.0087 -0.5739 -1.2927
 4956TIP3    H236360   2.882   6.125  10.818 -0.9410  0.6841 -0.7789
 4957TIP3   OH236361   4.682   5.962   3.844 -0.2726  0.0135  0.4908
 4957TIP3    H136362   4.742   5.892   3.819 -1.8120 -0.6241 -1.5263
 4957TIP3    H236363   4.597   5.933   3.814 -1.1095  2.2831  0.5696
 4958TIP3   OH236364   5.487   0.867   3.658  0.1892  0.3153 -0.6703
 4958TIP3    H136365   5.552   0.894   3.723  0.1158  0.5675 -0.7058
 4958TIP3    H236366   5.530   0.796   3.610 -0.1125 -0.5170  0.2784
 4959TIP3   OH236367   0.474   6.801  16.775  0.3273 -0.2903 -0.5790
 4959TIP3    H136368   0.556   6.840  16.805 -0.3522  0.7419 -0.0020
 4959TIP3    H236369   0.467   6.719  16.824  2.1039 -1.4906 -2.3008
 4960TIP3   OH236370   1.597   0.780   0.866  0.0035  0.4331 -0.1195
 4960TIP3    H136371   1.625   0.850   0.926 -0.3722  0.2584  0.2677
 4960TIP3    H236372   1.513   0.751   0.902  1.7714 -2.6490  1.7843
 4961TIP3   OH236373   5.087   3.701  11.700  0.0267  0.0830 -0.4052
 4961TIP3    H136374   5.151   3.762  11.737  1.6869 -1.6352 -0.3478
 4961TIP3    H236375   5.140   3.631  11.662 -1.8332 -2.5215  1.5693
 4962TIP3   OH236376   3.459   3.270  11.261 -0.3083 -0.1176  0.0424
 4962TIP3    H136377   3.366   3.249  11.253 -0.8330  1.7908  1.0880
 4962TIP3    H236378   3.484   3.300  11.173 -0.5769 -0.9585 -0.3312
 4963TIP3   OH236379   5.977   5.381  13.381 -0.2696  0.0465 -0.3001
 4963TIP3    H136380   5.958   5.338  13.464 -2.2801  0.7592 -0.3729
 4963TIP3    H236381   5.924   5.461  13.382  1.2594  1.1220 -1.3831
 4964TIP3   OH236382   5.614   4.664  15.689  0.4816 -0.7086  0.1117
 4964TIP3    H136383   5.525   4.697  15.700  0.0479 -1.8239 -0.0057
 4964TIP3    H236384   5.649   4.657  15.778  0.9201  0.9950  0.0782
 4965TIP3   OH236385   0.341   5.068   1.186  0.6993 -0.0167  0.1024
 4965TIP3    H136386   0.283   5.139   1.159 -0.8347 -1.4223 -0.3412
 4965TIP3    H236387   0.384   5.041   1.106 -1.2932 -1.8794 -0.3784
 4966TIP3   OH236388   5.508   5.478   0.119  0.0430  0.2359  0.6058
 4966TIP3    H136389   5.447   5.539   0.159 -1.1810 -0.3814 -0.2648
 4966TIP3    H236390   5.589   5.489   0.168 -0.0359  2.8161  0.2177
 4967TIP3   OH236391   5.681   5.122   3.358  0.2983 -0.2317  0.1189
 4967TIP3    H136392   5.771   5.141   3.385  0.4144  0.1183 -0.5101
 4967TIP3    H236393   5.669   5.029   3.379  0.0045  0.2972  2.4130
 4968TIP3   OH236394   3.972   3.405   5.529  0.6175 -0.3500  0.1337
 4968TIP3    H136395   3.914   3.366   5.595  0.1358  0.5327  0.2408
 4968TIP3    H236396   4.058   3.409   5.573  0.3783 -0.0833  0.5793
 4969TIP3   OH236397   1.822   5.462   5.686 -0.0869 -0.0739  0.0076
 4969TIP3    H136398   1.883   5.426   5.621 -1.6455  1.9397 -2.6747
 4969TIP3    H236399   1.876   5.521   5.740  0.6123  0.7688 -1.5798
 4970TIP3   OH236400   1.684   2.645  15.804  0.1988  0.6926  0.1622
 4970TIP3    H136401   1.760   2.623  15.752 -1.1425 -1.2199 -1.0585
 4970TIP3    H236402   1.684   2.580  15.875 -0.5084  0.4068 -0.0910
 4971TIP3   OH236403   6.323   0.993  14.877 -0.1746 -0.1931 -0.0971
 4971TIP3    H136404   6.250   0.970  14.936  0.5661  0.3722  1.0574
 4971TIP3    H236405   6.398   1.002  14.935  0.7055 -0.2309 -1.2241
 4972TIP3   OH236406   5.330   3.370  15.530  0.6126  0.0361 -0.0948
 4972TIP3    H136407   5.379   3.321  15.596 -0.2671  0.1601  0.6630
 4972TIP3    H236408   5.251   3.399  15.576 -0.5148 -0.7733 -1.4957
 4973TIP3   OH236409   0.043   2.138   2.480  0.7189 -0.1523  0.4289
 4973TIP3    H136410  -0.038   2.185   2.497  0.8149 -0.9362  3.4583
 4973TIP3    H236411   0.076   2.174   2.398 -1.2744  2.1223  0.5790
 4974TIP3   OH236412   0.072   4.082   0.746  0.1580  0.7080  0.5194
 4974TIP3    H136413   0.083   3.995   0.783 -3.0747  0.5824  1.3893
 4974TIP3    H236414   0.057   4.066   0.652  1.5898  0.4883  0.3297
 4975TIP3   OH236415   4.153   6.518  13.810  0.4033 -0.6786  0.1888
 4975TIP3    H136416   4.111   6.455  13.868 -1.0374  1.8175  1.9162
 4975TIP3    H236417   4.234   6.542  13.855  1.1486 -1.5382 -0.6576
 4976TIP3   OH236418   3.891   6.120  15.049 -0.2170  0.4774  0.1207
 4976TIP3    H136419   3.946   6.105  15.126 -0.3528  1.1679  0.3555
 4976TIP3    H236420   3.801   6.115  15.082 -0.2760  0.6099 -0.0211
 4977TIP3   OH236421   4.204   4.198   1.879 -0.0652 -0.4179  0.0941
 4977TIP3    H136422   4.263   4.264   1.916 -1.3522  0.2556  0.9798
 4977TIP3    H236423   4.162   4.242   1.805 -0.7439 -0.3065  0.5363
 4978TIP3   OH236424   0.761   5.808  12.152  0.1896 -0.1062  0.2539
 4978TIP3    H136425   0.744   5.725  12.196  1.7061 -0.7976 -0.4660
 4978TIP3    H236426   0.692   5.815  12.087 -0.9168 -0.0049  1.4120
 4979TIP3   OH236427   4.366   1.822  13.372  0.5906  0.1551  0.2020
 4979TIP3    H136428   4.289   1.879  13.371  0.3373 -0.1881 -0.1542
 4979TIP3    H236429   4.375   1.796  13.464  0.0453 -0.1210  0.1796
 4980TIP3   OH236430   0.402   0.735   3.407 -0.6528 -0.4239 -0.0461
 4980TIP3    H136431   0.440   0.711   3.492 -0.8691 -0.6835 -0.0207
 4980TIP3    H236432   0.476   0.732   3.347 -0.1926  1.3203  0.4213
 4981TIP3   OH236433   3.785   6.453   4.626  0.6268 -0.3279  0.0118
 4981TIP3    H136434   3.775   6.539   4.586 -1.6673 -0.2037  0.7861
 4981TIP3    H236435   3.811   6.471   4.716  0.1033 -0.4290  0.1863
 4982TIP3   OH236436   5.420   4.242   4.480  0.1158 -0.3241 -0.1226
 4982TIP3    H136437   5.471   4.278   4.553  0.4035 -0.0911 -0.4406
 4982TIP3    H236438   5.384   4.160   4.515 -2.5553  1.4300  1.4459
 4983TIP3   OH236439   1.059   5.232   2.455 -0.1736 -0.3949 -0.3959
 4983TIP3    H136440   1.045   5.314   2.503 -2.0832 -1.4792  0.9443
 4983TIP3    H236441   1.145   5.243   2.415  0.1265  1.7819  0.7391
 4984TIP3   OH236442   0.890   0.442   4.149  0.0153 -0.2890 -0.2635
 4984TIP3    H136443   0.815   0.404   4.195 -0.1461  1.1417  0.6691
 4984TIP3    H236444   0.879   0.537   4.158  1.6170 -0.0479 -0.6205
 4985TIP3   OH236445   0.442   3.127  14.445  0.8600 -0.5296  0.1716
 4985TIP3    H136446   0.362   3.096  14.401  1.8161 -0.8085 -1.3951
 4985TIP3    H236447   0.493   3.048  14.461  1.8055 -0.1283 -0.8119
 4986TIP3   OH236448   0.153   6.282   3.860  0.0464 -0.3124 -0.8246
 4986TIP3    H136449   0.127   6.198   3.897  0.6374 -0.4515 -0.7191
 4986TIP3    H236450   0.137   6.274   3.766 -0.1921 -0.4301 -0.7749
 4987TIP3   OH236451   5.376   2.533   4.133  0.4418  0.2695 -0.1261
 4987TIP3    H136452   5.423   2.599   4.184  0.6377  0.7274 -0.8855
 4987TIP3    H236453   5.430   2.521   4.055 -0.9868  1.2258 -1.2838
 4988TIP3   OH236454   2.950   5.155  14.868 -0.1010  0.0515 -0.1401
 4988TIP3    H136455   2.940   5.180  14.960  0.9586 -1.8393  0.5262
 4988TIP3    H236456   2.967   5.237  14.823  3.0870  0.6602  1.9296
 4989TIP3   OH236457   6.406   3.449  15.658  0.0217 -0.9268 -0.9659
 4989TIP3    H136458   6.444   3.500  15.729 -0.6175 -0.1274 -1.1936
 4989TIP3    H236459   6.357   3.379  15.702  0.1331 -0.7958 -0.6352
 4990TIP3   OH236460   0.566   0.919  16.671 -0.1381 -0.3845 -0.1754
 4990TIP3    H136461   0.595   0.838  16.628  1.2607 -0.2016  0.3858
 4990TIP3    H236462   0.585   0.904  16.764  2.6133  1.6094 -0.3766
 4991TIP3   OH236463   2.525   5.377  10.911  0.4401  0.2506 -0.0616
 4991TIP3    H136464   2.439   5.401  10.945 -0.0231 -0.2153 -0.8725
 4991TIP3    H236465   2.523   5.407  10.820  1.1616  0.3032 -0.0592
 4992TIP3   OH236466   2.687   3.037  15.213 -0.1934 -0.0901 -0.6669
 4992TIP3    H136467   2.712   2.950  15.244 -1.3664 -0.6923 -1.3676
 4992TIP3    H236468   2.642   3.021  15.131 -2.1738  1.0287  0.1752
 4993TIP3   OH236469   0.244   3.462  14.298  0.4367 -0.2363  0.0501
 4993TIP3    H136470   0.175   3.397  14.312 -0.9176  1.0215 -0.6285
 4993TIP3    H236471   0.249   3.511  14.379  0.7429 -0.5029  0.1968
 4994TIP3   OH236472   5.204   1.077  14.032  0.0369 -0.0228 -0.4354
 4994TIP3    H136473   5.253   1.067  13.951 -1.2984  1.2957 -1.4262
 4994TIP3    H236474   5.235   1.160  14.069 -0.9756  0.5054 -0.7507
 4995TIP3   OH236475   4.162   4.045  14.665 -0.2564  0.1551  0.5850
 4995TIP3    H136476   4.102   4.097  14.717 -0.6508 -0.9449  1.2373
 4995TIP3    H236477   4.204   3.986  14.727 -0.6652 -1.1017 -0.3089
 4996TIP3   OH236478   6.188   2.211  12.668  0.2828  1.0285 -0.6454
 4996TIP3    H136479   6.204   2.282  12.606  0.5216  2.0426  0.5608
 4996TIP3    H236480   6.271   2.201  12.716 -0.1204  0.7536  0.0092
 4997TIP3   OH236481   1.241   3.743  15.866 -0.4161 -0.1950 -0.1952
 4997TIP3    H136482   1.325   3.714  15.830 -1.0015 -0.7819 -1.1040
 4997TIP3    H236483   1.226   3.685  15.941 -0.5498 -0.8536 -0.7198
 4998TIP3   OH236484   2.361   4.324  16.474 -0.6217  0.1338  0.8448
 4998TIP3    H136485   2.296   4.254  16.473  0.1683 -0.6012 -0.3187
 4998TIP3    H236486   2.342   4.374  16.553 -2.0040 -0.6373  1.0056
 4999TIP3   OH236487   1.504   0.030   0.172 -0.1447  0.5267 -0.1863
 4999TIP3    H136488   1.540  -0.058   0.157 -2.4263 -0.4303 -0.4328
 4999TIP3    H236489   1.448   0.045   0.096  0.9770  2.6270 -0.6104
 5000TIP3   OH236490   0.840   0.856  14.780  0.7576 -0.7858  0.2486
 5000TIP3    H136491   0.777   0.915  14.739  0.0887 -0.3931  1.7759
 5000TIP3    H236492   0.860   0.791  14.713 -0.5635 -0.3702 -0.5709
 5001TIP3   OH236493   4.557   2.777  13.310  0.1103  0.1091  0.3529
 5001TIP3    H136494   4.577   2.867  13.285  0.7189  0.1973  1.1198
 5001TIP3    H236495   4.568   2.775  13.405  0.0008 -0.7464  0.3589
 5002TIP3   OH236496   6.249   1.810  14.434  0.1430 -0.1808  0.3501
 5002TIP3    H136497   6.280   1.832  14.523 -0.1580 -0.3641  0.4990
 5002TIP3    H236498   6.169   1.861  14.423 -0.0488 -0.4823  0.3420
 5003TIP3   OH236499   3.447   5.369  12.806 -0.6606  0.6728 -0.0684
 5003TIP3    H136500   3.495   5.355  12.724  1.0018  1.7519  0.6840
 5003TIP3    H236501   3.417   5.282  12.832  0.7501 -0.0007 -0.6609
 5004TIP3   OH236502   6.737   3.926  15.649 -0.4900 -0.4102  0.1160
 5004TIP3    H136503   6.690   3.887  15.576 -0.3165  0.9468 -0.7432
 5004TIP3    H236504   6.686   4.004  15.671 -0.4772 -0.7422  1.3782
 5005TIP3   OH236505   1.269   1.988   4.559  0.1247 -0.7020  0.1737
 5005TIP3    H136506   1.214   1.988   4.480  1.4050  0.6947 -0.7270
 5005TIP3    H236507   1.273   2.080   4.585 -0.4543 -1.1820  2.0068
 5006TIP3   OH236508   5.986   6.028  16.634 -0.1067  0.1960 -0.9045
 5006TIP3    H136509   6.021   6.014  16.722  1.1778  1.3321 -1.2151
 5006TIP3    H236510   5.905   5.978  16.632  1.2879 -2.1650 -0.0255
 5007TIP3   OH236511   4.101   3.154   3.977  0.1760 -0.1929 -0.0511
 5007TIP3    H136512   4.067   3.212   4.045 -1.4258 -2.7762  1.4451
 5007TIP3    H236513   4.181   3.116   4.015  0.8936  0.5708 -0.7870
 5008TIP3   OH236514   2.278   5.936   0.202 -0.2613 -0.1165  0.3817
 5008TIP3    H136515   2.358   5.893   0.173 -0.6704  0.4156 -1.6826
 5008TIP3    H236516   2.221   5.865   0.229 -1.0571 -1.0043 -3.3128
 5009TIP3   OH236517   1.485   6.542  13.525  0.1520  0.2309 -0.2903
 5009TIP3    H136518   1.546   6.500  13.587  0.6667  1.3270 -0.0450
 5009TIP3    H236519   1.399   6.505  13.548  0.4041  0.2795  0.7830
 5010TIP3   OH236520   3.644   3.445  13.144 -0.4192 -0.5105 -0.3493
 5010TIP3    H136521   3.558   3.484  13.163 -0.0221  0.3060 -0.2184
 5010TIP3    H236522   3.626   3.378  13.077 -1.0783 -0.0090 -0.6765
 5011TIP3   OH236523   2.418   6.332  16.492 -0.7341 -0.0696  0.4953
 5011TIP3    H136524   2.341   6.355  16.440 -1.4982  0.8907  1.9960
 5011TIP3    H236525   2.410   6.386  16.571  1.3796 -0.1151  0.7590
 5012TIP3   OH236526   0.154   5.377  16.705 -0.3806  0.0831  0.5784
 5012TIP3    H136527   0.193   5.379  16.618 -0.0810  0.2265  0.7133
 5012TIP3    H236528   0.228   5.363  16.764 -0.3252  1.8256  0.9570
 5013TIP3   OH236529   6.762   0.769  12.053 -0.9429  0.5297 -0.2251
 5013TIP3    H136530   6.680   0.724  12.033 -0.1994  0.1213 -2.4709
 5013TIP3    H236531   6.803   0.714  12.121 -1.5783 -0.3897 -0.5761
 5014TIP3   OH236532   1.135   4.016   2.900 -0.5425  0.4923 -0.0312
 5014TIP3    H136533   1.072   3.951   2.930 -2.0122  1.5179 -0.8341
 5014TIP3    H236534   1.188   4.035   2.977 -0.4893 -1.1875  0.3673
 5015TIP3   OH236535   4.143   3.250   2.161 -0.2859 -0.1484 -0.3877
 5015TIP3    H136536   4.199   3.172   2.157  0.1956  0.2480 -2.0941
 5015TIP3    H236537   4.057   3.218   2.134 -0.2922 -0.2794 -0.2090
 5016TIP3   OH236538   0.395   6.295  15.026 -0.4625 -0.0977 -0.1796
 5016TIP3    H136539   0.327   6.242  14.985 -0.9017  0.9301 -0.7879
 5016TIP3    H236540   0.471   6.237  15.030 -1.8229 -1.8062  2.0131
 5017TIP3   OH236541   4.429   0.603  16.018 -0.3984 -0.2487  0.3952
 5017TIP3    H136542   4.432   0.509  16.033 -1.1043 -0.5291 -1.1020
 5017TIP3    H236543   4.421   0.641  16.105 -1.1007 -1.6157  0.9512
 5018TIP3   OH236544   4.476   3.918  13.934  0.3443 -0.6499 -0.4708
 5018TIP3    H136545   4.419   3.964  13.872  0.8092 -0.7063 -0.9418
 5018TIP3    H236546   4.416   3.871  13.992 -0.1098 -0.1083 -0.4980
 5019TIP3   OH236547   0.765   2.449   0.714  0.2549  0.3897 -0.4219
 5019TIP3    H136548   0.788   2.359   0.737  1.2796  0.2355 -2.0076
 5019TIP3    H236549   0.731   2.444   0.625  0.1324  1.5454 -0.4576
 5020TIP3   OH236550   2.405   2.839   2.948 -0.0805  0.1881  0.0720
 5020TIP3    H136551   2.326   2.890   2.968 -0.8725 -0.7522 -0.6303
 5020TIP3    H236552   2.387   2.752   2.983 -0.0853 -0.5146 -1.5881
 5021TIP3   OH236553   5.862   2.361  16.619 -0.2334  0.0180  0.0880
 5021TIP3    H136554   5.789   2.373  16.558  0.7974  1.6416 -0.8734
 5021TIP3    H236555   5.832   2.402  16.700 -0.6538  0.0580 -0.0877
 5022TIP3   OH236556   0.826   2.476  14.760  0.0885 -0.3397 -0.2125
 5022TIP3    H136557   0.864   2.433  14.684  0.1963  0.2206 -0.4840
 5022TIP3    H236558   0.891   2.466  14.829  1.2088  1.4928 -0.9517
 5023TIP3   OH236559   1.089   3.660  11.842 -0.1021 -0.1222 -0.3821
 5023TIP3    H136560   1.007   3.614  11.863  0.3639 -1.1737 -0.8211
 5023TIP3    H236561   1.061   3.733  11.787 -0.5865 -1.5572 -2.1009
 5024TIP3   OH236562   5.214   4.657  12.502 -0.2461 -0.0899 -0.0747
 5024TIP3    H136563   5.291   4.649  12.559 -0.5341 -1.1376  0.1682
 5024TIP3    H236564   5.173   4.571  12.506 -1.4572  0.4853 -0.1755
 5025TIP3   OH236565   2.538   1.236   0.922  0.1848 -0.5873 -0.2785
 5025TIP3    H136566   2.551   1.151   0.880 -1.9602 -0.2998 -1.5824
 5025TIP3    H236567   2.455   1.268   0.887  0.5794  1.7047  0.7815
 5026TIP3   OH236568   5.805   3.205  13.051 -0.6822 -0.3992 -0.0065
 5026TIP3    H136569   5.811   3.148  13.128  1.0249 -0.2830 -0.0364
 5026TIP3    H236570   5.892   3.243  13.043 -1.2761  0.7436 -1.1243
 5027TIP3   OH236571   4.312   1.761  14.849  0.5547  0.1172  0.3948
 5027TIP3    H136572   4.330   1.684  14.903  0.8888  1.3415  2.0579
 5027TIP3    H236573   4.336   1.835  14.904 -0.0286  1.4289 -1.0880
 5028TIP3   OH236574   4.220   2.906  14.317 -0.0452 -0.2132 -0.7156
 5028TIP3    H136575   4.129   2.901  14.346 -0.4276 -0.6659 -1.9302
 5028TIP3    H236576   4.272   2.885  14.394 -0.9731  0.0781 -0.0050
 5029TIP3   OH236577   6.242   2.717   4.886 -0.1606  0.1148 -0.2381
 5029TIP3    H136578   6.163   2.764   4.914 -1.0561 -1.3964 -0.1484
 5029TIP3    H236579   6.245   2.640   4.943 -0.1258 -1.2281 -2.0212
 5030TIP3   OH236580   5.612   2.818  13.213 -0.6231  0.6854 -0.7373
 5030TIP3    H136581   5.591   2.727  13.233 -0.3606  0.5297 -1.1633
 5030TIP3    H236582   5.561   2.837  13.134 -0.9520  1.0153 -0.4445
 5031TIP3   OH236583   5.784   1.422  16.959  0.3280  0.0088 -0.1874
 5031TIP3    H136584   5.803   1.449  16.869 -1.8749  1.3638 -0.2960
 5031TIP3    H236585   5.755   1.503  17.002 -0.9121 -1.0978  1.0892
 5032TIP3   OH236586   5.075   0.048   3.168 -0.1249 -0.0993 -0.3222
 5032TIP3    H136587   5.054   0.138   3.193 -1.4627 -0.7362  0.9179
 5032TIP3    H236588   5.030   0.035   3.085  0.7508  0.6297 -0.9204
 5033TIP3   OH236589   5.699   0.538   6.056 -0.0142  0.2461 -0.5505
 5033TIP3    H136590   5.752   0.617   6.048  2.5761 -1.3157  0.5083
 5033TIP3    H236591   5.654   0.548   6.140  2.5635 -0.6157  1.0207
 5034TIP3   OH236592   0.959   1.029   6.505  0.2280  0.0773 -0.3759
 5034TIP3    H136593   0.954   0.939   6.535  0.7164 -0.1008 -0.8324
 5034TIP3    H236594   1.033   1.066   6.553 -0.4223  0.4456  0.3588
 5035TIP3   OH236595   3.867   6.317  12.662  0.3502 -0.1661  0.4562
 5035TIP3    H136596   3.922   6.258  12.610 -0.3922  1.2698 -2.0102
 5035TIP3    H236597   3.779   6.278  12.657  0.3617 -0.2768  1.0545
 5036TIP3   OH236598   1.688   4.283  17.006 -0.0284 -0.3080 -0.2859
 5036TIP3    H136599   1.679   4.258  17.098 -0.6189  2.4846  0.4460
 5036TIP3    H236600   1.599   4.306  16.978  0.6083  1.9632 -0.5840
 5037TIP3   OH236601   4.344   5.398  11.587 -0.0875 -0.2570  0.1083
 5037TIP3    H136602   4.346   5.464  11.519 -0.6260 -0.1061  0.2419
 5037TIP3    H236603   4.258   5.357  11.580  0.1714 -0.8123  0.1473
 5038TIP3   OH236604   1.849   1.119   1.906 -0.2289 -0.0774 -0.2299
 5038TIP3    H136605   1.768   1.115   1.855 -0.3650  0.7060 -0.0844
 5038TIP3    H236606   1.823   1.094   1.995 -0.5073  1.1202  0.0336
 5039TIP3   OH236607   0.102   0.770   6.691  1.0469  0.6401 -0.2832
 5039TIP3    H136608   0.144   0.846   6.731  0.4841  2.4046 -2.9018
 5039TIP3    H236609   0.118   0.780   6.597  1.4457 -2.8152 -0.6797
 5040TIP3   OH236610   6.666   1.832   1.229  0.2192 -0.1773  0.6493
 5040TIP3    H136611   6.716   1.857   1.307  0.7556 -2.2549  1.0033
 5040TIP3    H236612   6.700   1.745   1.205 -0.6869 -0.0364 -1.2624
 5041TIP3   OH236613   3.519   6.762  12.829 -0.2858 -0.2308 -0.0653
 5041TIP3    H136614   3.580   6.713  12.774 -0.5080 -0.6471  0.0559
 5041TIP3    H236615   3.445   6.783  12.772 -0.3220 -0.2899 -0.0404
 5042TIP3   OH236616   5.696   0.960   3.858  0.2465 -0.4201 -0.6302
 5042TIP3    H136617   5.737   1.046   3.860  0.8148 -0.6722 -1.1183
 5042TIP3    H236618   5.730   0.920   3.778 -0.3772 -0.9174 -0.6478
 5043TIP3   OH236619   5.855   4.231   3.153  0.6568 -0.3582  0.2970
 5043TIP3    H136620   5.868   4.194   3.241 -2.2057 -2.2576 -0.0201
 5043TIP3    H236621   5.773   4.193   3.122  2.0082 -0.3907 -3.5727
 5044TIP3   OH236622   4.884   4.783   0.600 -0.2981  0.1645  0.2556
 5044TIP3    H136623   4.843   4.863   0.567 -0.6923  0.1590  0.7265
 5044TIP3    H236624   4.875   4.788   0.695  0.4763 -0.0166  0.3384
 5045TIP3   OH236625   4.631   3.333   3.402 -0.6618  0.3511  0.0588
 5045TIP3    H136626   4.621   3.247   3.362 -1.5185  1.1138 -1.4199
 5045TIP3    H236627   4.552   3.344   3.455 -0.0855 -0.1759  1.0261
 5046TIP3   OH236628   2.457   4.746   2.193 -0.5626 -0.0840 -0.0521
 5046TIP3    H136629   2.473   4.723   2.101  0.1290 -1.9975  0.5184
 5046TIP3    H236630   2.537   4.720   2.239 -0.8247  1.0549  1.0622
 5047TIP3   OH236631   3.739   1.817   1.182  0.5954 -0.5193 -0.6668
 5047TIP3    H136632   3.783   1.871   1.116  0.6629 -0.2196 -0.3797
 5047TIP3    H236633   3.728   1.732   1.141  1.2639 -0.5343 -0.8164
 5048TIP3   OH236634   1.132   4.689   0.594  0.0098  0.2386  0.5564
 5048TIP3    H136635   1.123   4.756   0.663 -1.9650 -0.4011  0.9703
 5048TIP3    H236636   1.141   4.607   0.642 -1.3848 -0.2130  0.0802
 5049TIP3   OH236637   6.222   4.289   4.807  0.3823  0.7187  0.1960
 5049TIP3    H136638   6.271   4.362   4.769 -1.7652  2.4116  0.6605
 5049TIP3    H236639   6.225   4.221   4.739  0.9006  1.8452 -0.9282
 5050TIP3   OH236640   5.363   3.432  15.261 -0.1704  0.1465 -0.6387
 5050TIP3    H136641   5.380   3.349  15.216 -1.1517  0.0944 -0.9222
 5050TIP3    H236642   5.362   3.409  15.354 -0.8864 -0.2343 -0.7417
 5051TIP3   OH236643   3.331   0.142  11.330  0.0492  0.3649 -0.7666
 5051TIP3    H136644   3.285   0.164  11.410 -0.2061 -0.6836 -0.6286
 5051TIP3    H236645   3.407   0.201  11.329 -0.5557  1.1559 -0.3328
 5052TIP3   OH236646   0.774   2.636  14.122  0.3685 -0.2663 -0.1318
 5052TIP3    H136647   0.711   2.638  14.195 -1.6770  0.7680 -1.8769
 5052TIP3    H236648   0.724   2.601  14.048  2.9041 -3.0146 -0.6620
 5053TIP3   OH236649   5.465   6.348   0.142 -0.2969 -0.1301  0.3446
 5053TIP3    H136650   5.521   6.408   0.091 -1.8364  0.1777 -1.0335
 5053TIP3    H236651   5.391   6.402   0.170  0.1107 -0.5199  2.2220
 5054TIP3   OH236652   3.857   2.401   1.944 -0.2690 -0.5723 -0.3363
 5054TIP3    H136653   3.787   2.387   1.880 -0.8317 -1.8591  0.5357
 5054TIP3    H236654   3.874   2.314   1.980  1.3391 -0.1658 -0.0745
 5055TIP3   OH236655   2.433   5.374  15.909  0.2003  0.2921 -0.8244
 5055TIP3    H136656   2.472   5.333  15.986  1.0584  1.7130 -0.4870
 5055TIP3    H236657   2.483   5.338  15.835 -1.2948 -1.8630 -0.8453
 5056TIP3   OH236658   0.636   4.963  12.742 -0.1495  0.4367 -0.3373
 5056TIP3    H136659   0.618   4.982  12.650  1.7636  0.7898 -0.6630
 5056TIP3    H236660   0.555   4.986  12.787 -1.2910 -0.2354 -1.9908
 5057TIP3   OH236661   3.818   4.887  10.811  0.6480 -0.0915 -0.3171
 5057TIP3    H136662   3.806   4.978  10.840 -1.0662 -0.8868  1.5579
 5057TIP3    H236663   3.913   4.876  10.808  0.8780  1.6209 -0.1064
 5058TIP3   OH236664   5.705   5.536   3.573 -0.6128  0.5984  0.0150
 5058TIP3    H136665   5.773   5.516   3.638 -1.6269 -1.1267  0.5803
 5058TIP3    H236666   5.678   5.626   3.594  0.5148  0.7991  0.6639
 5059TIP3   OH236667   6.473   5.565   2.136  0.5309  1.0547 -0.3700
 5059TIP3    H136668   6.389   5.519   2.136  0.9524  0.2762 -1.2621
 5059TIP3    H236669   6.537   5.499   2.110  1.2415  1.9766 -1.0087
 5060TIP3   OH236670   1.521   6.316   5.093  0.0307 -0.0312 -0.3843
 5060TIP3    H136671   1.484   6.254   5.156 -1.8132  1.0558 -0.3404
 5060TIP3    H236672   1.455   6.322   5.024  0.7213  0.9793 -0.9738
 5061TIP3   OH236673   6.505   0.284  12.872 -0.3375  0.2671 -0.1211
 5061TIP3    H136674   6.508   0.215  12.804  1.5583  0.1709  0.0248
 5061TIP3    H236675   6.459   0.243  12.945  1.1578 -1.0385  0.1298
 5062TIP3   OH236676   4.066   6.012   4.237  0.0287  0.2788 -0.1691
 5062TIP3    H136677   4.028   5.996   4.150 -0.9302 -1.2585  0.5108
 5062TIP3    H236678   4.085   6.106   4.238  0.9426  0.1405 -2.3931
 5063TIP3   OH236679   2.867   6.615   2.652  0.1889 -0.4704  0.4118
 5063TIP3    H136680   2.830   6.584   2.735 -0.2202  0.6065  0.6432
 5063TIP3    H236681   2.928   6.683   2.677  0.1591 -0.2278 -0.1634
 5064TIP3   OH236682   5.881   0.067   2.367  0.7893 -0.3350 -0.0200
 5064TIP3    H136683   5.911   0.084   2.278  0.3651  1.2505  0.1302
 5064TIP3    H236684   5.961   0.057   2.418  1.0314 -0.9929 -0.5192
 5065TIP3   OH236685   3.340   0.933   4.530 -0.4282  0.3273  0.2868
 5065TIP3    H136686   3.351   0.839   4.543 -1.9911  0.0237 -0.4130
 5065TIP3    H236687   3.296   0.963   4.609 -1.6955  0.1087 -0.3237
 5066TIP3   OH236688   3.923   5.610  12.166 -0.0149 -0.3194 -0.4612
 5066TIP3    H136689   3.937   5.576  12.078  0.2828 -0.4698 -0.3556
 5066TIP3    H236690   3.858   5.552  12.204  0.7822 -1.0059 -0.1419
 5067TIP3   OH236691   0.136   0.838  16.005  0.1677  0.6527 -0.4018
 5067TIP3    H136692   0.154   0.932  16.009  0.0430  0.6489  0.3373
 5067TIP3    H236693   0.084   0.821  16.084  3.1972 -0.6970  1.3579
 5068TIP3   OH236694   3.062   3.405   1.065  0.0071 -0.6510  0.3366
 5068TIP3    H136695   3.011   3.344   1.119  0.2729 -1.1165  0.0648
 5068TIP3    H236696   3.019   3.490   1.078  0.8511 -0.5097  2.2789
 5069TIP3   OH236697   5.838   5.870  15.672 -0.1399  0.4675 -0.1299
 5069TIP3    H136698   5.843   5.843  15.764  0.7656  0.0976 -0.2870
 5069TIP3    H236699   5.897   5.945  15.665 -0.7388  0.9341 -0.2630
 5070TIP3   OH236700   6.543   2.795  13.315  0.1161  0.4464  0.0112
 5070TIP3    H136701   6.515   2.754  13.233  0.6343  1.4780 -0.6953
 5070TIP3    H236702   6.615   2.740  13.346 -0.8443 -0.6166  0.3923
 5071TIP3   OH236703   6.297   1.495  16.258 -0.5672 -0.3951 -0.4939
 5071TIP3    H136704   6.286   1.440  16.180 -1.7433 -0.1246 -0.5229
 5071TIP3    H236705   6.266   1.582  16.231 -0.0391 -0.0481 -0.0170
 5072TIP3   OH236706   1.573   5.244  13.010 -0.1036 -0.5153  0.1742
 5072TIP3    H136707   1.558   5.166  13.065 -0.3744 -0.2030  0.5491
 5072TIP3    H236708   1.485   5.268  12.981  0.0429 -0.6811 -0.3991
 5073TIP3   OH236709   0.323   4.055   6.726  0.5258  0.0250 -0.6010
 5073TIP3    H136710   0.322   4.128   6.664 -1.5753  0.0626 -0.5439
 5073TIP3    H236711   0.271   3.987   6.684 -0.5731 -0.1098  0.9288
 5074TIP3   OH236712   6.283   4.590  12.427  0.1120 -0.4454 -0.4729
 5074TIP3    H136713   6.251   4.680  12.435  2.6201  0.4485 -0.0657
 5074TIP3    H236714   6.274   4.571  12.333 -0.7621  0.0983 -0.5105
 5075TIP3   OH236715   3.304   5.590  11.389  0.2502 -0.3277  0.0150
 5075TIP3    H136716   3.366   5.555  11.452 -0.6879 -1.9560  0.0745
 5075TIP3    H236717   3.316   5.685  11.392  1.6187 -0.5359  1.1551
 5076TIP3   OH236718   0.231   4.772   0.964 -0.3854  0.1649  0.1150
 5076TIP3    H136719   0.280   4.691   0.976  0.3207  0.6582  0.5445
 5076TIP3    H236720   0.293   4.842   0.984 -0.7335  0.8466 -1.1235
 5077TIP3   OH236721   2.446   2.267   1.736  0.4156  0.3001 -0.3095
 5077TIP3    H136722   2.480   2.185   1.772  0.0222 -0.0868 -0.8189
 5077TIP3    H236723   2.366   2.283   1.787  0.7315  0.5980  0.0916
 5078TIP3   OH236724   0.123   2.731   5.102  0.3621  0.3064  0.8135
 5078TIP3    H136725   0.108   2.721   5.196 -1.0321 -1.1881  0.4352
 5078TIP3    H236726   0.042   2.769   5.068 -0.7114 -2.9152 -0.4006
 5079TIP3   OH236727   3.350   4.042  14.734  0.1426  0.2513  0.0820
 5079TIP3    H136728   3.261   4.040  14.699 -0.7199  1.3823  2.1316
 5079TIP3    H236729   3.382   3.953  14.723 -1.2708 -0.1933 -0.5752
 5080TIP3   OH236730   1.313   0.938   4.801 -0.2200 -0.1592  0.4430
 5080TIP3    H136731   1.264   1.018   4.779  0.2497 -0.2813 -1.0676
 5080TIP3    H236732   1.357   0.913   4.720  0.8036 -1.1489  1.2806
 5081TIP3   OH236733   3.463   4.672  16.915 -0.3382  0.4655 -0.5708
 5081TIP3    H136734   3.432   4.586  16.943  1.9928  0.1421  1.1612
 5081TIP3    H236735   3.384   4.719  16.888 -1.6403 -2.2224 -1.6010
 5082TIP3   OH236736   1.412   4.946   3.637  0.8098  0.2107  0.4937
 5082TIP3    H136737   1.467   4.876   3.672 -0.7446 -1.4718 -0.3351
 5082TIP3    H236738   1.468   4.992   3.575  1.6418 -0.7161  0.5511
 5083TIP3   OH236739   2.894   6.481  15.248 -0.0666  0.1510  0.2610
 5083TIP3    H136740   2.811   6.461  15.289 -1.1400  2.0005 -0.9121
 5083TIP3    H236741   2.891   6.576  15.233  2.3517  0.2810  0.4310
 5084TIP3   OH236742   3.491   5.928  12.009  0.2399  0.2372  0.1346
 5084TIP3    H136743   3.478   5.864  11.940  1.1002 -0.4412  0.5931
 5084TIP3    H236744   3.407   5.932  12.055  0.2959 -0.8742  0.3553
 5085TIP3   OH236745   0.913   4.150   2.936  0.0292  0.5546  0.3718
 5085TIP3    H136746   0.857   4.201   2.878 -2.7018 -0.4081  2.0767
 5085TIP3    H236747   0.994   4.138   2.887 -1.0615  2.4204 -1.9605
 5086TIP3   OH236748   4.112   5.048   5.874 -0.1110  0.0705  0.7460
 5086TIP3    H136749   4.087   4.957   5.891 -0.5936  0.1041  0.2374
 5086TIP3    H236750   4.191   5.061   5.926  0.9512 -1.1531 -0.5179
 5087TIP3   OH236751   1.222   2.428   3.010 -0.1968 -0.7102  0.1963
 5087TIP3    H136752   1.235   2.432   2.915  0.2237  0.8119  0.3061
 5087TIP3    H236753   1.136   2.469   3.024 -0.5795 -1.5719  0.4190
 5088TIP3   OH236754   1.920   1.915  16.245  0.0289  0.4945 -0.1794
 5088TIP3    H136755   2.001   1.867  16.261 -0.8003 -1.1454 -0.8440
 5088TIP3    H236756   1.854   1.848  16.227 -1.4690  1.8066  0.2422
 5089TIP3   OH236757   4.661   1.266   4.496  0.4297  0.2096 -0.2784
 5089TIP3    H136758   4.691   1.356   4.487  2.0863 -0.1983  0.7690
 5089TIP3    H236759   4.590   1.257   4.433 -0.0262  2.3506 -0.1106
 5090TIP3   OH236760   6.561   4.653   4.060  0.1188  0.3952 -0.7096
 5090TIP3    H136761   6.485   4.705   4.088  0.8558  0.5347  1.1320
 5090TIP3    H236762   6.553   4.647   3.965 -1.6582  1.2573 -0.6314
 5091TIP3   OH236763   5.738   3.865  14.812 -0.2408 -0.3222  0.0017
 5091TIP3    H136764   5.726   3.790  14.754 -0.9092 -1.2955  1.3849
 5091TIP3    H236765   5.833   3.872  14.823 -0.1498 -0.6035 -0.5798
 5092TIP3   OH236766   3.277   4.078   4.890  0.3664 -0.0602  0.0935
 5092TIP3    H136767   3.219   4.149   4.862  0.1739 -0.2072  0.1135
 5092TIP3    H236768   3.320   4.112   4.969  0.5447  0.1686 -0.0996
 5093TIP3   OH236769   0.307   2.765  14.323  0.1197 -0.1795  0.8170
 5093TIP3    H136770   0.377   2.783  14.260 -0.3293 -1.7049 -0.1397
 5093TIP3    H236771   0.318   2.672  14.346 -3.0904 -1.1369 -1.2807
 5094TIP3   OH236772   3.424   2.299  13.060  0.1002  0.0400  0.4587
 5094TIP3    H136773   3.361   2.253  13.116 -0.6945  1.5862  0.8557
 5094TIP3    H236774   3.498   2.318  13.118 -0.5723  1.3237  0.9316
 5095TIP3   OH236775   5.000   4.276   2.701  0.0048 -0.4542 -0.1318
 5095TIP3    H136776   4.920   4.288   2.651  0.6793  0.9232 -0.9039
 5095TIP3    H236777   4.972   4.276   2.792 -0.8269  0.3532 -0.3855
 5096TIP3   OH236778   1.703   5.617   4.020  0.0334  0.5885  0.5367
 5096TIP3    H136779   1.733   5.603   4.110  2.1068 -1.0297 -0.3812
 5096TIP3    H236780   1.763   5.565   3.966 -0.3992  2.5435 -1.8986
 5097TIP3   OH236781   6.576   2.487   5.661 -0.2736  0.7195  0.1293
 5097TIP3    H136782   6.542   2.464   5.575  0.5196  0.4468 -0.1169
 5097TIP3    H236783   6.521   2.438   5.723 -0.2246  0.1562 -0.2688
 5098TIP3   OH236784   0.311   0.326   2.879 -0.1669  0.2549  0.3739
 5098TIP3    H136785   0.407   0.327   2.882 -0.1825 -0.1291  0.9475
 5098TIP3    H236786   0.285   0.260   2.943 -0.8402  0.9166  0.7858
 5099TIP3   OH236787   6.572   4.497   1.884 -0.4498  0.1860  0.6316
 5099TIP3    H136788   6.595   4.466   1.972  1.7793  1.6188  0.6105
 5099TIP3    H236789   6.494   4.551   1.897 -1.6602 -1.6999  1.3295
 5100TIP3   OH236790   5.981   2.234  13.117  0.6290 -0.4969 -0.5644
 5100TIP3    H136791   5.949   2.160  13.066  0.9964 -1.3011  0.3638
 5100TIP3    H236792   5.987   2.306  13.054 -2.0830 -0.5821 -0.9654
 5101TIP3   OH236793   5.874   1.027  13.959 -0.3453 -0.2320 -0.2509
 5101TIP3    H136794   5.907   0.945  13.994  1.1961 -0.9788 -3.3083
 5101TIP3    H236795   5.788   1.005  13.922 -0.5344 -0.1556  0.1375
 5102TIP3   OH236796   2.542   2.794   2.350 -0.4596  0.5361  0.1412
 5102TIP3    H136797   2.454   2.833   2.351 -0.5222  0.5410 -3.0720
 5102TIP3    H236798   2.601   2.867   2.334 -0.3203 -0.1981 -2.8166
 5103TIP3   OH236799   6.239   6.048  17.289 -0.5486 -0.0543  0.0057
 5103TIP3    H136800   6.245   5.958  17.257  1.0217 -0.7400  2.1109
 5103TIP3    H236801   6.323   6.063  17.334 -1.2864  2.0225  0.7468
 5104TIP3   OH236802   6.683   0.182  13.283  0.1143 -0.2237  0.2041
 5104TIP3    H136803   6.658   0.186  13.375  0.3466  0.8497  0.2341
 5104TIP3    H236804   6.735   0.261  13.269 -0.4364 -0.0640 -0.9963
 5105TIP3   OH236805   5.209   6.588  15.998 -0.1917  0.3717  0.1627
 5105TIP3    H136806   5.241   6.569  16.087 -0.5075 -0.9733  0.0071
 5105TIP3    H236807   5.214   6.683  15.990 -0.0215  0.4900  1.5740
 5106TIP3   OH236808   4.211   4.666  13.294  0.3984  0.0428  0.0267
 5106TIP3    H136809   4.213   4.759  13.317 -1.4819  0.0189  0.4442
 5106TIP3    H236810   4.124   4.637  13.322  0.9735 -1.8544 -0.0723
 5107TIP3   OH236811   5.289   4.870   3.885  0.0319  0.3881  0.0262
 5107TIP3    H136812   5.321   4.879   3.795  0.0582 -0.8244 -0.0917
 5107TIP3    H236813   5.298   4.957   3.922  0.1152  0.8804 -1.1233
 5108TIP3   OH236814   0.812   4.884  15.229 -0.3128  0.1138 -0.2032
 5108TIP3    H136815   0.797   4.793  15.203 -0.2284  0.4523 -1.4699
 5108TIP3    H236816   0.725   4.917  15.251 -0.2056 -0.5749  1.2898
 5109TIP3   OH236817   6.437   1.927  11.665 -0.2583 -0.3066 -0.4057
 5109TIP3    H136818   6.478   1.977  11.736 -1.2410 -0.9845  0.6378
 5109TIP3    H236819   6.347   1.957  11.663 -0.7718 -1.7908  0.0058
 5110TIP3   OH236820   5.536   0.976  13.528  0.7772 -0.1675 -0.4012
 5110TIP3    H136821   5.473   1.046  13.509  1.1978  0.4110  0.3072
 5110TIP3    H236822   5.489   0.895  13.507  1.2623  0.4288 -4.0241
 5111TIP3   OH236823   5.767   2.851  11.323  0.3322  0.2119 -0.3479
 5111TIP3    H136824   5.807   2.842  11.236  0.1557 -2.8977 -0.1522
 5111TIP3    H236825   5.721   2.935  11.319  2.0744  1.1254 -2.5309
 5112TIP3   OH236826   4.634   2.353   4.898 -0.4565 -0.2941 -0.2251
 5112TIP3    H136827   4.598   2.290   4.960 -0.7440 -1.0998 -1.2038
 5112TIP3    H236828   4.615   2.439   4.937 -1.9465 -0.7523  0.0909
 5113TIP3   OH236829   0.044   6.774  14.063  0.3282  0.0605 -0.1789
 5113TIP3    H136830   0.103   6.844  14.034 -0.7145  1.2332  0.5155
 5113TIP3    H236831   0.077   6.750  14.150  0.2925  0.1317 -0.1461
 5114TIP3   OH236832   2.746   5.588   1.176  0.0218  0.4756  0.2985
 5114TIP3    H136833   2.721   5.557   1.263  2.2223 -1.0327  0.4377
 5114TIP3    H236834   2.663   5.598   1.129 -0.9657 -2.8199  1.2129
 5115TIP3   OH236835   3.436   5.206   4.694  0.1677  0.2188 -0.1384
 5115TIP3    H136836   3.352   5.232   4.656 -0.0019  0.1661  0.2034
 5115TIP3    H236837   3.435   5.245   4.781  0.8355  0.8984 -0.4285
 5116TIP3   OH236838   6.525   4.950  11.543  0.2049  0.1870  0.5244
 5116TIP3    H136839   6.610   4.983  11.572  2.4929 -2.2001 -3.1133
 5116TIP3    H236840   6.511   4.991  11.457 -0.8738 -1.7584 -0.2557
 5117TIP3   OH236841   4.493   4.741   2.648  0.0756 -0.2582  0.1102
 5117TIP3    H136842   4.426   4.682   2.682 -0.1757  0.6065  1.1336
 5117TIP3    H236843   4.480   4.740   2.553 -0.0787 -1.6554  0.1403
 5118TIP3   OH236844   1.572   5.123  12.444  0.0027 -0.4050 -0.1028
 5118TIP3    H136845   1.575   5.058  12.514 -1.6430 -0.7172 -0.3022
 5118TIP3    H236846   1.519   5.082  12.375  2.0394 -0.3070 -1.7615
 5119TIP3   OH236847   3.709   2.286   2.176  0.2941 -0.2098  0.4493
 5119TIP3    H136848   3.700   2.379   2.160  0.7585 -0.1642  0.4675
 5119TIP3    H236849   3.672   2.274   2.264 -3.0664 -0.6006 -0.9139
 5120TIP3   OH236850   4.615   4.561  12.430  0.1466  0.1374 -0.2381
 5120TIP3    H136851   4.620   4.521  12.516 -1.3563  0.7630  0.1604
 5120TIP3    H236852   4.620   4.655  12.446  1.3082  0.2081 -0.9621
 5121TIP3   OH236853   2.093   6.512   1.899 -0.0654  0.1577 -0.3470
 5121TIP3    H136854   2.104   6.552   1.813 -1.0920  0.9914 -0.1040
 5121TIP3    H236855   2.037   6.574   1.947  0.5866 -0.2410  0.9519
 5122TIP3   OH236856   5.173   4.571  15.254 -0.7112  0.8659 -0.0969
 5122TIP3    H136857   5.210   4.505  15.313  1.1899  2.5511  0.6293
 5122TIP3    H236858   5.081   4.545  15.245 -0.3729 -1.0102  1.3763
 5123TIP3   OH236859   1.524   1.807   2.185  0.0362  0.0833 -0.7907
 5123TIP3    H136860   1.463   1.838   2.252 -0.5674 -0.9743 -0.8334
 5123TIP3    H236861   1.549   1.719   2.215  0.9564  0.2137 -1.1605
 5124TIP3   OH236862   6.785   2.633  13.283  0.1208  0.1686 -0.1191
 5124TIP3    H136863   6.813   2.557  13.334  0.2360  0.5661  0.4034
 5124TIP3    H236864   6.752   2.595  13.201  0.0314 -0.4549  0.2033
 5125TIP3   OH236865   3.377   2.043  15.674  0.2512  0.5726 -0.0578
 5125TIP3    H136866   3.308   1.975  15.668  0.8908 -0.0548 -0.3693
 5125TIP3    H236867   3.358   2.088  15.756 -0.2864  0.1209  0.0751
 5126TIP3   OH236868   6.725   1.228  11.527 -0.1987  0.4359 -0.2690
 5126TIP3    H136869   6.701   1.320  11.515 -0.9282  0.3218  0.2740
 5126TIP3    H236870   6.682   1.203  11.609  1.9035  0.2588  0.8161
 5127TIP3   OH236871   2.254   6.375   5.108  0.2907  0.1533 -0.2064
 5127TIP3    H136872   2.228   6.300   5.162 -1.1167  0.5221 -0.3620
 5127TIP3    H236873   2.193   6.375   5.035  0.2543  1.4700 -0.1915
 5128TIP3   OH236874   0.203   6.650   3.667 -0.0827  0.2243 -0.5641
 5128TIP3    H136875   0.210   6.656   3.572  1.0482 -0.6454 -0.5448
 5128TIP3    H236876   0.234   6.736   3.698 -0.2545  0.4344 -0.9670
 5129TIP3   OH236877   0.598   3.669  15.130  0.0703 -0.7327  0.2342
 5129TIP3    H136878   0.527   3.668  15.194  0.3606  1.6823  0.6429
 5129TIP3    H236879   0.555   3.648  15.047 -1.2881  1.5250  0.3330
 5130TIP3   OH236880   0.181   5.653  16.784 -0.4507 -0.1809  0.5569
 5130TIP3    H136881   0.169   5.571  16.737 -1.4503 -0.9488  2.1186
 5130TIP3    H236882   0.275   5.668  16.783 -0.5451  0.4837 -2.7699
 5131TIP3   OH236883   5.901   6.541  16.062  0.2842 -0.3083  0.1435
 5131TIP3    H136884   5.963   6.487  16.012 -0.0404 -1.1775  0.6742
 5131TIP3    H236885   5.816   6.499  16.048 -0.2994  1.2445 -1.1035
 5132TIP3   OH236886   4.023   5.784  17.161  0.6447 -0.7033 -0.4138
 5132TIP3    H136887   3.991   5.854  17.218  0.2934 -0.4541 -0.9240
 5132TIP3    H236888   4.098   5.748  17.209 -0.5197 -1.4583  0.9035
 5133TIP3   OH236889   3.589   1.678  16.659  0.8588  0.0863  0.6379
 5133TIP3    H136890   3.682   1.662  16.674  1.0008 -1.0506 -1.2973
 5133TIP3    H236891   3.544   1.609  16.707  1.1099 -0.5791 -0.0683
 5134TIP3   OH236892   1.637   1.961   1.676 -0.1716 -0.1663  0.4124
 5134TIP3    H136893   1.641   1.979   1.582  0.5296  0.2068  0.5021
 5134TIP3    H236894   1.554   1.917   1.689 -0.8005  0.8070 -0.2140
 5135TIP3   OH236895   5.664   4.010  10.201  0.0098 -0.2321 -0.7127
 5135TIP3    H136896   5.685   3.939  10.262  1.1268  2.0408  1.6317
 5135TIP3    H236897   5.569   4.018  10.205 -0.1116 -1.4741 -0.8822
 5136TIP3   OH236898   4.645   4.981  15.137 -0.0779 -0.4486  0.2673
 5136TIP3    H136899   4.741   4.980  15.145 -0.1106 -0.3083  0.7182
 5136TIP3    H236900   4.622   4.891  15.113  0.3029 -0.0397 -1.6922
 5137TIP3   OH236901   4.480   0.660   2.155 -0.2839  0.0514 -0.2312
 5137TIP3    H136902   4.480   0.740   2.207 -0.9527 -0.0743 -0.0234
 5137TIP3    H236903   4.409   0.673   2.092 -0.3936 -0.3751 -0.1968
 5138TIP3   OH236904   2.016   5.972   5.427 -0.3540 -0.2567 -0.6874
 5138TIP3    H136905   1.974   5.909   5.369 -0.5010  0.0917 -0.9624
 5138TIP3    H236906   2.028   6.050   5.372 -0.4493  0.0572 -0.2618
 5139TIP3   OH236907   5.263   5.632  10.653  0.6033  0.0645 -0.2699
 5139TIP3    H136908   5.276   5.599  10.564  3.6153 -1.2220  0.5766
 5139TIP3    H236909   5.351   5.638  10.690 -0.3318  3.5778  1.6217
 5140TIP3   OH236910   4.099   3.071   1.665 -0.1087 -0.0336 -0.1106
 5140TIP3    H136911   4.075   3.039   1.577  0.9108  0.4845 -0.5836
 5140TIP3    H236912   4.019   3.111   1.698 -0.0877  1.1350 -1.4233
 5141TIP3   OH236913   6.438   4.437  16.560 -0.0763  0.0933 -0.6226
 5141TIP3    H136914   6.467   4.487  16.636 -0.6396 -0.9324  0.2953
 5141TIP3    H236915   6.362   4.485  16.527 -1.6175 -0.9846  1.2306
 5142TIP3   OH236916   4.037   2.986   3.517 -0.3123  0.3451 -0.3205
 5142TIP3    H136917   4.039   3.012   3.609  1.1157 -0.0680 -0.2372
 5142TIP3    H236918   4.054   3.068   3.469 -0.0102  0.3593 -0.1875
 5143TIP3   OH236919   3.730   2.130  13.653  0.0427 -0.1460 -0.2497
 5143TIP3    H136920   3.679   2.184  13.714  0.3596 -0.3047  0.1598
 5143TIP3    H236921   3.667   2.069  13.615 -0.4627  0.9568 -1.2300
 5144TIP3   OH236922   4.574   4.895  16.402  0.4477  0.2618  0.4498
 5144TIP3    H136923   4.625   4.906  16.322  1.6997  0.4588  1.2517
 5144TIP3    H236924   4.588   4.977  16.450 -1.7518  0.8946  0.0715
 5145TIP3   OH236925   3.083   3.692   3.325  0.2406  0.4144  0.3456
 5145TIP3    H136926   3.167   3.652   3.307  0.5217  1.5030 -0.8220
 5145TIP3    H236927   3.051   3.723   3.240 -1.5807 -0.4551  0.6782
 5146TIP3   OH236928   2.473   1.116  15.555  0.2097  0.0199  0.6305
 5146TIP3    H136929   2.508   1.104  15.643  1.0720  1.7877  0.5305
 5146TIP3    H236930   2.545   1.154  15.505 -0.4942 -0.3232 -0.6686
 5147TIP3   OH236931   6.265   1.255  13.301  0.0641  0.6477 -0.2885
 5147TIP3    H136932   6.271   1.312  13.225 -1.6072 -0.8970 -1.6379
 5147TIP3    H236933   6.304   1.172  13.272  1.1791  0.6471  1.1742
 5148TIP3   OH236934   4.412   4.102  14.198  0.3985  0.1264 -0.1181
 5148TIP3    H136935   4.402   4.160  14.273 -2.0529 -0.8003  0.2938
 5148TIP3    H236936   4.395   4.015  14.232  0.7827 -0.4853 -1.4452
 5149TIP3   OH236937   0.901   2.808  15.044  0.5414  0.3327 -0.4292
 5149TIP3    H136938   0.840   2.824  15.116  0.1546  0.9500 -0.9007
 5149TIP3    H236939   0.874   2.867  14.975  1.5974  0.5268 -0.6858
 5150TIP3   OH236940   3.406   4.200   4.204  0.1856 -0.0816 -0.1847
 5150TIP3    H136941   3.389   4.158   4.120  0.4477 -1.9451  0.6691
 5150TIP3    H236942   3.378   4.135   4.269  1.2702  0.7841  1.1675
 5151TIP3   OH236943   5.684   3.127   0.534  0.2033  0.1208  0.2660
 5151TIP3    H136944   5.652   3.157   0.449 -0.7935  0.4640  0.7508
 5151TIP3    H236945   5.626   3.054   0.557 -0.4537  0.9435  1.2928
 5152TIP3   OH236946   1.703   1.628  12.368 -0.5159  0.2369 -0.5049
 5152TIP3    H136947   1.733   1.714  12.399  1.2791 -1.1200  1.6629
 5152TIP3    H236948   1.747   1.616  12.284 -0.9448  1.5250 -0.9221
 5153TIP3   OH236949   0.521   6.325  11.441 -0.1318  0.6016  0.2334
 5153TIP3    H136950   0.459   6.323  11.514  0.8222  0.4951  1.0650
 5153TIP3    H236951   0.483   6.387  11.378 -1.2174  0.3016  0.5899
 5154TIP3   OH236952   1.205   3.419   1.265 -0.1316  0.0613  0.4466
 5154TIP3    H136953   1.282   3.466   1.234 -1.0963  0.0625 -2.0454
 5154TIP3    H236954   1.192   3.451   1.354  0.7728  2.5744 -0.2804
 5155TIP3   OH236955   4.324   4.321  12.649 -0.0197  0.5412  0.1546
 5155TIP3    H136956   4.329   4.353  12.559 -1.4203  2.1755  0.6236
 5155TIP3    H236957   4.332   4.400  12.703  0.3060 -0.3601  1.4493
 5156TIP3   OH236958   2.870   5.845  15.938 -0.4458 -0.1342  0.0190
 5156TIP3    H136959   2.823   5.765  15.913 -0.2552 -0.6797  1.3518
 5156TIP3    H236960   2.825   5.874  16.017  0.0394  0.6012  0.0201
 5157TIP3   OH236961   0.543   2.789  13.461  0.6514 -0.3826 -0.0462
 5157TIP3    H136962   0.584   2.707  13.433  1.5759 -0.4350  1.3932
 5157TIP3    H236963   0.614   2.853  13.461  0.2095  0.1081  0.1146
 5158TIP3   OH236964   1.292   6.460   2.558 -0.7202 -0.2994  0.0271
 5158TIP3    H136965   1.304   6.480   2.465 -2.2623 -0.4791 -0.2275
 5158TIP3    H236966   1.321   6.369   2.567  1.3960  0.3665  0.1534
 5159TIP3   OH236967   4.216   2.125   4.718  0.2680  0.2896  0.1022
 5159TIP3    H136968   4.169   2.091   4.642 -0.2473  0.7470  0.2159
 5159TIP3    H236969   4.305   2.141   4.686  0.3558 -0.6014 -0.1036
 5160TIP3   OH236970   0.286   6.483  12.695 -0.0127 -0.0050  0.2717
 5160TIP3    H136971   0.334   6.404  12.672  0.0020  0.1701 -0.3109
 5160TIP3    H236972   0.212   6.485  12.635  0.5929  0.9963 -0.4586
 5161TIP3   OH236973   6.019   2.939   6.782  0.1691 -0.4624  0.0927
 5161TIP3    H136974   6.039   2.853   6.819 -0.8440 -0.7995 -0.1363
 5161TIP3    H236975   5.988   2.920   6.693 -3.0490 -0.1422  1.0684
 5162TIP3   OH236976   2.436   6.342   3.592  0.2580 -0.5067  0.0153
 5162TIP3    H136977   2.378   6.279   3.635  0.0794 -0.4338 -0.1147
 5162TIP3    H236978   2.523   6.325   3.628 -0.4369  1.8084  2.9472
 5163TIP3   OH236979   3.240   6.676  16.457  0.2115 -0.8539 -0.1859
 5163TIP3    H136980   3.319   6.627  16.435 -0.1929 -1.1948 -0.8928
 5163TIP3    H236981   3.191   6.680  16.375  0.8007  1.7726 -0.4449
 5164TIP3   OH236982   1.757   0.242   1.778  0.2647 -0.2083  0.1512
 5164TIP3    H136983   1.696   0.185   1.825 -0.0005 -0.0151  0.0465
 5164TIP3    H236984   1.827   0.260   1.841  0.5254 -0.9222  0.0735
 5165TIP3   OH236985   1.633   3.949   3.052  0.5842 -0.1625  0.7383
 5165TIP3    H136986   1.619   3.938   3.146  0.3236 -0.3306  0.6780
 5165TIP3    H236987   1.642   4.044   3.041 -0.6584 -0.0335  0.7568
 5166TIP3   OH236988   4.663   6.193  14.291  0.3381  0.1962  0.1761
 5166TIP3    H136989   4.630   6.280  14.312  1.1356  0.8450 -1.1419
 5166TIP3    H236990   4.752   6.192  14.328  0.8741  0.4887 -1.0928
 5167TIP3   OH236991   5.529   2.920   6.060 -0.5736  0.3409  0.2590
 5167TIP3    H136992   5.477   2.895   6.136 -2.1680 -3.3154 -1.9059
 5167TIP3    H236993   5.618   2.893   6.082 -0.9755 -0.4398  0.9411
 5168TIP3   OH236994   2.581   5.648  14.804 -0.3574  0.2260  0.5151
 5168TIP3    H136995   2.629   5.631  14.723  1.1158 -1.7611  1.7667
 5168TIP3    H236996   2.498   5.601  14.793  0.1964 -0.7641  0.4951
 5169TIP3   OH236997   3.465   4.470   0.681  0.0356 -0.0481 -0.0793
 5169TIP3    H136998   3.472   4.379   0.651  0.1558 -0.1109  0.1376
 5169TIP3    H236999   3.469   4.522   0.601 -0.0835 -0.2366 -0.2084
 5170TIP3   OH237000   1.192   6.410  15.723 -0.7556 -0.4642 -0.0224
 5170TIP3    H137001   1.207   6.316  15.731 -1.5940 -0.4287  2.6222
 5170TIP3    H237002   1.154   6.435  15.807  1.3820  2.6127  0.1108
 5171TIP3   OH237003   6.788   1.377   2.586 -0.5784 -0.0571  0.6679
 5171TIP3    H137004   6.804   1.334   2.670  0.8163  2.5455  1.7969
 5171TIP3    H237005   6.875   1.389   2.548 -1.0940  0.1045 -0.4760
 5172TIP3   OH237006   3.322   5.511  14.781 -0.0503  0.3999  0.4964
 5172TIP3    H137007   3.234   5.541  14.802 -0.2871  0.8075 -1.0386
 5172TIP3    H237008   3.324   5.419  14.809 -1.1481  0.2192 -0.0153
 5173TIP3   OH237009   1.577   3.460   3.236  0.5054  0.2279 -0.6776
 5173TIP3    H137010   1.513   3.528   3.214 -2.4127 -2.3260 -0.3254
 5173TIP3    H237011   1.594   3.473   3.330 -0.5603  0.0614 -0.4572
 5174TIP3   OH237012   2.222   1.696   3.402  0.3619  0.3071  0.2557
 5174TIP3    H137013   2.211   1.661   3.314  0.8772  1.4086 -0.2549
 5174TIP3    H237014   2.174   1.635   3.458  3.2930 -2.6970 -0.2845
 5175TIP3   OH237015   4.476   5.560   5.119  0.5480 -0.0442  0.1686
 5175TIP3    H137016   4.384   5.567   5.094  1.0499 -0.2320 -1.7731
 5175TIP3    H237017   4.479   5.484   5.177 -0.2904 -0.9462 -0.9472
 5176TIP3   OH237018   6.786   4.163   1.062 -0.2839 -0.1468  0.5012
 5176TIP3    H137019   6.815   4.193   1.148  0.5345  0.2301  0.1062
 5176TIP3    H237020   6.784   4.242   1.008  2.0875 -0.7987 -0.6083
 5177TIP3   OH237021   2.160   1.020   4.001 -0.6304  0.5178  0.0868
 5177TIP3    H137022   2.174   1.069   4.082  0.3193 -0.6419  0.6377
 5177TIP3    H237023   2.169   0.928   4.027 -1.5132  0.0831 -1.1018
 5178TIP3   OH237024   4.873   6.053   2.117  0.6457 -0.7303 -0.1495
 5178TIP3    H137025   4.788   6.065   2.159  0.7802  0.5166 -0.2030
 5178TIP3    H237026   4.857   6.073   2.025  1.2341  0.6777  0.0406
 5179TIP3   OH237027   2.937   4.405  12.791 -0.6038 -0.1537 -0.0281
 5179TIP3    H137028   2.950   4.496  12.821 -1.2215  0.0309 -0.3324
 5179TIP3    H237029   2.852   4.379  12.827  0.1297 -1.0422  1.1129
 5180TIP3   OH237030   4.985   5.484  11.147  0.1224  0.5721 -0.0717
 5180TIP3    H137031   4.910   5.543  11.159 -1.1378 -1.1748  0.7306
 5180TIP3    H237032   5.009   5.457  11.236  0.5721 -0.2949 -0.4522
 5181TIP3   OH237033   1.732   1.623   1.440  0.1071 -0.1653  0.1440
 5181TIP3    H137034   1.747   1.586   1.353  2.3638  0.0914  0.3977
 5181TIP3    H237035   1.713   1.715   1.424  0.2112 -0.1885 -0.1172
 5182TIP3   OH237036   2.793   3.977   6.234  0.2491 -0.5835  0.2604
 5182TIP3    H137037   2.838   3.977   6.150 -1.7916 -1.3122 -0.8773
 5182TIP3    H237038   2.862   3.987   6.299  1.7860  0.8590 -1.5392
 5183TIP3   OH237039   4.073   3.873   1.212 -0.2914 -0.4219  0.0110
 5183TIP3    H137040   4.040   3.817   1.282  0.1589 -0.9441 -0.1870
 5183TIP3    H237041   4.152   3.913   1.249 -0.3705 -0.2538 -0.0009
 5184TIP3   OH237042   4.368   1.613  16.886  0.0904  0.0434 -0.4941
 5184TIP3    H137043   4.369   1.555  16.962  1.5660 -0.8946 -1.2030
 5184TIP3    H237044   4.439   1.581  16.830  0.6133  2.2294 -1.1399
 5185TIP3   OH237045   4.783   1.816  14.118  0.1857  0.9138  0.2263
 5185TIP3    H137046   4.737   1.900  14.130  1.4448  1.7464 -0.5894
 5185TIP3    H237047   4.733   1.771  14.051 -2.7571 -0.7084  3.3294
 5186TIP3   OH237048   1.225   1.510  12.316  0.0047  0.1147 -0.0952
 5186TIP3    H137049   1.285   1.535  12.386 -0.9492  0.9767  0.4378
 5186TIP3    H237050   1.146   1.481  12.362 -0.7168  0.9120 -0.8272
 5187TIP3   OH237051   2.779   0.458   3.965  0.0999 -0.2973 -0.4928
 5187TIP3    H137052   2.738   0.422   4.043 -2.2339 -1.9733 -2.4305
 5187TIP3    H237053   2.726   0.535   3.944  0.5559 -0.0060 -0.5801
 5188TIP3   OH237054   1.031   2.998   3.102  0.1077 -0.3086 -0.4902
 5188TIP3    H137055   1.074   3.053   3.037 -0.3021 -0.1937 -0.6667
 5188TIP3    H237056   1.082   2.917   3.102  1.6638  0.6328  0.8989
 5189TIP3   OH237057   2.083   6.162  13.403  0.1792  0.3232 -0.2798
 5189TIP3    H137058   2.147   6.233  13.403 -0.8531  1.3087 -2.3049
 5189TIP3    H237059   2.001   6.203  13.375 -0.8674 -1.3170  0.2877
 5190TIP3   OH237060   4.290   0.862  17.152  0.2256  0.0126  0.0439
 5190TIP3    H137061   4.325   0.835  17.237 -1.6344  0.6199  1.0274
 5190TIP3    H237062   4.269   0.955  17.163 -0.0672  0.0842 -1.0713
 5191TIP3   OH237063   0.017   4.991  16.851 -0.4989 -0.7465  0.3682
 5191TIP3    H137064  -0.010   4.945  16.930 -0.3948 -0.6060  0.4867
 5191TIP3    H237065   0.113   4.994  16.857 -0.3703 -2.2743 -0.6233
 5192TIP3   OH237066   0.628   3.161   1.204 -0.3669 -0.2818  0.2525
 5192TIP3    H137067   0.668   3.076   1.188 -3.6009 -1.9788  0.8622
 5192TIP3    H237068   0.644   3.178   1.297  0.7614  0.0852  0.0061
 5193TIP3   OH237069   6.163   5.516   3.577  0.3752 -0.0354  0.2412
 5193TIP3    H137070   6.246   5.513   3.623  0.2888  0.7926  0.4623
 5193TIP3    H237071   6.176   5.462   3.499  1.1761  0.2519  0.1764
 5194TIP3   OH237072   1.605   1.589   6.042 -0.5801  0.3400  0.1726
 5194TIP3    H137073   1.621   1.498   6.016 -2.2971 -0.1635  0.8082
 5194TIP3    H237074   1.672   1.607   6.108 -0.7776 -0.7526  0.6838
 5195TIP3   OH237075   5.049   5.494  13.110  0.2652  0.0408 -0.2106
 5195TIP3    H137076   5.049   5.419  13.170 -1.6296 -0.1447 -0.4084
 5195TIP3    H237077   5.129   5.542  13.131  1.0685 -1.5691  0.5138
 5196TIP3   OH237078   3.070   3.546  15.805 -0.3299  0.2911  0.3445
 5196TIP3    H137079   3.151   3.594  15.787  0.5933 -1.6636 -0.9700
 5196TIP3    H237080   3.070   3.532  15.899 -0.1565  2.0810  0.6143
 5197TIP3   OH237081   2.394   0.571  16.868  0.1461  0.7068  0.1401
 5197TIP3    H137082   2.387   0.562  16.773 -1.1740 -0.1129  0.3024
 5197TIP3    H237083   2.303   0.567  16.899  0.7205 -1.7408  1.6455
 5198TIP3   OH237084   5.716   5.987  13.158 -0.0356  0.2650  0.5524
 5198TIP3    H137085   5.681   6.068  13.196  1.5742  0.7331  1.0865
 5198TIP3    H237086   5.797   6.015  13.114  0.0020 -0.8929 -0.1291
 5199TIP3   OH237087   6.034   2.267   4.753 -0.0052 -0.1392  0.3235
 5199TIP3    H137088   6.075   2.264   4.840  0.5531 -0.1021  0.0576
 5199TIP3    H237089   6.071   2.192   4.707  0.8508  0.7376 -0.4097
 5200TIP3   OH237090   4.461   5.988  16.097  0.1277 -0.2868  0.4157
 5200TIP3    H137091   4.457   6.066  16.152  0.4549  0.9688 -1.3054
 5200TIP3    H237092   4.377   5.944  16.111 -1.1176  1.7326 -0.5485
 5201TIP3   OH237093   2.936   1.491  11.530 -0.1495  0.1939 -0.2050
 5201TIP3    H137094   2.949   1.426  11.461  1.3943  0.5190 -0.2308
 5201TIP3    H237095   2.938   1.441  11.612  0.1182  0.0845 -0.2796
 5202TIP3   OH237096   2.258   4.976  16.652 -0.2497 -0.3205 -0.5509
 5202TIP3    H137097   2.231   4.887  16.674 -2.7731  0.5576  0.0858
 5202TIP3    H237098   2.311   5.005  16.726 -1.7137 -0.3513  0.5311
 5203TIP3   OH237099   2.230   2.851  14.980 -0.3981  0.2336 -0.4105
 5203TIP3    H137100   2.278   2.858  14.897  0.9314  0.7373  0.3847
 5203TIP3    H237101   2.217   2.757  14.992  1.1342  0.0186 -0.2479
 5204TIP3   OH237102   0.236   2.310   5.098  0.3524 -0.3477 -0.7765
 5204TIP3    H137103   0.248   2.401   5.123 -1.4141 -0.3295  0.0885
 5204TIP3    H237104   0.148   2.306   5.060 -0.7456 -2.1995  1.7986
 5205TIP3   OH237105   6.104   2.639   4.237 -0.6305 -0.4283  0.0350
 5205TIP3    H137106   6.018   2.668   4.266 -0.3127  0.1538  0.4020
 5205TIP3    H237107   6.118   2.686   4.155  0.2936  1.2245  1.1123
 5206TIP3   OH237108   5.124   5.736   3.563  0.3440  0.2275 -0.0413
 5206TIP3    H137109   5.034   5.743   3.594  0.5207 -1.3222  0.8449
 5206TIP3    H237110   5.126   5.657   3.509  1.3006 -0.0840  0.4272
 5207TIP3   OH237111   2.173   3.774   1.999  0.0549 -0.4989  0.1097
 5207TIP3    H137112   2.089   3.807   1.967  0.6165  0.0193 -0.8432
 5207TIP3    H237113   2.193   3.827   2.076 -0.1404 -0.1319 -0.0936
 5208TIP3   OH237114   5.157   4.251  15.624 -0.1976 -0.0776  0.1677
 5208TIP3    H137115   5.110   4.195  15.686 -0.6380  0.6579  0.5079
 5208TIP3    H237116   5.224   4.195  15.586  0.3507 -0.4219  1.6384
 5209TIP3   OH237117   2.001   5.977  13.816  0.3616  0.3448  0.1907
 5209TIP3    H137118   2.087   5.946  13.789 -0.2470  0.9972 -2.5881
 5209TIP3    H237119   2.019   6.061  13.860  1.2199  0.0077  0.4923
 5210TIP3   OH237120   2.749   0.539  13.731  0.0566 -0.9980  0.8951
 5210TIP3    H137121   2.839   0.569  13.737  0.0766 -0.8009 -0.1727
 5210TIP3    H237122   2.755   0.453  13.689 -0.3963  0.0332 -1.3830
 5211TIP3   OH237123   2.293   3.193  13.969 -0.6255 -0.1910 -0.5587
 5211TIP3    H137124   2.315   3.187  14.062 -3.4095  0.6262  0.2047
 5211TIP3    H237125   2.344   3.123  13.928  1.4389  0.0866  1.3894
 5212TIP3   OH237126   2.928   1.561   0.665 -0.1569 -0.2270 -0.0259
 5212TIP3    H137127   2.943   1.502   0.591  1.3915 -1.5564  1.3125
 5212TIP3    H237128   2.898   1.642   0.625  2.4681 -0.3028 -2.2772
 5213TIP3   OH237129   3.390   6.145   2.503  0.0091  0.3808  0.5558
 5213TIP3    H137130   3.480   6.113   2.505 -0.3945 -1.1049 -2.2736
 5213TIP3    H237131   3.396   6.235   2.473  0.6194  0.6149  1.3754
 5214TIP3   OH237132   1.450   4.013  12.440 -0.0465  0.6730 -0.5297
 5214TIP3    H137133   1.516   3.963  12.488 -0.1647  0.8854 -0.1396
 5214TIP3    H237134   1.384   3.948  12.416 -0.7373  0.8058  0.9187
 5215TIP3   OH237135   5.639   0.577   3.215  0.7489  0.1366  0.5194
 5215TIP3    H137136   5.714   0.520   3.203  1.2803  1.2377 -1.6061
 5215TIP3    H237137   5.677   0.664   3.228 -0.1186  0.4615  0.9387
 5216TIP3   OH237138   3.665   2.251  16.757  0.0351 -0.1312 -0.2452
 5216TIP3    H137139   3.575   2.226  16.735  0.0561 -1.6196  1.2813
 5216TIP3    H237140   3.703   2.278  16.674 -1.6926  0.0898 -0.9887
 5217TIP3   OH237141   3.703   0.712  11.397  0.3220 -0.1216 -0.1645
 5217TIP3    H137142   3.785   0.702  11.445  1.3437  1.2026 -1.5720
 5217TIP3    H237143   3.716   0.663  11.316  1.0880  2.8789 -1.9483
 5218TIP3   OH237144   4.114   5.694  14.852  0.1114  0.2321 -0.1512
 5218TIP3    H137145   4.148   5.629  14.913  1.9413  0.1712 -1.1986
 5218TIP3    H237146   4.047   5.741  14.901  0.7438 -0.5819  1.5062
 5219TIP3   OH237147   0.818   1.858   1.462  0.4267  0.0890 -0.5384
 5219TIP3    H137148   0.790   1.873   1.552 -0.2086  1.1862 -0.9021
 5219TIP3    H237149   0.799   1.941   1.417  3.1999  0.4714 -1.0714
 5220TIP3   OH237150   4.202   5.917  16.194 -0.0105  0.2488 -0.0819
 5220TIP3    H137151   4.210   5.983  16.263  4.2745 -0.7827  0.5285
 5220TIP3    H237152   4.175   5.837  16.239  1.0680  0.0137  0.1534
 5221TIP3   OH237153   0.887   2.615  17.132  0.1460  0.3717 -0.1494
 5221TIP3    H137154   0.961   2.609  17.072 -0.8142  0.5182 -1.3545
 5221TIP3    H237155   0.911   2.685  17.193  1.1086  0.2347 -0.3680
 5222TIP3   OH237156   1.428   4.141   4.729  0.2996 -0.6083 -0.7706
 5222TIP3    H137157   1.501   4.197   4.706 -0.2321 -0.0561 -1.1314
 5222TIP3    H237158   1.411   4.089   4.651  0.0952 -0.5008 -0.7993
 5223TIP3   OH237159   1.824   4.436   3.817 -0.1508 -0.4204 -0.2335
 5223TIP3    H137160   1.752   4.451   3.756  0.2809 -1.4383 -1.0117
 5223TIP3    H237161   1.826   4.341   3.828  2.0870 -0.5475 -1.4746
 5224TIP3   OH237162   5.182   5.283   4.361 -0.5914  0.0681 -0.3921
 5224TIP3    H137163   5.141   5.283   4.274 -0.8541  0.3528 -0.2691
 5224TIP3    H237164   5.133   5.349   4.410 -1.8697 -1.6485  0.6631
 5225TIP3   OH237165   0.279   2.167  12.502  0.4189 -0.2091  0.1737
 5225TIP3    H137166   0.220   2.167  12.427  1.0033 -1.5683 -0.3016
 5225TIP3    H237167   0.359   2.208  12.468  1.0193 -1.6876 -0.2375
 5226TIP3   OH237168   6.589   4.246   2.829  0.1740  0.0734  0.3613
 5226TIP3    H137169   6.609   4.318   2.889 -0.9724  2.0280 -1.5344
 5226TIP3    H237170   6.498   4.223   2.848  0.0370  0.2029 -0.1377
 5227TIP3   OH237171   2.972   3.226   0.008 -0.1438  0.2309  0.0903
 5227TIP3    H137172   2.899   3.238  -0.052 -0.9176 -0.8925  0.7964
 5227TIP3    H237173   3.005   3.138  -0.011  1.3310  0.8907 -0.5360
 5228TIP3   OH237174   2.195   1.426   4.084  0.0462 -0.1765  0.2637
 5228TIP3    H137175   2.155   1.511   4.102 -0.3939 -0.2182 -0.4809
 5228TIP3    H237176   2.252   1.443   4.009 -0.2530 -0.6004 -0.0568
 5229TIP3   OH237177   4.954   2.355  16.626 -0.0949 -0.4843 -0.1068
 5229TIP3    H137178   4.972   2.294  16.554 -1.2259 -1.3226  0.3077
 5229TIP3    H237179   5.034   2.406  16.635 -0.1718  0.1370 -2.4614
 5230TIP3   OH237180   4.196   1.448   3.128 -0.0768 -0.4834 -0.2082
 5230TIP3    H137181   4.152   1.444   3.212 -1.8239  0.4518 -1.0424
 5230TIP3    H237182   4.171   1.533   3.091 -0.0125 -1.2106 -2.0100
 5231TIP3   OH237183   3.066   2.537   1.273  0.6706  0.0804 -0.2590
 5231TIP3    H137184   2.988   2.530   1.328  0.5892 -1.1647 -0.5252
 5231TIP3    H237185   3.063   2.627   1.239 -1.5517 -0.4404 -1.5649
 5232TIP3   OH237186   6.820   1.364  13.340 -0.1643 -0.1764 -0.5837
 5232TIP3    H137187   6.829   1.457  13.322 -1.5943  0.6440  2.5843
 5232TIP3    H237188   6.907   1.327  13.325  0.6865  1.8765 -0.7973
 5233TIP3   OH237189   2.946   0.379   0.029  0.4599 -0.4969  0.3199
 5233TIP3    H137190   2.905   0.453  -0.015  0.2118 -0.7657  0.0997
 5233TIP3    H237191   2.982   0.416   0.110  2.8172  0.4217 -1.1350
 5234TIP3   OH237192   4.566   3.387  17.030 -0.2682 -0.1526 -0.1141
 5234TIP3    H137193   4.568   3.358  17.121  0.0364  0.7593  0.1787
 5234TIP3    H237194   4.473   3.388  17.007 -0.4330  0.8322  0.5931
 5235TIP3   OH237195   5.376   2.102  12.003 -0.2639  0.6192 -0.0034
 5235TIP3    H137196   5.403   2.133  12.089  1.9492 -0.5003 -0.2587
 5235TIP3    H237197   5.419   2.017  11.993 -2.9019 -0.6934 -0.9888
 5236TIP3   OH237198   1.846   5.378  15.430 -0.1599 -0.5249 -0.0667
 5236TIP3    H137199   1.863   5.463  15.471  1.5636 -0.9105  0.0592
 5236TIP3    H237200   1.764   5.348  15.469 -1.2688  1.4730 -0.7769
 5237TIP3   OH237201   4.757   4.666  11.336 -0.1845 -0.1251 -0.2632
 5237TIP3    H137202   4.668   4.654  11.368  0.0258 -2.2505 -0.3964
 5237TIP3    H237203   4.795   4.578  11.339  1.9847  0.7968  0.0392
 5238TIP3   OH237204   3.836   2.474  12.938 -0.2973  0.0098  0.5573
 5238TIP3    H137205   3.869   2.385  12.932  2.1635  0.6120  3.8749
 5238TIP3    H237206   3.866   2.517  12.857 -1.6470 -2.1207 -1.1317
 5239TIP3   OH237207   3.613   2.721  12.482 -0.1265 -0.4995 -0.3128
 5239TIP3    H137208   3.547   2.789  12.472  0.9113  1.1103  3.2778
 5239TIP3    H237209   3.680   2.744  12.418 -0.6876  0.7589 -0.4702
 5240TIP3   OH237210   2.573   3.069  12.880  0.0252 -0.2717 -0.4180
 5240TIP3    H137211   2.495   3.026  12.845  0.2504 -0.5002 -0.6449
 5240TIP3    H237212   2.575   3.044  12.972 -1.9693  2.3969  0.3912
 5241TIP3   OH237213   4.311   5.399  15.255  0.0879  0.0455  0.2442
 5241TIP3    H137214   4.283   5.340  15.324 -0.7217 -1.1969 -1.1228
 5241TIP3    H237215   4.271   5.483  15.277  0.3579 -0.1873  1.6161
 5242TIP3   OH237216   1.709   6.562   5.534 -0.1881  0.8361 -0.5046
 5242TIP3    H137217   1.626   6.606   5.517 -0.2784  0.3468 -1.3349
 5242TIP3    H237218   1.750   6.554   5.448  0.7527  1.1433 -0.0903
 5243TIP3   OH237219   2.977   3.676   1.101  0.1484 -0.1454 -0.4910
 5243TIP3    H137220   3.029   3.751   1.074 -0.4239 -0.2347 -1.8963
 5243TIP3    H237221   2.906   3.713   1.154  0.5103  0.1725 -0.2259
 5244TIP3   OH237222   2.167   0.232   2.120 -0.4765 -0.0982  0.5075
 5244TIP3    H137223   2.262   0.241   2.119 -0.5895  1.2399 -1.9317
 5244TIP3    H237224   2.137   0.293   2.187  0.2853  0.5468  0.2599
 5245TIP3   OH237225   0.455   5.060  14.004 -0.1663  0.6946 -0.2072
 5245TIP3    H137226   0.448   5.096  14.093 -0.3905 -0.1943  0.1367
 5245TIP3    H237227   0.395   4.986  14.004  0.7388 -0.0371 -0.7423
 5246TIP3   OH237228   0.001   1.634  15.314  0.3816  0.1308  0.1330
 5246TIP3    H137229  -0.031   1.711  15.266  1.3039  1.3796  1.4782
 5246TIP3    H237230  -0.079   1.585  15.336 -0.2153  0.7094 -0.7109
 5247TIP3   OH237231   1.966   5.623   5.869  0.5809 -0.3258  0.3957
 5247TIP3    H137232   1.956   5.595   5.960  0.5038 -0.7751  0.2510
 5247TIP3    H237233   1.904   5.695   5.859 -0.3601 -1.1404  0.3340
 5248TIP3   OH237234   4.997   3.317   0.261  0.1193 -0.2663 -0.0300
 5248TIP3    H137235   5.006   3.345   0.170 -0.3054 -1.5686 -0.4714
 5248TIP3    H237236   4.907   3.339   0.285 -0.4705 -1.9806 -0.6323
 5249TIP3   OH237237   0.083   4.654   5.490 -0.1486  0.1920  0.6035
 5249TIP3    H137238   0.169   4.676   5.454 -0.6734 -0.6036 -1.1870
 5249TIP3    H237239   0.094   4.567   5.528 -0.2285 -0.0501  0.0830
 5250TIP3   OH237240   6.403   4.139   5.157  0.2990  0.0252 -0.1415
 5250TIP3    H137241   6.362   4.223   5.134  0.5199 -0.0152 -0.6895
 5250TIP3    H237242   6.412   4.142   5.252  0.1156  0.5396 -0.1391
 5251TIP3   OH237243   6.416   2.081  12.059 -0.4298 -0.1710  0.1022
 5251TIP3    H137244   6.471   2.115  11.988 -0.7616 -0.1697 -0.1550
 5251TIP3    H237245   6.349   2.029  12.015  0.0802 -1.1739  0.4953
 5252TIP3   OH237246   5.410   2.554   5.212  0.1018  0.1885  0.1884
 5252TIP3    H137247   5.418   2.481   5.273 -0.2583 -1.2250 -1.4439
 5252TIP3    H237248   5.339   2.529   5.153 -1.2760  2.6504  0.6869
 5253TIP3   OH237249   5.833   0.215   6.248  0.0692 -0.3208  0.5362
 5253TIP3    H137250   5.888   0.218   6.326  0.4530  0.2650  0.2397
 5253TIP3    H237251   5.863   0.288   6.194 -0.5316 -0.4216  0.0640
 5254TIP3   OH237252   1.218   6.168   6.170 -0.1906 -0.1985  0.1536
 5254TIP3    H137253   1.188   6.136   6.085 -4.4079 -0.3610  1.5585
 5254TIP3    H237254   1.184   6.257   6.176  0.9568  0.1894  1.2540
 5255TIP3   OH237255   3.028   0.866  14.020 -0.1783 -0.1499  0.4223
 5255TIP3    H137256   3.029   0.903  14.108 -0.6316  0.8278  0.0318
 5255TIP3    H237257   2.992   0.778  14.030 -1.7536  0.5499  0.9892
 5256TIP3   OH237258   2.291   6.615  14.263  0.3980  0.1370 -0.0992
 5256TIP3    H137259   2.355   6.597  14.331  1.6927 -0.8478 -1.5456
 5256TIP3    H237260   2.283   6.710  14.261  2.0771  0.2817 -0.1489
 5257TIP3   OH237261   4.297   5.941   1.876 -0.1481  0.5116  0.6346
 5257TIP3    H137262   4.259   5.911   1.959 -0.3587  0.0883  0.3854
 5257TIP3    H237263   4.222   5.971   1.824 -0.1995 -0.8153 -0.0610
 5258TIP3   OH237264   1.975   0.460  14.866 -0.3949  0.3061 -0.0682
 5258TIP3    H137265   2.026   0.438  14.944 -1.9471 -1.5196  0.4996
 5258TIP3    H237266   1.979   0.381  14.812 -2.3089  0.2228 -0.1368
 5259TIP3   OH237267   5.411   0.866   5.248  0.0795  0.3910 -0.0173
 5259TIP3    H137268   5.406   0.772   5.228 -0.7750  0.4556 -0.1082
 5259TIP3    H237269   5.425   0.869   5.343 -1.5597  0.2019  0.2390
 5260TIP3   OH237270   0.962   1.877  15.220  0.0149  0.3730  0.0753
 5260TIP3    H137271   0.964   1.887  15.315 -0.0426  2.1677 -0.0937
 5260TIP3    H237272   0.869   1.878  15.197 -0.0169 -1.1526  0.0926
 5261TIP3   OH237273   2.976   6.117   5.146  0.1471 -0.3698 -0.0994
 5261TIP3    H137274   3.051   6.171   5.122  0.5827 -1.8561 -2.2182
 5261TIP3    H237275   2.913   6.179   5.184  0.7851  1.5401 -2.0595
 5262TIP3   OH237276   0.583   1.650   1.590  0.5040 -0.4227  0.3837
 5262TIP3    H137277   0.504   1.692   1.623  0.1344 -1.1700  0.4626
 5262TIP3    H237278   0.573   1.651   1.495 -0.0159 -1.2966  0.4226
 5263TIP3   OH237279   6.193   0.643  13.567 -0.1725 -0.5771 -0.2055
 5263TIP3    H137280   6.111   0.642  13.617 -0.0154 -0.7017  0.0550
 5263TIP3    H237281   6.167   0.617  13.478 -0.7261  1.3576 -0.6330
 5264TIP3   OH237282   4.555   0.675   0.273  0.4656 -0.4592 -0.1519
 5264TIP3    H137283   4.619   0.653   0.342  0.6341 -1.1083 -0.5146
 5264TIP3    H237284   4.569   0.609   0.205 -0.6988 -0.6903 -0.1736
 5265TIP3   OH237285   3.174   1.481  14.838  0.6907  0.1910  0.3034
 5265TIP3    H137286   3.165   1.571  14.805  0.8295  0.9433  2.2320
 5265TIP3    H237287   3.125   1.482  14.921  0.5464 -1.5699  0.2452
 5266TIP3   OH237288   3.196   6.001   3.904 -0.0509  0.1157 -0.0020
 5266TIP3    H137289   3.162   6.079   3.948 -0.4832 -1.4802  2.5912
 5266TIP3    H237290   3.131   5.933   3.921  1.1994 -1.2878 -0.6529
 5267TIP3   OH237291   6.371   6.277  15.477 -0.1701  0.1037  0.0398
 5267TIP3    H137292   6.453   6.306  15.437  0.0081 -1.2112 -0.5735
 5267TIP3    H237293   6.303   6.328  15.433  0.2630  0.7560  0.1221
 5268TIP3   OH237294   5.841   6.817  14.623  0.3041 -0.2040 -0.2443
 5268TIP3    H137295   5.825   6.739  14.674  0.2493  1.0944  1.7794
 5268TIP3    H237296   5.863   6.785  14.535 -0.6908 -2.4121  0.2927
 5269TIP3   OH237297   6.752   1.704  15.956 -0.1329 -0.3477 -0.1228
 5269TIP3    H137298   6.766   1.695  16.050 -0.2213 -1.2047 -0.1875
 5269TIP3    H237299   6.751   1.614  15.923 -1.9081 -0.1277 -0.6780
 5270TIP3   OH237300   5.373   1.008   4.809 -0.0919 -0.1974 -0.4762
 5270TIP3    H137301   5.312   0.986   4.880  0.6707  0.4377  0.3957
 5270TIP3    H237302   5.319   1.008   4.730 -1.0697 -0.3793  0.1793
 5271TIP3   OH237303   0.280   5.911  13.548 -0.0828  0.6610  0.4616
 5271TIP3    H137304   0.215   5.973  13.516  0.1824 -0.3549 -2.2467
 5271TIP3    H237305   0.364   5.957  13.537 -0.1415  1.1105  1.7878
 5272TIP3   OH237306   0.656   0.404  13.158 -0.2102  0.2178  0.0534
 5272TIP3    H137307   0.624   0.415  13.068 -0.0469  0.3287  0.0081
 5272TIP3    H237308   0.747   0.376  13.148 -0.4015 -0.4440  0.1778
 5273TIP3   OH237309   5.620   6.817  15.059 -0.4403  0.7365 -0.7702
 5273TIP3    H137310   5.539   6.844  15.016  0.1304  0.7659 -1.8403
 5273TIP3    H237311   5.690   6.842  14.998  0.3939  0.9596  0.2655
 5274TIP3   OH237312   3.339   4.765  13.184  0.4482  0.0762  0.5058
 5274TIP3    H137313   3.306   4.687  13.140  1.2849  0.3373 -0.6091
 5274TIP3    H237314   3.366   4.734  13.271  1.6993 -1.1020 -0.2801
 5275TIP3   OH237315   5.513   0.042  11.297 -0.2152  0.1209  0.3680
 5275TIP3    H137316   5.532   0.044  11.391  1.3526  0.8289  0.0539
 5275TIP3    H237317   5.541  -0.045  11.268  0.2403  0.2659  0.3716
 5276TIP3   OH237318   0.769   1.678   4.597  0.0408 -0.2344  0.0204
 5276TIP3    H137319   0.701   1.717   4.652 -0.0722  0.2554 -0.4665
 5276TIP3    H237320   0.790   1.595   4.640 -0.3321 -0.0393  0.5823
 5277TIP3   OH237321   1.633   2.975  17.025  0.0515  0.0612 -0.6059
 5277TIP3    H137322   1.686   3.003  17.099 -0.7881  0.2853 -0.0873
 5277TIP3    H237323   1.557   2.932  17.064 -1.3186  1.8151 -1.2981
 5278TIP3   OH237324   0.206   4.103  10.823  0.2873 -0.1598 -0.5601
 5278TIP3    H137325   0.261   4.024  10.821  1.2765  0.5379 -2.2662
 5278TIP3    H237326   0.265   4.173  10.795 -0.6039  1.1782  0.8500
 5279TIP3   OH237327   1.368   0.712   4.946  0.1883 -0.1459  0.2957
 5279TIP3    H137328   1.360   0.738   5.038  1.1320  1.7145 -0.1323
 5279TIP3    H237329   1.366   0.794   4.897  1.6185 -0.9759 -1.2152
 5280TIP3   OH237330   6.442   4.584   1.550 -0.1003  0.9295  0.2848
 5280TIP3    H137331   6.458   4.666   1.504 -0.2707  0.6444 -0.2973
 5280TIP3    H237332   6.503   4.522   1.510  0.6048  0.9737  1.2954
 5281TIP3   OH237333   1.476   6.656   3.117  0.0503  0.7868 -0.0347
 5281TIP3    H137334   1.439   6.730   3.070 -0.2927 -0.4481 -1.7354
 5281TIP3    H237335   1.456   6.580   3.063  1.0476 -0.4724  1.3121
 5282TIP3   OH237336   1.758   5.517   0.846  0.4383 -0.6840  0.1568
 5282TIP3    H137337   1.742   5.432   0.805 -0.4626 -0.3881 -0.1187
 5282TIP3    H237338   1.700   5.577   0.800 -0.2756 -0.2554  1.5627
 5283TIP3   OH237339   3.889   1.694  10.933 -0.1590 -0.3507 -0.4580
 5283TIP3    H137340   3.818   1.631  10.921 -1.2720  0.9799 -0.9066
 5283TIP3    H237341   3.872   1.762  10.868  1.3815  0.1048 -0.3886
 5284TIP3   OH237342   4.685   1.729   4.369  0.2740 -0.2673  0.2257
 5284TIP3    H137343   4.619   1.732   4.299 -0.2377  2.2415  0.7427
 5284TIP3    H237344   4.748   1.797   4.344  2.0557 -1.8573  0.3401
 5285TIP3   OH237345   0.379   1.307   1.210  0.6907 -0.7926 -0.1363
 5285TIP3    H137346   0.326   1.234   1.238  0.8080  0.5739  3.9203
 5285TIP3    H237347   0.462   1.296   1.257  1.5141  0.7196 -1.1891
 5286TIP3   OH237348   3.292   5.617   4.360  0.4352  0.3408  0.4070
 5286TIP3    H137349   3.293   5.612   4.265 -1.2751 -1.6014  0.4665
 5286TIP3    H237350   3.202   5.638   4.383  0.5565 -0.4200  1.6377
 5287TIP3   OH237351   3.350   1.552  17.220  0.1020  0.2246 -0.1215
 5287TIP3    H137352   3.403   1.528  17.296 -1.0389 -1.1423  0.2646
 5287TIP3    H237353   3.414   1.581  17.154  1.3826 -1.9374  0.1277
 5288TIP3   OH237354   1.490   6.364   1.799  0.0963  0.2263  0.1993
 5288TIP3    H137355   1.454   6.283   1.836  1.1765 -0.5460 -0.4070
 5288TIP3    H237356   1.577   6.339   1.767 -0.2744  1.1872 -1.6425
 5289TIP3   OH237357   2.732   5.105   5.702  0.1406 -0.4789  0.4119
 5289TIP3    H137358   2.642   5.133   5.685  0.2612 -0.3015  0.0577
 5289TIP3    H237359   2.786   5.170   5.658  0.4562 -0.1505  1.2773
 5290TIP3   OH237360   4.609   3.476  14.830 -0.3378  0.4343  0.2970
 5290TIP3    H137361   4.704   3.487  14.823 -0.4226  1.0873  0.1240
 5290TIP3    H237362   4.574   3.512  14.748 -0.5445 -2.4144 -0.9021
 5291TIP3   OH237363   5.147   3.927   3.492 -0.3741  0.1116  0.1570
 5291TIP3    H137364   5.117   3.938   3.582  0.1540 -1.0434  0.4820
 5291TIP3    H237365   5.230   3.881   3.500  0.7244  1.8799 -0.8213
 5292TIP3   OH237366   4.554   4.141  17.113 -0.4488  0.3472 -0.1099
 5292TIP3    H137367   4.535   4.234  17.113 -0.0028  0.4434  0.9469
 5292TIP3    H237368   4.470   4.099  17.096 -0.9230  0.8940  0.8600
 5293TIP3   OH237369   2.712   4.582   1.852 -0.0464  0.6612 -0.1539
 5293TIP3    H137370   2.780   4.591   1.785 -0.5698  1.5678 -0.5700
 5293TIP3    H237371   2.747   4.517   1.913  1.6891  1.8854  0.2127
 5294TIP3   OH237372   6.536   1.689  17.117  0.7850 -0.2239  0.2085
 5294TIP3    H137373   6.537   1.751  17.044 -0.1449 -0.4371  0.0037
 5294TIP3    H237374   6.443   1.670  17.130  1.0185 -0.9838  0.7718
 5295TIP3   OH237375   3.974   4.983   0.248  0.0555 -0.6052 -0.9801
 5295TIP3    H137376   3.917   4.907   0.263  1.8179 -2.0186 -1.2362
 5295TIP3    H237377   4.015   4.999   0.332  1.3493 -1.3536 -1.4517
 5296TIP3   OH237378   1.268   3.428   2.371  0.4606  0.9259 -0.0870
 5296TIP3    H137379   1.226   3.475   2.444  0.5401 -0.7682  1.0970
 5296TIP3    H237380   1.348   3.477   2.354  1.4268  0.2683  2.3103
 5297TIP3   OH237381   4.613   6.169   0.033 -0.4198  0.8508 -0.0215
 5297TIP3    H137382   4.685   6.138   0.088  0.9148  0.7907 -1.7631
 5297TIP3    H237383   4.564   6.090   0.011 -0.4387  0.7566  0.3533
 5298TIP3   OH237384   1.688   0.863  15.950  0.4432 -0.7081 -0.0214
 5298TIP3    H137385   1.692   0.907  16.035 -2.5018  0.2767 -0.3183
 5298TIP3    H237386   1.778   0.866  15.917  0.8662  2.5397  1.2493
 5299TIP3   OH237387   0.846   5.813   3.264 -0.1341 -0.1907  0.0032
 5299TIP3    H137388   0.768   5.861   3.238 -1.0023 -1.0565  1.0097
 5299TIP3    H237389   0.886   5.787   3.181 -0.6507  0.6578 -0.5203
 5300TIP3   OH237390   1.061   0.495  11.237 -0.0606  0.1977  0.2992
 5300TIP3    H137391   1.005   0.484  11.161  0.7570 -1.5531 -0.0639
 5300TIP3    H237392   1.061   0.589  11.253 -3.5266  0.2182  0.6453
 5301TIP3   OH237393   2.978   3.730   3.599  0.1312  0.4866  0.7231
 5301TIP3    H137394   2.883   3.733   3.588  0.2365  0.0130 -0.4045
 5301TIP3    H237395   3.013   3.735   3.510  1.1625  0.5748  1.1190
 5302TIP3   OH237396   5.337   0.296  12.987 -0.2854 -0.2872  0.0884
 5302TIP3    H137397   5.422   0.341  12.986 -0.1490 -0.5401 -1.2267
 5302TIP3    H237398   5.273   0.365  12.971 -0.2957 -0.1558  0.6954
 5303TIP3   OH237399   3.288   0.629  12.548 -0.0503  0.1568 -0.0422
 5303TIP3    H137400   3.258   0.541  12.573 -1.2907  0.6816  0.3706
 5303TIP3    H237401   3.348   0.654  12.618  0.1464 -0.2863 -0.0515
 5304TIP3   OH237402   3.340   6.601  11.794 -0.2702  1.0509  0.3714
 5304TIP3    H137403   3.247   6.580  11.802 -0.1609  0.5402  0.3080
 5304TIP3    H237404   3.344   6.664  11.721 -0.4193  0.1069 -0.4547
 5305TIP3   OH237405   1.495   0.365   0.780  0.2862  0.1049  0.6058
 5305TIP3    H137406   1.460   0.447   0.815 -0.6652  0.1443 -0.4453
 5305TIP3    H237407   1.430   0.299   0.805 -0.7502  0.2378 -1.6682
 5306TIP3   OH237408   3.281   4.142  13.616 -0.0744  0.4455  0.2277
 5306TIP3    H137409   3.215   4.208  13.593 -0.3054  0.5018  1.0341
 5306TIP3    H237410   3.360   4.193  13.633  0.0457  0.4200 -0.2490
 5307TIP3   OH237411   5.652   4.442  17.164  0.4018 -0.4143  0.1687
 5307TIP3    H137412   5.588   4.506  17.192  0.1172 -0.0515 -1.2555
 5307TIP3    H237413   5.734   4.468  17.206  0.6988  1.9374 -1.7666
 5308TIP3   OH237414   0.469   4.419   5.223 -0.2920 -0.0165  0.0704
 5308TIP3    H137415   0.426   4.334   5.219 -0.3667 -0.0198  0.8495
 5308TIP3    H237416   0.436   4.459   5.303  0.2039  0.4978  0.0256
 5309TIP3   OH237417   6.693   4.977  15.318  0.4110  0.0724 -0.0614
 5309TIP3    H137418   6.767   4.979  15.257  0.6178  1.4565  0.2009
 5309TIP3    H237419   6.642   5.055  15.295 -1.4949 -1.3728 -0.8586
 5310TIP3   OH237420   1.901   6.318  12.682 -0.3511  0.2307  0.4988
 5310TIP3    H137421   1.871   6.280  12.765 -2.1094  0.5755  0.0413
 5310TIP3    H237422   1.835   6.385  12.661 -0.9282 -1.0899 -2.0963
 5311TIP3   OH237423   4.331   3.985  13.689  0.4136 -0.3383  0.1574
 5311TIP3    H137424   4.357   4.075  13.668  0.4762 -0.4025 -0.0427
 5311TIP3    H237425   4.238   3.991  13.710  0.3925 -0.2424  0.0423
 5312TIP3   OH237426   5.477   2.432  13.477 -0.2606  0.1119 -0.0816
 5312TIP3    H137427   5.400   2.416  13.532  0.2230 -0.0487  0.5627
 5312TIP3    H237428   5.518   2.510  13.514  0.0973 -0.0265 -0.1789
 5313TIP3   OH237429   1.210   5.700   1.375 -0.3921  0.2058  0.3452
 5313TIP3    H137430   1.274   5.662   1.315 -1.0754 -0.3526 -0.0417
 5313TIP3    H237431   1.257   5.707   1.458  0.5439  0.9314 -0.2348
 5314TIP3   OH237432   1.339   2.456  14.223  0.0897  0.0697  0.0707
 5314TIP3    H137433   1.315   2.363  14.231  0.1937 -0.1670 -2.1039
 5314TIP3    H237434   1.378   2.463  14.136  1.6517  1.8314  0.8952
 5315TIP3   OH237435   5.626   6.191  17.010 -0.0342  0.3392 -0.1979
 5315TIP3    H137436   5.633   6.188  17.105 -0.3435  0.3836 -0.1781
 5315TIP3    H237437   5.700   6.138  16.979 -0.9922 -1.1951  0.1007
 5316TIP3   OH237438   6.291   4.489  12.181  0.8237 -0.2169 -0.2377
 5316TIP3    H137439   6.385   4.500  12.165  0.4556  0.9876 -1.6757
 5316TIP3    H237440   6.251   4.495  12.095 -0.6257 -0.3151  0.4140
 5317TIP3   OH237441   2.155   2.941  16.435 -0.5678  0.0595 -0.3452
 5317TIP3    H137442   2.092   2.991  16.384 -1.5218  0.5868  1.3093
 5317TIP3    H237443   2.128   2.850  16.422 -0.3143  0.1250 -1.4056
 5318TIP3   OH237444   4.667   3.037  13.290  0.3699  0.1776  0.1294
 5318TIP3    H137445   4.692   3.129  13.298 -0.7405  0.6090 -1.2070
 5318TIP3    H237446   4.616   3.033  13.209 -0.8536 -1.3451  0.9522
 5319TIP3   OH237447   4.561   3.381   2.287 -0.1287  0.5009  0.7999
 5319TIP3    H137448   4.485   3.335   2.321 -1.4135  1.2005 -1.0328
 5319TIP3    H237449   4.558   3.365   2.192  1.7582  0.9040  0.6465
 5320TIP3   OH237450   1.196   1.099   6.620 -0.1328  0.4362 -0.1542
 5320TIP3    H137451   1.274   1.132   6.575  0.2256 -0.3638 -0.1291
 5320TIP3    H237452   1.219   1.102   6.712  0.8164 -2.1599 -0.2773
 5321TIP3   OH237453   0.418   3.395  16.051  0.4676  0.3679 -0.0516
 5321TIP3    H137454   0.363   3.473  16.050 -0.7665 -0.4748  1.2227
 5321TIP3    H237455   0.504   3.427  16.078  0.2240  1.4517 -0.5372
 5322TIP3   OH237456   6.208   3.064  16.736  0.4352 -0.4716 -0.3018
 5322TIP3    H137457   6.222   3.112  16.818 -0.4439  0.5705 -0.7517
 5322TIP3    H237458   6.157   2.987  16.762 -0.2717  0.1130  0.0640
 5323TIP3   OH237459   2.598   1.998   2.180 -0.2744 -0.1945  0.0516
 5323TIP3    H137460   2.595   2.009   2.275 -0.5470  1.9899 -0.1878
 5323TIP3    H237461   2.516   2.036   2.148  1.4923  2.6310 -1.3390
 5324TIP3   OH237462   0.573   1.280   0.993  0.2656 -0.5313 -0.4692
 5324TIP3    H137463   0.491   1.310   1.030 -0.7160 -2.9899 -0.5703
 5324TIP3    H237464   0.584   1.332   0.913 -1.0205  0.0236 -0.2858
 5325TIP3   OH237465   4.570   4.701   1.780 -0.0250 -0.3007  0.1266
 5325TIP3    H137466   4.568   4.695   1.875  0.7845  1.7037  0.2916
 5325TIP3    H237467   4.541   4.790   1.760  1.0336 -0.2763 -1.4281
 5326TIP3   OH237468   0.764   2.623  11.997  0.6525  1.2129 -0.0235
 5326TIP3    H137469   0.707   2.682  12.046 -0.0796 -0.4664  1.1701
 5326TIP3    H237470   0.845   2.620  12.047  0.2822  0.3177  0.5199
 5327TIP3   OH237471   2.000   4.989   5.777 -0.6137  0.5789 -0.3864
 5327TIP3    H137472   1.982   4.957   5.865 -0.5793  0.0424 -0.5742
 5327TIP3    H237473   1.952   4.930   5.720  0.8664 -0.2115 -0.8302
 5328TIP3   OH237474   3.801   0.433   5.090  0.4309 -0.0051 -0.2503
 5328TIP3    H137475   3.763   0.514   5.057 -0.9737 -1.3193 -2.0146
 5328TIP3    H237476   3.850   0.398   5.015  0.1026 -1.3145  0.1269
 5329TIP3   OH237477   1.625   0.723  11.939 -0.2911 -0.3534  0.1656
 5329TIP3    H137478   1.650   0.649  11.883 -1.1828 -0.8712  0.4471
 5329TIP3    H237479   1.569   0.684  12.006 -1.6930  0.7718 -0.3455
 5330TIP3   OH237480   3.758   2.844   4.937  0.3182 -0.6911  0.1090
 5330TIP3    H137481   3.720   2.864   4.851  1.3327  1.0658  0.0409
 5330TIP3    H237482   3.683   2.820   4.991 -0.3140 -2.0395 -1.3060
 5331TIP3   OH237483   1.875   5.691  11.798  0.1225  0.7261 -0.4087
 5331TIP3    H137484   1.812   5.671  11.867  1.3884 -0.1034  0.5338
 5331TIP3    H237485   1.852   5.779  11.769  0.0004  1.3791  1.5812
 5332TIP3   OH237486   4.653   1.412   0.511  0.2728  0.5210  0.0642
 5332TIP3    H137487   4.610   1.467   0.576 -1.3144 -0.3581 -0.2263
 5332TIP3    H237488   4.746   1.417   0.534  0.1170  3.0297  0.2305
 5333TIP3   OH237489   5.117   4.043  16.051  0.1255  0.5378  0.5636
 5333TIP3    H137490   5.158   3.987  15.985  0.0194 -0.0742  1.0115
 5333TIP3    H237491   5.039   3.995  16.077  0.8134  0.2050  2.0203
 5334TIP3   OH237492   1.406   2.603   4.267  0.3462 -0.3687  0.1471
 5334TIP3    H137493   1.323   2.563   4.243  0.0947 -0.1343  0.6239
 5334TIP3    H237494   1.466   2.529   4.279  0.4179 -0.4991 -0.9692
 5335TIP3   OH237495   5.739   2.461  16.850  0.6091  0.3351 -0.2489
 5335TIP3    H137496   5.743   2.410  16.931  2.4814  1.0244  0.1231
 5335TIP3    H237497   5.779   2.545  16.873  0.6371  0.7492 -1.7400
 5336TIP3   OH237498   0.347   3.564  15.707  0.1907 -0.0454  0.3362
 5336TIP3    H137499   0.423   3.621  15.702  0.8020 -0.6939  1.8198
 5336TIP3    H237500   0.274   3.622  15.728  0.7589  0.2295  1.5664
 5337TIP3   OH237501   6.564   0.542   4.843  0.2050  0.1557  0.4786
 5337TIP3    H137502   6.550   0.447   4.851  0.6263  0.1870  1.6173
 5337TIP3    H237503   6.479   0.576   4.817 -0.2817 -0.3872  1.3257
 5338TIP3   OH237504   3.906   3.390   1.696 -0.2918 -0.4806  0.1553
 5338TIP3    H137505   3.866   3.419   1.614 -0.5342  0.5727  0.6380
 5338TIP3    H237506   3.835   3.344   1.742 -0.6281  0.3418  0.4794
 5339TIP3   OH237507   2.828   4.596   4.826 -0.3514  0.6532 -0.3878
 5339TIP3    H137508   2.750   4.549   4.854  0.2967  0.9899  2.1136
 5339TIP3    H237509   2.799   4.687   4.815 -0.5343  0.5766 -0.5529
 5340TIP3   OH237510   2.834   3.828  15.271 -0.2606  0.0795  0.0380
 5340TIP3    H137511   2.880   3.871  15.343  1.1938 -0.2172 -0.6882
 5340TIP3    H237512   2.776   3.765  15.314 -0.2444  0.7107  0.9942
 5341TIP3   OH237513   3.341   5.048   0.897 -0.3441 -0.0156  0.5425
 5341TIP3    H137514   3.316   5.131   0.938 -3.7706  0.5292 -2.4176
 5341TIP3    H237515   3.298   4.981   0.949 -1.2818  0.4093  0.3355
 5342TIP3   OH237516   4.897   6.417   3.991  0.2294  0.0802 -0.7700
 5342TIP3    H137517   4.931   6.338   4.033 -0.0120 -0.4947 -1.6387
 5342TIP3    H237518   4.975   6.471   3.975  0.6120 -0.7323 -1.7176
 5343TIP3   OH237519   2.155   5.682  16.327  0.0578 -0.3504  0.2346
 5343TIP3    H137520   2.122   5.759  16.281 -1.1487 -0.1658  1.3771
 5343TIP3    H237521   2.240   5.665  16.287 -0.4775  0.4694 -1.2848
 5344TIP3   OH237522   5.916   4.570   2.885  0.2862 -0.2209  0.4713
 5344TIP3    H137523   5.919   4.496   2.824 -1.7533 -0.8341  1.0856
 5344TIP3    H237524   5.846   4.626   2.852  2.5223  2.0139 -0.6002
 5345TIP3   OH237525   2.065   4.500   4.402  0.2383 -0.3861  0.1733
 5345TIP3    H137526   2.118   4.580   4.404  0.1818 -0.3637  0.9531
 5345TIP3    H237527   1.984   4.524   4.445 -0.7746 -0.1820 -1.7907
 5346TIP3   OH237528   4.316   6.555  15.451 -0.2522  0.0906  0.0568
 5346TIP3    H137529   4.222   6.555  15.467  0.0987  0.7200  2.2665
 5346TIP3    H237530   4.341   6.648  15.453  0.6460 -0.1665  0.9605
 5347TIP3   OH237531   5.455   0.087   2.057  0.2030  0.7099  0.2191
 5347TIP3    H137532   5.454  -0.003   2.025 -0.6647  0.3075  1.3544
 5347TIP3    H237533   5.373   0.096   2.105  1.4996  1.2731  2.3973
 5348TIP3   OH237534   4.332   1.881  12.450 -0.0778 -0.6239 -0.5440
 5348TIP3    H137535   4.326   1.970  12.417  2.4906 -0.3877 -0.4764
 5348TIP3    H237536   4.346   1.892  12.545  0.2859 -1.0895 -0.5438
 5349TIP3   OH237537   4.869   4.233  15.416  0.4537  0.4895  0.0920
 5349TIP3    H137538   4.914   4.252  15.334  0.1925  0.1092 -0.1401
 5349TIP3    H237539   4.882   4.139  15.429 -1.0464  0.2073 -0.4343
 5350TIP3   OH237540   5.520   6.777  15.860 -0.3412  0.2878  0.1132
 5350TIP3    H137541   5.553   6.864  15.837  0.6162  0.0437  0.5677
 5350TIP3    H237542   5.527   6.727  15.778 -2.6457  1.1531 -0.6567
 5351TIP3   OH237543   3.212   2.864  11.850 -0.3248  0.2325  0.1853
 5351TIP3    H137544   3.208   2.960  11.847 -0.0323  0.2810  1.1082
 5351TIP3    H237545   3.282   2.845  11.912 -0.5038 -0.5854  0.1418
 5352TIP3   OH237546   5.196   0.690   3.347 -0.0460  0.6084 -0.5841
 5352TIP3    H137547   5.128   0.722   3.288 -0.4266 -2.4576 -1.8879
 5352TIP3    H237548   5.262   0.652   3.289  1.0997  0.3805  0.8495
 5353TIP3   OH237549   0.061   6.078  11.123 -0.3710  0.1030 -0.7626
 5353TIP3    H137550   0.146   6.078  11.078 -1.1784  0.2492 -2.3163
 5353TIP3    H237551   0.009   6.012  11.078 -1.1037  0.0325  0.1605
 5354TIP3   OH237552   5.116   4.089  16.558 -0.0660 -0.3835 -0.2736
 5354TIP3    H137553   5.045   4.025  16.551  0.5389 -0.9164 -1.7143
 5354TIP3    H237554   5.104   4.148  16.484  0.5553 -0.0458 -0.1121
 5355TIP3   OH237555   1.758   5.429   3.172  0.3556  0.1990  0.3098
 5355TIP3    H137556   1.809   5.511   3.178  0.7177 -0.0896  1.4313
 5355TIP3    H237557   1.740   5.407   3.263 -2.2770  0.5821 -0.0894
 5356TIP3   OH237558   4.722   5.194   1.964 -0.5904 -0.0559  0.0013
 5356TIP3    H137559   4.690   5.183   1.874  2.9533 -3.3344 -1.0057
 5356TIP3    H237560   4.781   5.120   1.978 -2.2207 -0.5251  5.6419
 5357TIP3   OH237561   5.975   3.739   1.023  0.1143  0.2194  0.2627
 5357TIP3    H137562   6.059   3.696   1.044  0.3541  0.0570 -0.9764
 5357TIP3    H237563   5.909   3.677   1.052  0.4555 -0.5813 -0.6289
 5358TIP3   OH237564   3.703   5.664   3.352 -0.1453  0.1121  0.1821
 5358TIP3    H137565   3.764   5.606   3.396 -1.4352 -0.6037  1.0638
 5358TIP3    H237566   3.670   5.612   3.278  0.0836  0.3931 -0.1203
 5359TIP3   OH237567   5.999   2.296   2.087 -0.7434  0.0241 -0.0490
 5359TIP3    H137568   5.986   2.324   1.997  1.9526 -0.1982 -0.5368
 5359TIP3    H237569   5.996   2.200   2.083 -0.9364  0.0182  0.1724
 5360TIP3   OH237570   3.529   2.143   2.824 -0.2473 -0.0256 -0.1466
 5360TIP3    H137571   3.469   2.190   2.765 -0.4265  0.0806  0.1148
 5360TIP3    H237572   3.508   2.179   2.911  1.1145  0.9749 -0.2181
 5361TIP3   OH237573   5.777   5.627  16.176 -0.4332  0.7419 -0.2506
 5361TIP3    H137574   5.729   5.710  16.183  2.2332  2.1536  2.1022
 5361TIP3    H237575   5.856   5.649  16.127  0.0686 -0.5437 -0.0385
 5362TIP3   OH237576   5.166   2.465  14.284  0.6591  0.2730  0.5570
 5362TIP3    H137577   5.117   2.393  14.325  0.7977 -0.3927 -0.4255
 5362TIP3    H237578   5.256   2.432  14.278  0.6410  0.3513 -0.2661
 5363TIP3   OH237579   2.270   3.794   3.111 -0.1693 -0.3301 -0.1768
 5363TIP3    H137580   2.236   3.734   3.177 -2.1440 -1.1988 -1.9344
 5363TIP3    H237581   2.312   3.738   3.045  1.9402  0.5318  0.3675
 5364TIP3   OH237582   1.415   2.317   2.467 -0.4603  0.7020  0.2181
 5364TIP3    H137583   1.441   2.227   2.448  2.1927  1.5395 -0.2659
 5364TIP3    H237584   1.452   2.335   2.553 -1.5594  1.1238  0.6113
 5365TIP3   OH237585   3.028   5.935  17.227 -0.4295 -0.2776 -0.1538
 5365TIP3    H137586   2.999   5.845  17.243  3.4737 -1.4080  1.2973
 5365TIP3    H237587   3.053   5.968  17.314  1.6655  0.8563 -1.1396
 5366TIP3   OH237588   2.789   4.699   2.969  0.6925 -0.2003  0.0560
 5366TIP3    H137589   2.747   4.677   3.053  0.2178 -0.6756 -0.2968
 5366TIP3    H237590   2.817   4.614   2.934 -1.7250 -0.3772 -1.6303
 5367TIP3   OH237591   1.729   4.929   5.324 -0.1829 -0.2232  0.1624
 5367TIP3    H137592   1.749   4.851   5.374 -0.9004 -1.3328 -1.2552
 5367TIP3    H237593   1.657   4.904   5.266  1.6118  0.5426 -2.5507
 5368TIP3   OH237594   5.857   6.480  15.566  0.2624 -0.4837 -0.2370
 5368TIP3    H137595   5.933   6.429  15.595 -0.5172  0.2982  3.3972
 5368TIP3    H237596   5.786   6.451  15.623 -2.0040 -0.6270 -3.0561
 5369TIP3   OH237597   4.607   0.393  12.131 -0.1051 -0.7598  0.1152
 5369TIP3    H137598   4.544   0.460  12.155  0.3290  0.0576 -0.9912
 5369TIP3    H237599   4.693   0.433  12.146  0.1649 -0.6968 -1.4454
 5370TIP3   OH237600   0.222   6.793   1.339 -0.4170  0.6746 -0.0734
 5370TIP3    H137601   0.174   6.875   1.347 -0.0681  1.1058 -2.1542
 5370TIP3    H237602   0.308   6.818   1.307 -0.6224 -0.5628 -1.7065
 5371TIP3   OH237603   6.592   4.122  17.005  0.1373 -0.1073  0.1804
 5371TIP3    H137604   6.608   4.046  16.949 -1.5082 -0.3035 -0.0540
 5371TIP3    H237605   6.676   4.140  17.046  1.0545 -0.7335 -1.4056
 5372TIP3   OH237606   1.748   0.246   2.902 -0.1887 -0.4320  0.4658
 5372TIP3    H137607   1.660   0.270   2.931 -0.2508  0.4770 -0.4242
 5372TIP3    H237608   1.778   0.322   2.851  1.4237 -0.4163  1.4196
 5373TIP3   OH237609   2.552   1.403   4.442 -0.0799 -0.6591 -0.1267
 5373TIP3    H137610   2.570   1.465   4.512  0.2533 -0.8163 -0.0695
 5373TIP3    H237611   2.508   1.454   4.374 -2.0057 -0.8861  0.9444
 5374TIP3   OH237612   6.265   4.963  12.945  0.3886  0.3852 -1.0260
 5374TIP3    H137613   6.348   5.005  12.921  0.5442 -0.5989 -2.3017
 5374TIP3    H237614   6.198   5.016  12.903  0.2203  2.2057  1.4526
 5375TIP3   OH237615   1.666   3.176  11.428 -0.0983 -0.7337  0.6821
 5375TIP3    H137616   1.602   3.207  11.492 -1.0144  1.7087 -1.3523
 5375TIP3    H237617   1.740   3.237  11.436  0.4163 -1.3196  0.4336
 5376TIP3   OH237618   1.213   6.765   2.049  0.2402  0.0329 -0.2710
 5376TIP3    H137619   1.120   6.785   2.035  0.4281  1.3912  0.2993
 5376TIP3    H237620   1.215   6.672   2.070 -1.0327  0.0828  0.1287
 5377TIP3   OH237621   5.691   3.834  10.404  0.0765 -0.0470  0.3973
 5377TIP3    H137622   5.745   3.781  10.462  0.6337 -1.6496 -1.5125
 5377TIP3    H237623   5.603   3.797  10.414 -0.0802  0.5492  1.2147
 5378TIP3   OH237624   5.845   0.846  14.362 -0.5210 -0.6045 -0.6442
 5378TIP3    H137625   5.908   0.799  14.417 -0.0560 -1.3214 -1.7899
 5378TIP3    H237626   5.760   0.813  14.390 -0.4184  0.3860  0.9278
 5379TIP3   OH237627   0.867   1.972   2.313 -0.1742 -0.2677  0.1774
 5379TIP3    H137628   0.846   2.055   2.354  0.1449 -0.5007  0.8123
 5379TIP3    H237629   0.790   1.917   2.329 -1.1325  0.4635 -1.7724
 5380TIP3   OH237630   1.509   6.627  17.258  0.0459 -0.0289  0.1538
 5380TIP3    H137631   1.533   6.540  17.228 -0.2215  0.2091 -0.7642
 5380TIP3    H237632   1.456   6.612  17.337  0.3317 -0.6746  0.2215
 5381TIP3   OH237633   0.559   4.592   4.483 -0.4570  0.2214  0.5068
 5381TIP3    H137634   0.464   4.585   4.477 -0.7108 -0.3083  4.0125
 5381TIP3    H237635   0.577   4.685   4.467 -1.2264 -0.1569 -2.9471
 5382TIP3   OH237636   0.750   2.681  10.735 -0.3964  0.4188  0.1391
 5382TIP3    H137637   0.814   2.741  10.772 -1.3635  0.8379  1.1757
 5382TIP3    H237638   0.784   2.594  10.756  0.0266  0.6348  0.3541
 5383TIP3   OH237639   1.427   0.348   1.960  0.2884 -0.3598  0.7440
 5383TIP3    H137640   1.354   0.332   2.019 -0.5271  1.1399  0.1741
 5383TIP3    H237641   1.390   0.337   1.872  1.1471 -1.1914  0.4781
 5384TIP3   OH237642   1.705   1.396  13.412 -0.3513 -0.2392  0.0464
 5384TIP3    H137643   1.787   1.356  13.439 -0.0545  0.2789 -0.1000
 5384TIP3    H237644   1.730   1.479  13.372 -0.6239 -1.7243 -3.3807
 5385TIP3   OH237645   2.676   3.797   2.383 -0.2937  0.5547 -0.4870
 5385TIP3    H137646   2.586   3.787   2.414 -1.0222  2.0786 -2.0203
 5385TIP3    H237647   2.722   3.842   2.454 -0.9928  0.6672 -0.1032
 5386TIP3   OH237648   2.100   5.941  16.247  0.1460  0.4779 -0.5006
 5386TIP3    H137649   2.062   5.953  16.160  3.1875  0.0468 -1.9204
 5386TIP3    H237650   2.155   6.019  16.260 -2.4379  1.9760  2.2698
 5387TIP3   OH237651   2.379   4.756   3.627  0.5131  0.4669 -0.1817
 5387TIP3    H137652   2.285   4.745   3.640  0.3076  0.3561 -1.6565
 5387TIP3    H237653   2.398   4.708   3.546  1.8408  0.4815  0.1000
 5388TIP3   OH237654   0.488   3.477  16.519 -0.2923  0.0578 -0.0672
 5388TIP3    H137655   0.422   3.486  16.587 -1.0693 -0.9777 -0.6659
 5388TIP3    H237656   0.508   3.567  16.493 -1.1433  0.3959  0.4306
 5389TIP3   OH237657   0.469   3.662  12.511  0.1206 -0.2988  0.5274
 5389TIP3    H137658   0.381   3.649  12.546  0.5390 -4.9001  0.2713
 5389TIP3    H237659   0.527   3.628  12.580  1.6204  1.1022 -0.0030
 5390TIP3   OH237660   6.121   1.757  12.236  0.4146  0.2437  0.0565
 5390TIP3    H137661   6.120   1.675  12.286 -0.2850  0.6487  0.7056
 5390TIP3    H237662   6.094   1.731  12.148 -3.2069  0.2853  1.0643
 5391TIP3   OH237663   6.799   0.322  13.989  0.0984  0.7663  0.1911
 5391TIP3    H137664   6.819   0.290  13.901 -0.1127  1.1000  0.0181
 5391TIP3    H237665   6.872   0.293  14.043 -0.4132 -0.5772  0.1775
 5392TIP3   OH237666   5.711   2.410  15.341  0.1402  0.5978  0.1479
 5392TIP3    H137667   5.793   2.361  15.337  0.3079  0.9702 -1.3163
 5392TIP3    H237668   5.736   2.501  15.323 -0.5724  0.7240 -0.2505
 5393TIP3   OH237669   5.068   1.294   2.926  0.3629 -0.4086  0.1411
 5393TIP3    H137670   5.028   1.280   3.012  1.5038 -2.3897  0.3562
 5393TIP3    H237671   5.162   1.299   2.943  0.5023  0.5685 -0.8411
 5394TIP3   OH237672   4.282   2.482  12.853 -0.0045  0.1318  0.5253
 5394TIP3    H137673   4.308   2.555  12.796  0.2718 -0.5289 -0.1914
 5394TIP3    H237674   4.204   2.445  12.811  1.3040 -1.5573 -0.4531
 5395TIP3   OH237675   1.122   4.906   4.903  0.4692 -0.1385 -0.0083
 5395TIP3    H137676   1.126   4.911   4.808  0.9333 -2.8126 -0.1740
 5395TIP3    H237677   1.030   4.922   4.924  0.5731  1.6142 -0.7867
 5396TIP3   OH237678   2.592   3.004   5.392  0.8112 -0.3819  0.5770
 5396TIP3    H137679   2.653   3.015   5.319  0.2522  2.8697  0.5471
 5396TIP3    H237680   2.636   3.047   5.466 -1.0307  1.1720  0.7804
 5397TIP3   OH237681   0.002   4.971   3.269 -0.1414  0.4188 -0.1227
 5397TIP3    H137682  -0.013   4.992   3.177  1.9180  1.3826 -0.2717
 5397TIP3    H237683   0.054   5.044   3.303 -0.2305 -0.2851  1.6093
 5398TIP3   OH237684   2.787   2.637  15.273  0.3739 -0.1831 -0.7436
 5398TIP3    H137685   2.774   2.659  15.366 -1.4388  0.5188 -1.1322
 5398TIP3    H237686   2.878   2.611  15.267  0.7895  0.7426  1.0593
 5399TIP3   OH237687   4.298   3.107  13.892 -0.2112  0.2098 -0.3549
 5399TIP3    H137688   4.376   3.056  13.871  0.8278  0.8961  1.7350
 5399TIP3    H237689   4.245   3.048  13.946  0.0338  0.6159  0.3317
 5400TIP3   OH237690   1.106   6.538   5.765 -0.3480  0.5058  0.3479
 5400TIP3    H137691   1.181   6.562   5.711 -0.2713  0.3566  0.3874
 5400TIP3    H237692   1.092   6.614   5.821  0.1954  0.2786  0.8002
 5401TIP3   OH237693   4.620   3.570  16.143  0.8371  0.4511  0.3173
 5401TIP3    H137694   4.698   3.624  16.139  1.2668 -0.2997 -2.2150
 5401TIP3    H237695   4.607   3.539  16.054 -1.9209 -0.0607  0.8393
 5402TIP3   OH237696   1.734   0.560   0.321  0.0695  0.9496 -0.0815
 5402TIP3    H137697   1.739   0.576   0.227  0.6482 -0.2853 -0.2658
 5402TIP3    H237698   1.651   0.513   0.333  1.6926 -2.1554 -0.4807
 5403TIP3   OH237699   1.533   5.673  17.270 -0.3951 -0.1708  0.0143
 5403TIP3    H137700   1.594   5.600  17.275 -0.7343 -0.4918 -0.5118
 5403TIP3    H237701   1.573   5.734  17.208 -0.4835 -0.2601 -0.1296
 5404TIP3   OH237702   4.064   2.868  11.060 -0.1476  0.2811 -0.7122
 5404TIP3    H137703   4.076   2.779  11.026  0.7858  0.5962 -1.2308
 5404TIP3    H237704   3.993   2.904  11.008 -1.2622 -0.5312  0.2342
 5405TIP3   OH237705   5.577   5.066  14.983 -0.0919 -0.4057  0.0852
 5405TIP3    H137706   5.506   5.026  15.034  0.2158 -2.1692 -0.8135
 5405TIP3    H237707   5.654   5.015  15.006  0.3997 -0.0639 -0.7954
 5406TIP3   OH237708   4.023   3.884   0.902  0.0685 -0.5563 -0.8548
 5406TIP3    H137709   4.089   3.854   0.839  0.8430  1.4517 -1.0591
 5406TIP3    H237710   4.038   3.831   0.980  1.8900 -0.2028 -0.9377
 5407TIP3   OH237711   5.241   3.159  13.980 -0.4030 -0.2881  0.2843
 5407TIP3    H137712   5.304   3.159  14.052 -1.9743 -1.6718  1.7022
 5407TIP3    H237713   5.286   3.113  13.909  2.4063  3.9045 -0.8409
 5408TIP3   OH237714   5.790   4.739   0.170 -0.1001  0.1442  0.1546
 5408TIP3    H137715   5.756   4.819   0.129 -0.0697  0.9949  1.7389
 5408TIP3    H237716   5.868   4.767   0.217  0.3063 -0.9621  0.1621
 5409TIP3   OH237717   4.436   4.752   0.578  0.1081  0.8372 -0.1212
 5409TIP3    H137718   4.436   4.811   0.653 -1.7649  0.3030  0.3433
 5409TIP3    H237719   4.393   4.673   0.611 -1.2405  0.8011 -1.9107
 5410TIP3   OH237720   4.470   1.308   0.064  0.1487 -0.4679 -0.3062
 5410TIP3    H137721   4.544   1.264   0.022  0.1768 -0.2364 -0.5000
 5410TIP3    H237722   4.503   1.396   0.084  0.2581 -0.6931  0.5391
 5411TIP3   OH237723   0.804   4.667  13.618 -0.0862 -0.6339  0.1850
 5411TIP3    H137724   0.830   4.744  13.669  1.4026 -0.5916 -0.6062
 5411TIP3    H237725   0.783   4.601  13.683 -1.5364  0.4821  0.8827
 5412TIP3   OH237726   6.295   0.428   3.771  0.2861  0.1582  0.4416
 5412TIP3    H137727   6.335   0.349   3.808  3.3200  0.6375 -1.6410
 5412TIP3    H237728   6.244   0.465   3.844  0.0715 -2.8487  1.8929
 5413TIP3   OH237729   5.162   4.308  12.218  0.3176 -0.4468 -0.1579
 5413TIP3    H137730   5.168   4.253  12.296  1.6665 -1.2947 -0.8398
 5413TIP3    H237731   5.242   4.289  12.169 -0.2738  0.4501 -1.5015
 5414TIP3   OH237732   0.564   5.204  10.635 -0.6871  0.4373 -0.0005
 5414TIP3    H137733   0.504   5.250  10.693  0.3701  0.3845  1.1586
 5414TIP3    H237734   0.611   5.144  10.692  0.8227  0.8342 -0.7974
 5415TIP3   OH237735   4.732   2.625   5.513 -0.1132  0.0076  0.1854
 5415TIP3    H137736   4.642   2.594   5.510 -0.1298 -0.0377  1.0086
 5415TIP3    H237737   4.751   2.652   5.423 -0.9331 -0.0108  0.0019
 5416TIP3   OH237738   4.488   0.310   2.455 -0.2680 -0.5810 -1.1752
 5416TIP3    H137739   4.402   0.349   2.469  0.3529  0.7910 -1.1321
 5416TIP3    H237740   4.543   0.383   2.427  1.7271 -0.7806  2.0719
 5417TIP3   OH237741   0.759   0.169   3.852  0.4641  0.7429 -0.7892
 5417TIP3    H137742   0.744   0.093   3.796 -1.1117  0.4279  0.0218
 5417TIP3    H237743   0.810   0.135   3.926  1.7709  0.9743 -1.5698
 5418TIP3   OH237744   5.796   1.541   4.980  0.1835 -0.1553  0.2759
 5418TIP3    H137745   5.808   1.484   5.056  1.7231 -0.8007 -0.4355
 5418TIP3    H237746   5.827   1.626   5.009  2.2517 -0.7579 -0.0929
 5419TIP3   OH237747   2.509   0.810  13.030 -0.5520 -0.3549  0.6161
 5419TIP3    H137748   2.451   0.880  13.002 -0.8583 -1.6987 -2.2132
 5419TIP3    H237749   2.496   0.806  13.125 -3.6186  0.6569  0.3045
 5420TIP3   OH237750   1.592   4.450  13.967  0.6912 -0.1674  0.4827
 5420TIP3    H137751   1.575   4.536  14.004 -0.1087 -0.8373  1.7305
 5420TIP3    H237752   1.505   4.417  13.944  0.6305 -1.8919  2.9228
 5421TIP3   OH237753   0.392   4.147   0.334 -0.0346 -0.3085 -0.2728
 5421TIP3    H137754   0.407   4.053   0.321  0.1969 -0.2043 -0.8039
 5421TIP3    H237755   0.439   4.169   0.414 -1.6414 -1.0196  0.8789
 5422TIP3   OH237756   6.093   1.935   2.740  0.8943  0.0315  0.1369
 5422TIP3    H137757   6.073   1.954   2.831  0.9317  0.9861 -0.0539
 5422TIP3    H237758   6.012   1.898   2.705  0.8284 -0.1797  0.5043
 5423TIP3   OH237759   3.584   2.920  16.371 -0.0456  0.0547  0.1627
 5423TIP3    H137760   3.539   2.858  16.314 -0.3826  0.5696 -0.1271
 5423TIP3    H237761   3.514   2.972  16.410  0.3575  1.6861 -1.2459
 5424TIP3   OH237762   0.971   3.595  12.746 -0.7188  0.1363 -0.8052
 5424TIP3    H137763   1.019   3.598  12.663 -0.8531  1.0848 -0.8591
 5424TIP3    H237764   1.029   3.639  12.809  0.1304 -2.0674  0.0115
 5425TIP3   OH237765   5.396   0.063  11.648 -0.1835 -0.2521 -0.2509
 5425TIP3    H137766   5.387   0.153  11.618  1.9129  0.1071  0.0984
 5425TIP3    H237767   5.308   0.026  11.641 -1.3245  2.1634  0.7654
 5426TIP3   OH237768   1.622   0.784  13.079  0.7238 -0.2537  0.0851
 5426TIP3    H137769   1.682   0.719  13.041  1.1488  1.0489 -1.5471
 5426TIP3    H237770   1.571   0.735  13.143  2.0022 -1.8878 -0.1168
 5427TIP3   OH237771   3.703   3.737  12.804 -0.2229  0.3071  0.0706
 5427TIP3    H137772   3.628   3.792  12.827  1.0627  0.8620  3.1116
 5427TIP3    H237773   3.745   3.785  12.732 -2.6028  0.0989 -1.5255
 5428TIP3   OH237774   3.027   2.147   0.882 -0.1235 -0.3497  0.3070
 5428TIP3    H137775   3.097   2.204   0.915 -0.7860  0.5732  0.1459
 5428TIP3    H237776   2.953   2.162   0.941 -0.5466 -0.4718 -0.1827
 5429TIP3   OH237777   0.376   6.551  14.499 -0.3421  0.0003 -0.1972
 5429TIP3    H137778   0.362   6.614  14.570  0.1638  0.5577 -0.5886
 5429TIP3    H237779   0.470   6.534  14.499 -0.6929 -2.1070  1.0370
 5430TIP3   OH237780   6.765   5.886   1.358  0.0422  0.2680  0.0779
 5430TIP3    H137781   6.741   5.852   1.272 -0.4260 -0.6084  0.5419
 5430TIP3    H237782   6.861   5.887   1.357  0.1721 -3.2450  0.8175
 5431TIP3   OH237783   5.224   1.462  13.040 -0.1506 -0.2243 -0.1890
 5431TIP3    H137784   5.298   1.458  13.102  1.1687  1.5322 -1.6243
 5431TIP3    H237785   5.169   1.532  13.074 -0.4979 -0.6447  0.1310
 5432TIP3   OH237786   2.361   2.544  13.470  0.0608 -0.0004 -0.0006
 5432TIP3    H137787   2.434   2.565  13.527 -1.1648 -0.8184  1.9440
 5432TIP3    H237788   2.337   2.627  13.428  0.1838  0.8732  1.6430
 5433TIP3   OH237789   5.922   1.269   1.316 -0.0711 -0.3552 -0.3338
 5433TIP3    H137790   5.984   1.342   1.319 -0.2471 -0.2292  0.3183
 5433TIP3    H237791   5.964   1.205   1.259  0.0937  0.2451 -0.9028
 5434TIP3   OH237792   4.348   2.690   0.564  0.3683  0.2802 -0.3243
 5434TIP3    H137793   4.390   2.774   0.546 -0.0068  0.4778 -0.2635
 5434TIP3    H237794   4.419   2.626   0.553  0.4530  0.5167 -1.2342
 5435TIP3   OH237795   0.652   6.645   1.264 -0.2103  0.2720 -0.8108
 5435TIP3    H137796   0.709   6.717   1.293 -1.0785 -0.1336  2.0484
 5435TIP3    H237797   0.652   6.583   1.337 -2.5162 -0.8121 -1.6737
 5436TIP3   OH237798   1.241   4.372  14.194 -0.4005 -0.0934  0.2487
 5436TIP3    H137799   1.243   4.396  14.101 -0.8071 -0.3934  0.1564
 5436TIP3    H237800   1.323   4.325  14.209  0.4033  1.3642  0.4372
 5437TIP3   OH237801   5.747   1.082   0.899  0.3301 -0.3396  0.6808
 5437TIP3    H137802   5.836   1.076   0.865  1.0379  0.9136  2.2716
 5437TIP3    H237803   5.697   1.020   0.845  1.7681  0.2678 -1.4287
 5438TIP3   OH237804   0.423   5.355  16.090  0.2933 -0.6586  0.2425
 5438TIP3    H137805   0.508   5.313  16.100  1.4470  1.4323 -0.5169
 5438TIP3    H237806   0.436   5.445  16.119 -1.2361  0.1207 -1.3538
 5439TIP3   OH237807   5.190   3.057  14.425  0.2603 -0.4965  0.2943
 5439TIP3    H137808   5.280   3.025  14.419 -0.0544 -1.3526 -0.0867
 5439TIP3    H237809   5.170   3.057  14.518 -0.1981 -2.8284  0.2487
 5440TIP3   OH237810   3.274   5.654  12.873  0.8664  0.2846  0.2172
 5440TIP3    H137811   3.297   5.585  12.935  0.4592 -0.7428 -0.7459
 5440TIP3    H237812   3.184   5.678  12.895  0.8266  0.1275  0.2275
 5441TIP3   OH237813   3.148   5.263  16.665  0.0077  0.7222 -0.2050
 5441TIP3    H137814   3.101   5.304  16.737 -0.2351 -1.3774  0.8512
 5441TIP3    H237815   3.203   5.333  16.630 -0.4604  1.9740  1.5001
 5442TIP3   OH237816   0.634   1.655   5.022 -0.1156 -0.2637  0.4006
 5442TIP3    H137817   0.649   1.600   5.099  1.2975 -1.6517 -0.8349
 5442TIP3    H237818   0.562   1.612   4.976  0.2000 -0.4214  0.0516
 5443TIP3   OH237819   2.124   5.482  16.069 -0.4831  0.5273 -0.8265
 5443TIP3    H137820   2.158   5.551  16.126 -0.6068  0.6322 -0.8798
 5443TIP3    H237821   2.030   5.499  16.064 -0.8506 -0.8255  0.7884
 5444TIP3   OH237822   1.198   6.044   4.995 -0.1347 -0.1803  0.2679
 5444TIP3    H137823   1.121   6.096   4.971 -1.2183 -0.9203  2.0638
 5444TIP3    H237824   1.252   6.045   4.917 -0.7686  2.5171 -0.2157
 5445TIP3   OH237825   1.518   3.813  15.710  0.3100  0.8396 -0.0102
 5445TIP3    H137826   1.596   3.760  15.729 -0.2553  0.1198  0.3587
 5445TIP3    H237827   1.541   3.863  15.632  1.2415  0.8453  0.2535
 5446TIP3   OH237828   6.047   5.163  13.986  0.6549 -0.0998  0.1554
 5446TIP3    H137829   6.011   5.108  14.055 -0.8826  0.6220 -0.0529
 5446TIP3    H237830   6.119   5.210  14.027  0.1231 -0.1196  1.1161
 5447TIP3   OH237831   1.077   4.101  16.596 -0.2205  0.1886 -0.1095
 5447TIP3    H137832   1.009   4.100  16.663 -0.9017  1.5496 -0.7610
 5447TIP3    H237833   1.049   4.168  16.534  1.6463  0.6752 -0.4676
 5448TIP3   OH237834   2.533   0.913  14.195  0.4016 -0.1990 -0.2212
 5448TIP3    H137835   2.490   0.876  14.118 -1.2065  1.0481  0.0280
 5448TIP3    H237836   2.472   0.981  14.225  1.0625 -0.5818  2.0571
 5449TIP3   OH237837   4.288   5.673   2.968 -0.5733  0.4397  0.1903
 5449TIP3    H137838   4.370   5.628   2.946 -0.3271  1.3630 -0.8390
 5449TIP3    H237839   4.311   5.730   3.041 -0.0011  1.5428 -0.8277
 5450TIP3   OH237840   2.689   1.731   5.978  0.2496 -0.2852 -0.2498
 5450TIP3    H137841   2.617   1.790   6.000  0.8160  0.1521  0.4522
 5450TIP3    H237842   2.766   1.770   6.020  0.5863 -1.6425  0.4347
 5451TIP3   OH237843   6.147   3.373  12.022 -0.1670  0.2369  0.2794
 5451TIP3    H137844   6.079   3.343  11.962  0.3801  0.9456 -0.7121
 5451TIP3    H237845   6.142   3.469  12.017  1.3554  0.2963 -0.3252
 5452TIP3   OH237846   2.310   5.032   0.365 -0.1698  0.0378 -0.4938
 5452TIP3    H137847   2.267   4.988   0.438  0.2493 -0.1091 -0.3357
 5452TIP3    H237848   2.350   4.961   0.315 -0.3531  0.1477 -0.8003
 5453TIP3   OH237849   1.527   2.960   5.998 -0.3015  0.1476 -0.4178
 5453TIP3    H137850   1.558   2.922   5.916 -2.1949 -2.0516 -0.1547
 5453TIP3    H237851   1.600   2.949   6.059  0.5737  0.4753 -1.3857
 5454TIP3   OH237852   2.497   1.239   2.987  0.6739 -0.4329 -0.0540
 5454TIP3    H137853   2.534   1.310   3.039 -4.0102  1.4907  0.8931
 5454TIP3    H237854   2.518   1.263   2.896  3.2819 -0.4174  0.5185
 5455TIP3   OH237855   6.605   0.934  15.377  0.1073  0.0767 -0.1267
 5455TIP3    H137856   6.606   1.005  15.313  0.4337  0.4992  0.3512
 5455TIP3    H237857   6.638   0.973  15.458 -0.0845 -0.5169  0.2428
 5456TIP3   OH237858   6.754   4.817   1.892  0.2996  0.1756  0.1651
 5456TIP3    H137859   6.797   4.901   1.910 -0.9150  1.1087 -1.2742
 5456TIP3    H237860   6.674   4.820   1.944 -0.4691  0.5291 -1.0422
 5457TIP3   OH237861   1.840   1.314  16.580  0.0935  0.7653 -0.1400
 5457TIP3    H137862   1.900   1.373  16.625 -0.8698  2.4383 -1.0100
 5457TIP3    H237863   1.757   1.324  16.626  0.0182 -0.2252 -0.0458
 5458TIP3   OH237864   0.900   6.037  16.694  0.0434  0.4414  0.0052
 5458TIP3    H137865   0.834   6.055  16.628  2.2950  0.1449 -2.4036
 5458TIP3    H237866   0.920   5.944  16.684 -0.3817  0.1315  1.8662
 5459TIP3   OH237867   4.615   5.670  10.871 -0.1703  0.0774  0.4029
 5459TIP3    H137868   4.643   5.661  10.780 -0.7111  0.3142  0.2055
 5459TIP3    H237869   4.550   5.600  10.882 -2.0131  1.6185 -0.1763
 5460TIP3   OH237870   5.897   3.578   2.465 -0.3223 -0.0100  0.4105
 5460TIP3    H137871   5.896   3.616   2.553 -1.8591  1.0640 -0.0364
 5460TIP3    H237872   5.964   3.628   2.418 -0.0117 -0.0963  0.7578
 5461TIP3   OH237873   6.152   6.550  16.751  0.4368 -0.2288 -0.3649
 5461TIP3    H137874   6.122   6.599  16.828 -0.2656  0.6533 -1.1838
 5461TIP3    H237875   6.124   6.604  16.677  2.1846 -0.4587 -1.2093
 5462TIP3   OH237876   0.119   5.985  12.496  0.5604 -0.3909 -0.5768
 5462TIP3    H137877   0.076   5.901  12.510 -0.7234  0.3140 -0.2105
 5462TIP3    H237878   0.211   5.963  12.482  0.3183 -1.8116  0.0205
 5463TIP3   OH237879   5.121   4.862   0.513 -0.4442 -0.4299 -0.1675
 5463TIP3    H137880   5.207   4.824   0.530  0.8284  1.9037 -1.2226
 5463TIP3    H237881   5.059   4.791   0.533  1.6674 -1.9443  1.1714
 5464TIP3   OH237882   3.278   4.500  13.025 -0.3052  0.0591 -0.0638
 5464TIP3    H137883   3.209   4.492  13.091  0.5788 -1.9528  0.6518
 5464TIP3    H237884   3.276   4.416  12.978  1.4173  0.1043 -0.2531
 5465TIP3   OH237885   4.859   1.427  14.954  0.4469  0.9339  0.1318
 5465TIP3    H137886   4.920   1.373  14.904  1.4635  2.2103 -0.0189
 5465TIP3    H237887   4.826   1.368  15.023  2.0668  0.3203  0.4015
 5466TIP3   OH237888   3.764   0.960  12.151  0.0035 -0.2063  0.4650
 5466TIP3    H137889   3.832   1.006  12.101 -0.0430  1.4518  1.8802
 5466TIP3    H237890   3.802   0.947  12.238 -0.7150 -1.1686  0.6486
 5467TIP3   OH237891   3.207   5.517   1.039 -0.5712 -0.1465 -0.0041
 5467TIP3    H137892   3.260   5.583   1.083 -1.0038 -0.7117  1.4131
 5467TIP3    H237893   3.205   5.544   0.948  0.2182  1.1533  0.3518
 5468TIP3   OH237894   2.118   1.793   5.057 -0.0306  0.1531  0.4702
 5468TIP3    H137895   2.199   1.822   5.100 -0.8355  1.0480  1.3870
 5468TIP3    H237896   2.056   1.863   5.072 -0.6907 -0.0598 -1.1512
 5469TIP3   OH237897   1.740   1.723  16.195  0.4550 -0.5826  0.3502
 5469TIP3    H137898   1.730   1.632  16.167 -0.3463 -0.9251  1.7318
 5469TIP3    H237899   1.671   1.770  16.149  2.2966 -0.2387 -2.1747
 5470TIP3   OH237900   3.624   5.759   1.037  0.0090  0.0657  0.7727
 5470TIP3    H137901   3.531   5.780   1.045 -0.0773  0.4999 -1.1868
 5470TIP3    H237902   3.657   5.820   0.971  1.2120 -1.5320 -0.1296
 5471TIP3   OH237903   0.179   3.748   1.549  0.0626  0.5057 -0.4119
 5471TIP3    H137904   0.153   3.677   1.489 -0.4985  1.0558 -0.8247
 5471TIP3    H237905   0.103   3.806   1.551 -0.2293  0.0729  1.4781
 5472TIP3   OH237906   6.797   5.748  14.279  0.2068 -0.2305 -0.1756
 5472TIP3    H137907   6.756   5.669  14.315  0.9521 -1.1262 -1.2794
 5472TIP3    H237908   6.731   5.784  14.220  0.5229 -0.9938 -1.0044
 5473TIP3   OH237909   3.297   4.380  12.316  0.2022  0.3806 -0.4128
 5473TIP3    H137910   3.380   4.334  12.323 -1.2753 -2.2211  0.6539
 5473TIP3    H237911   3.287   4.425  12.400 -0.4890 -1.1432  0.3396
 5474TIP3   OH237912   6.651   5.114  15.696  0.5566 -0.2245 -0.2018
 5474TIP3    H137913   6.567   5.133  15.654  0.8846  0.1787 -0.6859
 5474TIP3    H237914   6.711   5.098  15.624  0.8318 -0.7946  0.1519
 5475TIP3   OH237915   6.642   1.170  13.265  0.3118  0.1039  0.1679
 5475TIP3    H137916   6.685   1.256  13.267 -0.7297  0.6347 -0.0520
 5475TIP3    H237917   6.598   1.164  13.349 -1.8207  0.9378 -0.8473
 5476TIP3   OH237918   0.738   3.554  14.657 -0.3495  0.5371  0.3796
 5476TIP3    H137919   0.820   3.599  14.637 -0.7209  1.6516  1.2621
 5476TIP3    H237920   0.683   3.569  14.580 -0.0706  0.6367  0.1991
 5477TIP3   OH237921   0.315   0.446  12.324 -0.6228 -0.2025 -0.5264
 5477TIP3    H137922   0.299   0.357  12.292 -0.5146 -0.4553  0.1175
 5477TIP3    H237923   0.334   0.435  12.417 -0.5138  0.4869 -0.4648
 5478TIP3   OH237924   2.312   4.209  16.027  0.1758  0.5522 -0.1182
 5478TIP3    H137925   2.279   4.125  16.059  0.5229  0.5400  0.2164
 5478TIP3    H237926   2.269   4.221  15.942  0.3515 -0.0991 -0.3001
 5479TIP3   OH237927   1.325   3.955   2.676  0.1538 -0.3936 -0.0899
 5479TIP3    H137928   1.369   4.034   2.646 -1.1312  0.0618 -0.8189
 5479TIP3    H237929   1.339   3.954   2.771 -0.2955  1.0002 -0.0049
 5480TIP3   OH237930   0.697   5.292  16.063 -0.0493  0.3877 -0.0604
 5480TIP3    H137931   0.789   5.284  16.038  0.2737 -1.9006  1.7552
 5480TIP3    H237932   0.663   5.203  16.061 -1.7680  0.9935  1.0011
 5481TIP3   OH237933   6.080   5.787  12.654  0.9980  0.5341 -0.0087
 5481TIP3    H137934   6.018   5.831  12.596  0.5788  0.1619  0.1528
 5481TIP3    H237935   6.128   5.858  12.696 -0.7839  0.8924  1.4643
 5482TIP3   OH237936   0.391   5.041   4.139 -0.3382 -0.5616  0.5532
 5482TIP3    H137937   0.335   5.065   4.213  1.4708  2.2172  1.0899
 5482TIP3    H237938   0.348   5.078   4.063 -2.0179 -3.1242  0.1796
 5483TIP3   OH237939   2.730   3.632   5.029  0.1401 -0.1424 -0.2662
 5483TIP3    H137940   2.664   3.696   5.058 -1.3342 -2.6760  2.3819
 5483TIP3    H237941   2.762   3.593   5.111  0.9527 -2.7814 -1.7853
 5484TIP3   OH237942   4.904   0.465  13.905 -0.6581 -1.0454  0.1336
 5484TIP3    H137943   4.832   0.513  13.947 -0.8545  0.9288 -2.3090
 5484TIP3    H237944   4.971   0.457  13.973 -1.1994  1.5159  1.0243
 5485TIP3   OH237945   3.059   3.630   2.449  0.1919  0.1265  0.0071
 5485TIP3    H137946   3.056   3.679   2.531  1.6966 -2.2389  1.5358
 5485TIP3    H237947   2.973   3.586   2.445  0.0223  0.4373  0.2124
 5486TIP3   OH237948   3.102   0.849  16.722  0.1692  0.1559  0.0703
 5486TIP3    H137949   3.042   0.894  16.781 -0.9627 -1.3826  0.1359
 5486TIP3    H237950   3.061   0.858  16.635  0.2088 -0.2671  0.0034
 5487TIP3   OH237951   1.291   0.358  16.675  0.2017 -0.1708  0.1617
 5487TIP3    H137952   1.238   0.364  16.595  3.2205 -0.4604 -1.9852
 5487TIP3    H237953   1.273   0.270  16.709 -0.0015 -0.5995 -1.0312
 5488TIP3   OH237954   3.258   5.628   0.245 -0.1660 -0.0056 -0.2505
 5488TIP3    H137955   3.176   5.640   0.196 -1.3473 -2.8417  0.9310
 5488TIP3    H237956   3.313   5.576   0.187 -0.2832 -0.5192  0.1009
 5489TIP3   OH237957   4.798   0.509   5.002 -0.1863  0.1212  0.1426
 5489TIP3    H137958   4.830   0.472   5.084 -2.4117  0.6611  1.2894
 5489TIP3    H237959   4.781   0.601   5.022 -0.6945  0.2744 -0.9506
 5490TIP3   OH237960   5.678   1.495   3.681  0.1452 -0.4681  0.1909
 5490TIP3    H137961   5.601   1.492   3.625  0.5019  1.0670 -0.4211
 5490TIP3    H237962   5.720   1.410   3.670 -0.8300 -0.8879 -0.3586
 5491TIP3   OH237963   0.027   1.829   0.397  0.5286 -0.6864  0.1896
 5491TIP3    H137964  -0.047   1.869   0.353 -0.5566 -3.8308 -0.9642
 5491TIP3    H237965   0.104   1.870   0.356 -0.5182  0.5468 -0.5909
 5492TIP3   OH237966   5.001   5.266   0.468 -0.3607 -0.2821  0.3040
 5492TIP3    H137967   5.038   5.312   0.393 -0.7610  1.6729  1.2793
 5492TIP3    H237968   4.936   5.207   0.430  1.5254 -1.4990 -1.1408
 5493TIP3   OH237969   1.384   1.407   2.253 -0.6574 -0.3750  0.2209
 5493TIP3    H137970   1.410   1.425   2.163  0.0424 -0.7921  0.3411
 5493TIP3    H237971   1.443   1.460   2.307  0.9750 -2.4720  0.5539
 5494TIP3   OH237972   5.949   0.361   0.660  0.0125 -0.3055 -0.3813
 5494TIP3    H137973   5.987   0.274   0.651 -1.4015 -1.0404  0.5510
 5494TIP3    H237974   5.905   0.359   0.745 -0.5424  1.1205 -0.6260
 5495TIP3   OH237975   0.455   2.538  12.706 -0.0570  0.2308 -0.1091
 5495TIP3    H137976   0.437   2.504  12.794  0.4422  1.0795  0.3226
 5495TIP3    H237977   0.550   2.536  12.698  0.0451  2.4733  0.3022
 5496TIP3   OH237978   1.111   6.250   6.570  0.3473  0.2203  0.6952
 5496TIP3    H137979   1.151   6.202   6.497  0.0246 -0.1960  0.7933
 5496TIP3    H237980   1.151   6.213   6.648 -0.2145 -0.1879  0.7921
 5497TIP3   OH237981   2.277   2.548  14.470 -0.0800 -0.1160 -0.1322
 5497TIP3    H137982   2.261   2.642  14.482  0.2006 -0.3056  1.8401
 5497TIP3    H237983   2.215   2.522  14.402  1.5544  1.9995 -2.5472
 5498TIP3   OH237984   6.445   3.929   4.309 -0.4278 -0.8456  0.6941
 5498TIP3    H137985   6.416   3.855   4.361  1.9560 -1.5686  1.0678
 5498TIP3    H237986   6.509   3.892   4.248  0.0118  0.7201  0.1749
 5499TIP3   OH237987   3.874   4.937  11.913  0.2604  0.2667  0.4047
 5499TIP3    H137988   3.867   4.926  12.008  1.4172  3.2815  0.9035
 5499TIP3    H237989   3.783   4.943  11.883 -0.1147 -0.5752  1.3403
 5500TIP3   OH237990   4.273   4.747  15.376 -0.6712 -0.2799  0.2951
 5500TIP3    H137991   4.279   4.839  15.399 -0.0438  0.1842 -1.6487
 5500TIP3    H237992   4.348   4.706  15.419  0.1129  0.4538 -0.3702
 5501TIP3   OH237993   3.146   0.640   5.569  0.2746 -0.3984 -0.1457
 5501TIP3    H137994   3.094   0.652   5.648 -1.2045 -0.4723 -1.0862
 5501TIP3    H237995   3.211   0.711   5.571 -0.5523  0.3460  0.5051
 5502TIP3   OH237996   1.547   2.686  14.570 -0.2877  0.4031  0.4211
 5502TIP3    H137997   1.493   2.751  14.526  1.3325  1.1658 -0.4724
 5502TIP3    H237998   1.596   2.735  14.636  0.8798  0.0781 -0.1967
 5503TIP3   OH237999   6.468   3.488   5.567 -0.5358  0.3294 -0.0341
 5503TIP3    H138000   6.502   3.514   5.652  0.7526 -0.7195 -0.2247
 5503TIP3    H238001   6.434   3.400   5.580 -0.7847  0.3538 -0.4928
 5504TIP3   OH238002   1.337   4.630   1.250  0.2917 -0.2440 -0.0021
 5504TIP3    H138003   1.409   4.592   1.300  0.9057  1.3647  0.3428
 5504TIP3    H238004   1.310   4.706   1.301 -0.9520 -0.2199 -0.6799
 5505TIP3   OH238005   3.784   4.405   3.417  0.2684 -0.2119  0.1000
 5505TIP3    H138006   3.872   4.403   3.379 -0.1802 -0.0516 -0.9827
 5505TIP3    H238007   3.764   4.499   3.425 -0.5650 -0.2239 -1.5200
 5506TIP3   OH238008   4.464   1.211   1.290 -0.5199  0.0174 -0.4579
 5506TIP3    H138009   4.422   1.297   1.284  0.9645  0.8074  0.1246
 5506TIP3    H238010   4.409   1.162   1.352 -0.0642  1.3648  1.0641
 5507TIP3   OH238011   3.689   0.674   3.484  0.0134 -0.3055 -0.1781
 5507TIP3    H138012   3.733   0.608   3.429  2.4622  0.4797  0.7416
 5507TIP3    H238013   3.721   0.655   3.573 -1.0721  0.6817  0.4265
 5508TIP3   OH238014   3.220   1.066   1.762  0.1020 -0.2393 -0.0081
 5508TIP3    H138015   3.159   1.132   1.727  0.8797 -0.3576 -1.6341
 5508TIP3    H238016   3.163   1.003   1.806 -0.9433 -0.1658 -1.2101
 5509TIP3   OH238017   1.924   1.275   3.795  0.7128 -0.9484  0.5606
 5509TIP3    H138018   1.920   1.195   3.847 -0.4574 -1.0174  0.3611
 5509TIP3    H238019   1.871   1.256   3.718 -0.3011  0.3329  0.9350
 5510TIP3   OH238020   2.263   1.090  12.393  0.0909  0.0092 -0.6533
 5510TIP3    H138021   2.349   1.129  12.384 -0.3051  0.7609 -1.2774
 5510TIP3    H238022   2.212   1.154  12.443 -0.1405 -0.3700 -0.3987
 5511TIP3   OH238023   4.600   2.198   1.393  0.4167 -0.1731 -0.1080
 5511TIP3    H138024   4.599   2.106   1.365 -1.3814 -0.3129  0.3140
 5511TIP3    H238025   4.664   2.240   1.336 -0.3864 -1.2491 -1.8472
 5512TIP3   OH238026   4.590   6.167   5.345 -0.2875  0.1233  0.4008
 5512TIP3    H138027   4.549   6.219   5.276 -2.2851 -1.6305  0.2382
 5512TIP3    H238028   4.523   6.156   5.411  0.5967 -0.9977  1.1289
 5513TIP3   OH238029   2.918   4.311   5.601  0.5061  0.2440  0.1068
 5513TIP3    H138030   2.854   4.371   5.562  2.7341  2.1445 -0.7709
 5513TIP3    H238031   2.902   4.317   5.695  0.5448  2.1056  0.0199
 5514TIP3   OH238032   1.828   3.018  13.762  0.1896  0.3012  0.4866
 5514TIP3    H138033   1.899   3.069  13.801 -1.2213  1.9963  0.8892
 5514TIP3    H238034   1.781   3.080  13.706  0.2856 -1.3229 -1.4770
 5515TIP3   OH238035   5.315   1.043   3.803  0.5352  0.9815 -0.0079
 5515TIP3    H138036   5.361   1.089   3.874  2.6210 -0.5472 -0.3401
 5515TIP3    H238037   5.382   0.991   3.760 -0.6542  1.9996 -3.2696
 5516TIP3   OH238038   6.351   5.295  14.487  0.6989  1.0285  0.0232
 5516TIP3    H138039   6.364   5.384  14.457 -0.9204  1.3964  0.3352
 5516TIP3    H238040   6.322   5.247  14.409 -1.0697  1.4106  0.4278
 5517TIP3   OH238041   4.377   5.298  14.338 -0.1339  0.3430 -0.1419
 5517TIP3    H138042   4.463   5.256  14.329 -0.4517 -0.5764  1.0444
 5517TIP3    H238043   4.364   5.307  14.432  0.5416  4.4190 -0.3152
 5518TIP3   OH238044   3.873   6.242   4.464  0.6989  0.0731 -0.3091
 5518TIP3    H138045   3.850   6.325   4.506  0.6871 -0.6757  1.1943
 5518TIP3    H238046   3.954   6.261   4.417  1.1679  0.7269  0.7360
 5519TIP3   OH238047   5.833   2.142   6.050  0.4108  0.3703 -0.4616
 5519TIP3    H138048   5.907   2.160   6.108  0.3319 -0.1430 -0.2019
 5519TIP3    H238049   5.809   2.052   6.069 -1.3218  1.0444  0.5872
 5520TIP3   OH238050   4.845   2.114  12.606  0.5426  0.0983 -0.3810
 5520TIP3    H138051   4.806   2.168  12.674  0.4916  1.5309 -1.5247
 5520TIP3    H238052   4.775   2.102  12.542  0.2843 -2.0752  0.2516
 5521TIP3   OH238053   5.898   1.726   0.067 -0.1085  0.1411 -0.5799
 5521TIP3    H138054   5.918   1.801   0.011 -0.8061  0.0410 -0.9740
 5521TIP3    H238055   5.934   1.651   0.020  3.9918  0.5838  1.5925
 5522TIP3   OH238056   0.042   6.814  13.553  0.5222  0.2770  0.2343
 5522TIP3    H138057   0.059   6.886  13.491  0.0618  1.5534  1.5747
 5522TIP3    H238058   0.027   6.738  13.497 -0.6298  1.5712 -1.2705
 5523TIP3   OH238059   0.682   1.279  11.921  0.6414  0.3289 -0.3099
 5523TIP3    H138060   0.701   1.279  12.015 -1.9023  2.6730  0.2607
 5523TIP3    H238061   0.645   1.193  11.904  1.1252 -0.1190  0.8243
 5524TIP3   OH238062   6.036   0.798   4.760 -0.5248 -0.1333 -0.1606
 5524TIP3    H138063   6.023   0.861   4.689  0.2454  0.9949  0.6850
 5524TIP3    H238064   6.065   0.718   4.717 -2.9250 -0.3779 -1.3916
 5525TIP3   OH238065   2.009   3.565   4.095  0.5485 -0.0280 -0.4331
 5525TIP3    H138066   1.975   3.477   4.115  1.0733 -0.0612  0.3048
 5525TIP3    H238067   2.080   3.549   4.033  0.5226 -0.1080 -0.4431
 5526TIP3   OH238068   3.956   6.130   1.974  0.1143  0.3703  0.8798
 5526TIP3    H138069   3.971   6.049   1.926  1.6716 -0.6452  2.9889
 5526TIP3    H238070   3.913   6.103   2.055 -0.6274  1.8162  0.9846
 5527TIP3   OH238071   1.197   2.857   1.875  0.2711 -0.5029 -0.6012
 5527TIP3    H138072   1.273   2.801   1.859  0.6565  0.3761 -2.0171
 5527TIP3    H238073   1.159   2.824   1.956  0.9826 -2.2434 -0.9522
 5528TIP3   OH238074   0.351   3.117  11.994 -0.5635 -0.2889 -0.5189
 5528TIP3    H138075   0.377   3.061  11.921 -1.6886  0.5780 -1.6205
 5528TIP3    H238076   0.271   3.161  11.963  0.6156  2.3805  0.0574
 5529TIP3   OH238077   0.436   6.819  15.242 -0.1597 -0.2348 -0.2734
 5529TIP3    H138078   0.516   6.871  15.230  1.0267 -1.8898  0.1712
 5529TIP3    H238079   0.394   6.856  15.319  0.7361  0.0054  0.1062
 5530TIP3   OH238080   5.743   5.090   0.414 -0.0764  0.2113 -0.3715
 5530TIP3    H138081   5.766   5.029   0.483  0.1476  0.1197 -0.5235
 5530TIP3    H238082   5.669   5.049   0.369 -0.2976  0.3280 -0.1117
 5531TIP3   OH238083   4.051   5.419  13.759 -0.3343 -0.4228 -0.1710
 5531TIP3    H138084   3.969   5.467  13.767  0.0873  0.7582 -2.4274
 5531TIP3    H238085   4.118   5.487  13.759  0.7218 -1.4060  2.1616
 5532TIP3   OH238086   0.544   0.539  12.919  0.3351 -0.6102 -0.1219
 5532TIP3    H138087   0.459   0.582  12.930  0.7244  0.5847 -1.7058
 5532TIP3    H238088   0.608   0.605  12.942  0.8417 -2.1281  3.0694
 5533TIP3   OH238089   3.160   0.281  13.413 -0.2928  0.6389  0.2344
 5533TIP3    H138090   3.160   0.201  13.360 -3.1836  0.5504  0.2869
 5533TIP3    H238091   3.124   0.254  13.497  0.6379  1.5977  0.9581
 5534TIP3   OH238092   6.364   0.399   5.585  0.0955  0.0713 -0.0514
 5534TIP3    H138093   6.344   0.417   5.677 -0.5347  2.1534 -0.5525
 5534TIP3    H238094   6.324   0.314   5.568 -1.2777  0.4393  1.1744
 5535TIP3   OH238095   4.922   1.319   0.704  0.2329  0.2282  0.4617
 5535TIP3    H138096   4.922   1.413   0.690  1.4618  0.5351  2.4487
 5535TIP3    H238097   4.996   1.303   0.763 -0.4186 -1.8861  0.7424
 5536TIP3   OH238098   6.588   3.249  13.810 -0.0436  0.2384 -0.6456
 5536TIP3    H138099   6.519   3.206  13.758  1.8233 -0.5414 -2.5591
 5536TIP3    H238100   6.587   3.340  13.781 -0.1452  0.1830 -0.8181
 5537TIP3   OH238101   2.222   0.167   1.502 -0.2891  0.6397  0.6268
 5537TIP3    H138102   2.302   0.141   1.458 -0.7797 -0.7269  0.5243
 5537TIP3    H238103   2.162   0.190   1.431 -1.1756 -1.8424  0.5389
 5538TIP3   OH238104   2.977   4.874  13.317 -0.3222  0.4992  0.2727
 5538TIP3    H138105   2.923   4.911  13.387  0.2952 -1.7485  1.9946
 5538TIP3    H238106   3.062   4.859  13.358 -0.4711 -2.5208 -0.3939
 5539TIP3   OH238107   1.747   5.597  12.812 -0.0424  0.0985 -0.7495
 5539TIP3    H138108   1.680   5.555  12.866  0.5002 -1.3837 -1.2041
 5539TIP3    H238109   1.709   5.599  12.724  0.2516 -0.1606 -0.8830
 5540TIP3   OH238110   1.358   3.683   4.979 -0.1321 -0.0998 -0.5065
 5540TIP3    H138111   1.267   3.671   4.951 -0.1559  0.8735 -0.8474
 5540TIP3    H238112   1.354   3.750   5.046 -0.0688 -2.4074  1.8901
 5541TIP3   OH238113   6.353   5.536  11.962  0.0307 -0.1989 -0.3596
 5541TIP3    H138114   6.372   5.462  12.020 -2.8586 -0.4236  0.3997
 5541TIP3    H238115   6.341   5.496  11.876 -0.2953 -0.4933 -0.1836
 5542TIP3   OH238116   5.948   5.540   0.912 -0.3207 -0.3764  0.1219
 5542TIP3    H138117   5.885   5.587   0.966  1.3337  0.2272  1.5740
 5542TIP3    H238118   5.896   5.474   0.867 -2.3010  1.3855 -0.2329
 5543TIP3   OH238119   3.317   3.688   3.507  0.1539  0.0169  0.0162
 5543TIP3    H138120   3.342   3.646   3.425  1.4104  0.7318  0.0190
 5543TIP3    H238121   3.221   3.692   3.504  0.0560 -2.2948 -0.2282
 5544TIP3   OH238122   1.708   0.257  16.005  0.3603  0.0811 -0.2310
 5544TIP3    H138123   1.789   0.294  15.970 -0.0348  1.0924 -0.0921
 5544TIP3    H238124   1.638   0.308  15.964 -0.2869 -1.8946 -1.6500
 5545TIP3   OH238125   1.627   6.135   4.417 -0.1944 -0.0565  0.5827
 5545TIP3    H138126   1.692   6.117   4.350 -0.5239  1.8875 -0.3104
 5545TIP3    H238127   1.554   6.175   4.370 -1.0025  0.0768  1.9071
 5546TIP3   OH238128   2.381   5.582  12.811  0.1719  0.0224 -0.9068
 5546TIP3    H138129   2.358   5.638  12.736 -0.6482  1.0208  0.0735
 5546TIP3    H238130   2.473   5.602  12.829 -0.2714  1.4916 -0.2088
 5547TIP3   OH238131   3.029   3.011  14.642 -0.7724  0.4836 -0.0310
 5547TIP3    H138132   2.942   3.045  14.664 -2.1827 -2.0471 -1.4175
 5547TIP3    H238133   3.045   3.042  14.553  0.1089  1.6413  0.5336
 5548TIP3   OH238134   4.722   2.856   1.100  0.0573 -0.5010 -0.3259
 5548TIP3    H138135   4.654   2.804   1.144 -2.1974  3.2521  0.8648
 5548TIP3    H238136   4.749   2.919   1.166  1.4587  0.9548 -2.2663
 5549TIP3   OH238137   1.811   3.304   5.502  0.3337  0.5622 -0.0367
 5549TIP3    H138138   1.858   3.388   5.498  1.3681 -0.0396 -0.7114
 5549TIP3    H238139   1.816   3.270   5.412  1.2638 -0.9366  0.5665
 5550TIP3   OH238140   1.273   1.777   4.246  0.0575 -0.0867 -0.1909
 5550TIP3    H138141   1.213   1.849   4.265  0.6313 -0.0879  1.7940
 5550TIP3    H238142   1.245   1.706   4.304  1.5803 -0.3012  0.3137
 5551TIP3   OH238143   5.959   1.111   5.458  0.0082  0.0517  0.2252
 5551TIP3    H138144   6.054   1.100   5.464  0.0190  0.3502  0.6288
 5551TIP3    H238145   5.941   1.117   5.365  0.7513  3.2762  0.2421
 5552TIP3   OH238146   2.402   0.530   1.440 -0.1373  0.3136  0.1448
 5552TIP3    H138147   2.453   0.490   1.369  0.4542  0.4134  0.5083
 5552TIP3    H238148   2.311   0.512   1.417  0.0748 -0.2149 -0.3082
 5553TIP3   OH238149   0.581   6.067  14.982  0.2972  0.0944 -0.2185
 5553TIP3    H138150   0.612   5.986  15.021  0.1050 -1.3086 -2.8951
 5553TIP3    H238151   0.596   6.057  14.888 -0.3141  2.8973 -0.6821
 5554TIP3   OH238152   5.374   6.400  14.519 -0.1737  0.1216  0.0561
 5554TIP3    H138153   5.305   6.355  14.470 -0.4844  1.3939 -0.6790
 5554TIP3    H238154   5.450   6.342  14.513 -0.4507 -0.1039 -1.2501
 5555TIP3   OH238155   3.037   0.352   2.065 -0.2003 -0.5167  0.1401
 5555TIP3    H138156   3.049   0.326   2.156 -1.0641  1.7521  0.9118
 5555TIP3    H238157   2.944   0.373   2.057  0.3748  1.9171 -0.5500
 5556TIP3   OH238158   1.908   1.931  17.205  0.0497  0.1834  0.3068
 5556TIP3    H138159   1.833   1.909  17.149 -0.3667 -0.4234  1.0866
 5556TIP3    H238160   1.908   2.026  17.208 -0.9244  0.1824  0.6021
 5557TIP3   OH238161   2.758   3.813   0.406  0.0051  0.3070  0.6763
 5557TIP3    H138162   2.695   3.878   0.436 -0.7148 -0.6009  1.1506
 5557TIP3    H238163   2.717   3.773   0.330  0.2856  0.1377  0.6134
 5558TIP3   OH238164   4.593   5.530   3.758  0.1329 -0.3501  0.8722
 5558TIP3    H138165   4.569   5.495   3.844 -0.4552 -1.3322  0.3209
 5558TIP3    H238166   4.662   5.471   3.727  2.3334  1.6356  1.8465
 5559TIP3   OH238167   1.034   4.416  14.383  0.0996 -0.4250 -0.4458
 5559TIP3    H138168   1.112   4.395  14.331 -0.6008  0.9645 -2.1112
 5559TIP3    H238169   1.008   4.333  14.422  1.6356 -1.1660 -0.9555
 5560TIP3   OH238170   5.838   6.595   1.318  0.3407 -0.4411  0.4941
 5560TIP3    H138171   5.926   6.559   1.327  0.8994  0.4149 -1.3016
 5560TIP3    H238172   5.819   6.588   1.224 -2.7570 -3.5465  1.2433
 5561TIP3   OH238173   5.736   3.354  10.645 -0.0678 -0.0913  0.5612
 5561TIP3    H138174   5.829   3.336  10.652  0.1529  1.6645  2.6340
 5561TIP3    H238175   5.694   3.288  10.701 -0.1300 -1.1217 -0.6699
 5562TIP3   OH238176   1.483   4.987   1.745  0.0088  0.0078 -0.3606
 5562TIP3    H138177   1.530   5.069   1.732  3.5878 -1.6500  1.5356
 5562TIP3    H238178   1.487   4.971   1.839  0.4510 -2.9130 -0.8167
 5563TIP3   OH238179   6.400   3.725   1.772  0.2502  0.2177 -0.2269
 5563TIP3    H138180   6.411   3.663   1.844 -1.2001 -0.1074 -0.2598
 5563TIP3    H238181   6.434   3.808   1.806 -0.2983  0.0382  0.7944
 5564TIP3   OH238182   2.518   5.575   2.632  0.3947  0.6261 -0.5457
 5564TIP3    H138183   2.607   5.610   2.637  0.8607 -0.5093 -0.5826
 5564TIP3    H238184   2.522   5.511   2.561 -0.1880 -0.1626  0.1226
 5565TIP3   OH238185   0.826   0.537  12.203  0.1393 -0.7036  0.2943
 5565TIP3    H138186   0.891   0.499  12.144 -0.3559  0.4191 -0.9976
 5565TIP3    H238187   0.876   0.562  12.281  0.9146 -1.5782  0.0843
 5566TIP3   OH238188   4.992   1.045  11.098 -0.2741 -0.4915 -0.3546
 5566TIP3    H138189   4.994   0.976  11.031  1.4579  0.4737 -1.3406
 5566TIP3    H238190   4.977   1.125  11.048  2.9671  0.4952  0.1303
 5567TIP3   OH238191   4.146   2.645   2.559  0.0717 -0.2400 -0.0914
 5567TIP3    H138192   4.093   2.721   2.532 -0.5832  0.1680  2.2376
 5567TIP3    H238193   4.126   2.634   2.652  2.3107 -1.5449  0.2593
 5568TIP3   OH238194   4.832   3.893   0.071  0.9484  0.5123  0.2678
 5568TIP3    H138195   4.749   3.939   0.077  1.3504  1.1008  1.5243
 5568TIP3    H238196   4.891   3.955   0.027  1.0999  0.6606  0.6714
 5569TIP3   OH238197   2.207   1.163   2.996  0.4248 -0.0429  0.3529
 5569TIP3    H138198   2.210   1.068   3.011 -0.8239 -0.1308  0.1171
 5569TIP3    H238199   2.295   1.185   2.965  0.3561 -1.3474 -0.8336
 5570TIP3   OH238200   1.472   4.382  15.662  0.3267 -0.4986 -0.4819
 5570TIP3    H138201   1.523   4.355  15.738 -1.9709 -0.4959  1.1366
 5570TIP3    H238202   1.465   4.477  15.670 -0.9956 -0.6293  0.0293
 5571TIP3   OH238203   3.933   2.163  14.508  0.6283 -0.0889  0.4551
 5571TIP3    H138204   4.024   2.193  14.513  0.3678  0.6772  0.7666
 5571TIP3    H238205   3.884   2.242  14.483  0.1156 -0.6153 -0.1960
 5572TIP3   OH238206   4.890   0.979   3.386 -0.1373  0.1088  0.1618
 5572TIP3    H138207   4.803   1.003   3.355  0.8245  1.1749 -1.7984
 5572TIP3    H238208   4.923   1.059   3.427  0.1424 -0.1090  0.3540
 5573TIP3   OH238209   6.570   1.453  14.381  0.0041  0.3022 -0.3796
 5573TIP3    H138210   6.535   1.505  14.454 -0.3212  1.0489 -1.0590
 5573TIP3    H238211   6.492   1.416  14.339  0.1832 -0.0204 -0.4266
 5574TIP3   OH238212   1.136   1.991  17.231  0.2499  0.8188  0.1358
 5574TIP3    H138213   1.159   1.898  17.220  1.9121  1.1471  0.5931
 5574TIP3    H238214   1.042   1.991  17.245  0.4681 -0.9635  1.8858
 5575TIP3   OH238215   4.342   4.869   3.112  0.4304 -0.2584 -0.0716
 5575TIP3    H138216   4.277   4.800   3.095  1.5238 -0.7376 -2.5819
 5575TIP3    H238217   4.335   4.928   3.037  0.3619  1.7424  1.4568
 5576TIP3   OH238218   3.162   1.683  12.603 -0.2909  0.3818 -0.6860
 5576TIP3    H138219   3.144   1.679  12.509 -0.6439 -0.1644 -0.5936
 5576TIP3    H238220   3.076   1.684  12.644 -0.1799  2.5660 -0.4460
 5577TIP3   OH238221   1.853   1.958  14.234 -0.0834  0.6229 -0.2012
 5577TIP3    H138222   1.768   1.914  14.228 -0.1350  0.7463 -0.3977
 5577TIP3    H238223   1.909   1.897  14.282 -0.0979  0.2555 -0.6441
 5578TIP3   OH238224   4.743   1.242  11.800  0.6586  0.1306  0.4006
 5578TIP3    H138225   4.678   1.179  11.833  1.4166 -1.4530 -1.0785
 5578TIP3    H238226   4.827   1.205  11.826  1.1347  0.2965 -0.8732
 5579TIP3   OH238227   6.787   4.092  10.930  0.2069 -0.0499  0.3028
 5579TIP3    H138228   6.877   4.123  10.917 -0.2985  0.9620 -1.0170
 5579TIP3    H238229   6.796   3.999  10.951  1.6434  0.3944  1.7925
 5580TIP3   OH238230   5.380   2.264   0.790 -0.1186  0.2606  0.7177
 5580TIP3    H138231   5.444   2.320   0.835 -0.0191  1.3701 -0.7684
 5580TIP3    H238232   5.364   2.192   0.851  2.7757 -0.2104  0.9714
 5581TIP3   OH238233   5.558   1.500   3.238 -0.3925  0.2415  0.0868
 5581TIP3    H138234   5.474   1.525   3.199 -1.9244 -0.9566  2.4743
 5581TIP3    H238235   5.622   1.559   3.198 -2.1602  0.3695 -2.7036
 5582TIP3   OH238236   3.884   3.660   3.852 -0.0850  0.0100  0.3589
 5582TIP3    H138237   3.965   3.624   3.887  0.1530  0.9319  0.7707
 5582TIP3    H238238   3.891   3.754   3.867 -1.0993  0.1302  0.1256
 5583TIP3   OH238239   2.134   4.833   2.434  0.3686  0.5404 -1.1900
 5583TIP3    H138240   2.223   4.865   2.449  0.5484  0.0757 -1.2631
 5583TIP3    H238241   2.143   4.770   2.363  0.4236 -1.5713  0.6399
 5584TIP3   OH238242   3.443   6.124   3.399  0.0579  0.3229  0.3272
 5584TIP3    H138243   3.510   6.191   3.414  0.2574  0.1016  0.4391
 5584TIP3    H238244   3.487   6.042   3.421 -0.2711  0.1826  0.4555
 5585TIP3   OH238245   4.526   2.725   2.490 -0.4138  0.5057 -0.2886
 5585TIP3    H138246   4.516   2.813   2.526  0.7843  0.5652 -0.0845
 5585TIP3    H238247   4.526   2.738   2.395 -2.3143  0.4886 -0.2981
 5586TIP3   OH238248   2.858   5.866  16.910  0.5086 -0.8669 -0.0803
 5586TIP3    H138249   2.800   5.819  16.969  1.3424 -2.1729 -0.2728
 5586TIP3    H238250   2.857   5.956  16.942 -1.6535 -0.8589 -0.1321
 5587TIP3   OH238251   5.609   3.809  13.712 -0.2578  0.8448  0.4249
 5587TIP3    H138252   5.519   3.823  13.739 -0.4379  0.4645  0.0284
 5587TIP3    H238253   5.618   3.860  13.631 -0.3495  0.2666  0.0406
 5588TIP3   OH238254   3.916   4.259  15.271 -0.2305 -1.0336 -0.0496
 5588TIP3    H138255   3.974   4.318  15.223 -0.3029 -1.2769 -0.4465
 5588TIP3    H238256   3.885   4.311  15.345  1.3634 -1.2666  0.8038
 5589TIP3   OH238257   5.281   2.894  11.610 -0.4410  0.6184  0.1565
 5589TIP3    H138258   5.292   2.851  11.695  0.0617  0.2298 -0.1006
 5589TIP3    H238259   5.193   2.930  11.612 -0.2835  0.9637  1.0076
 5590TIP3   OH238260   2.166   2.668   0.603  0.0804  0.3960  0.0001
 5590TIP3    H138261   2.160   2.618   0.684 -0.1905  0.6136  0.1162
 5590TIP3    H238262   2.257   2.659   0.576  0.2472  0.5778  0.4955
 5591TIP3   OH238263   2.064   5.655  14.209  0.6566  0.1500 -0.1225
 5591TIP3    H138264   2.066   5.568  14.168  0.2477 -1.1939  2.5864
 5591TIP3    H238265   2.153   5.667  14.242 -0.4913 -1.4953  3.8770
 5592TIP3   OH238266   5.114   3.635   2.028  0.2749 -0.3049 -0.0466
 5592TIP3    H138267   5.189   3.632   1.969  1.9142 -0.4206  2.0142
 5592TIP3    H238268   5.144   3.594   2.108 -2.2028 -0.9303  0.6111
 5593TIP3   OH238269   2.545   0.463  16.357  0.5210 -0.1576 -0.3557
 5593TIP3    H138270   2.554   0.403  16.283  0.7535  0.1599 -0.5901
 5593TIP3    H238271   2.633   0.498  16.370  0.6077 -0.6822  0.4735
 5594TIP3   OH238272   3.296   1.435  12.593  0.2595 -0.1445 -0.3500
 5594TIP3    H138273   3.222   1.375  12.587  0.2125 -0.3459  1.7924
 5594TIP3    H238274   3.256   1.522  12.602  0.3196  0.0594 -1.9045
 5595TIP3   OH238275   0.250   3.541  11.517  0.2116 -0.7610 -0.1476
 5595TIP3    H138276   0.252   3.590  11.435  0.8170  1.4720  1.1817
 5595TIP3    H238277   0.342   3.522  11.535  0.1632 -0.3415  0.5458
 5596TIP3   OH238278   5.403   4.047  12.582 -0.4709 -0.4080 -0.4194
 5596TIP3    H138279   5.382   4.045  12.488 -0.2689 -1.4969 -0.4550
 5596TIP3    H238280   5.348   3.979  12.620 -1.6052  1.0226  0.4915
 5597TIP3   OH238281   4.678   2.138  15.095 -0.0760 -0.1299 -0.7286
 5597TIP3    H138282   4.744   2.182  15.148 -0.4365  1.8678 -1.9043
 5597TIP3    H238283   4.675   2.187  15.013 -0.2955 -2.5227 -2.2217
 5598TIP3   OH238284   5.251   3.990   1.480  0.2153  0.4393  0.1040
 5598TIP3    H138285   5.222   4.078   1.504 -1.8527 -0.4713  1.0835
 5598TIP3    H238286   5.180   3.955   1.426  2.0148  0.1593 -2.1310
 5599TIP3   OH238287   5.284   1.950  14.811  0.4369  0.9387 -0.0352
 5599TIP3    H138288   5.330   1.968  14.729 -1.3029  1.2923 -0.9574
 5599TIP3    H238289   5.195   1.925  14.784 -0.1985  1.1855  1.7443
 5600TIP3   OH238290   6.417   4.479   6.061  0.0922 -0.2555  0.1309
 5600TIP3    H138291   6.390   4.479   5.969  1.2808 -2.4344 -0.2538
 5600TIP3    H238292   6.496   4.532   6.063 -0.0110 -0.0957 -0.0772
 5601TIP3   OH238293   3.196   3.734  11.557  0.1244  0.3597  0.4458
 5601TIP3    H138294   3.195   3.770  11.646  0.2316 -1.9674  1.4102
 5601TIP3    H238295   3.230   3.645  11.567 -2.4668 -0.9159 -1.5505
 5602TIP3   OH238296   3.700   3.109   5.345 -0.2938 -0.1649  0.5805
 5602TIP3    H138297   3.667   3.143   5.261  0.3748 -1.6180 -0.2924
 5602TIP3    H238298   3.697   3.184   5.404  0.2812  1.1680 -1.0601
 5603TIP3   OH238299   6.749   2.654   2.317  0.8342 -0.1926  0.1978
 5603TIP3    H138300   6.788   2.596   2.384 -1.4270 -0.9297  0.9126
 5603TIP3    H238301   6.682   2.600   2.275  1.3771  0.6799 -1.8617
 5604TIP3   OH238302   0.398   2.665  15.596  0.0963  0.3125 -0.2298
 5604TIP3    H138303   0.317   2.619  15.572 -0.6903  2.0585 -1.0290
 5604TIP3    H238304   0.415   2.723  15.522  0.9557  1.4278  0.8192
 5605TIP3   OH238305   4.764   4.970   2.955  0.5465  0.2212  0.2348
 5605TIP3    H138306   4.715   4.903   3.003  0.1434 -0.6596 -1.3964
 5605TIP3    H238307   4.835   4.922   2.913 -1.4746  0.2640 -3.4285
 5606TIP3   OH238308   3.473   3.882   4.885  0.0254 -0.0049 -0.8635
 5606TIP3    H138309   3.425   3.963   4.867 -0.1799 -0.0093 -0.3428
 5606TIP3    H238310   3.422   3.839   4.953  1.2499  0.3931  0.3172
 5607TIP3   OH238311   0.635   5.719  16.844 -0.1020 -0.6933  0.1549
 5607TIP3    H138312   0.541   5.734  16.832 -0.3661 -1.3353  1.3810
 5607TIP3    H238313   0.669   5.805  16.872 -0.4525 -0.6360  0.4163
 5608TIP3   OH238314   4.466   5.770   1.523 -0.1243 -0.3980  0.4888
 5608TIP3    H138315   4.408   5.742   1.594  0.5219  2.7404  2.3822
 5608TIP3    H238316   4.548   5.722   1.539 -0.1202 -0.0225  1.6405
 5609TIP3   OH238317   4.813   2.449  12.498 -0.9017  0.1353 -0.4701
 5609TIP3    H138318   4.800   2.532  12.453  0.6646  0.6777  0.0243
 5609TIP3    H238319   4.828   2.473  12.589 -0.7277 -0.7052 -0.2697
 5610TIP3   OH238320   4.810   1.123   3.861  1.0415 -0.8050 -0.1590
 5610TIP3    H138321   4.793   1.133   3.954  0.8610 -2.6102  0.0128
 5610TIP3    H238322   4.902   1.149   3.850  0.5667  1.0773  0.2220
 5611TIP3   OH238323   5.744   1.786  15.495 -0.6267 -0.7345  0.6389
 5611TIP3    H138324   5.705   1.770  15.408  1.5412 -1.4267 -0.2419
 5611TIP3    H238325   5.695   1.728  15.553 -2.5404  0.2078  0.0059
 5612TIP3   OH238326   2.385   2.993  12.583 -0.1184 -0.1793 -0.1382
 5612TIP3    H138327   2.347   3.060  12.526  0.8485  0.0282 -0.5401
 5612TIP3    H238328   2.409   2.922  12.524 -1.6030 -1.1166  0.3426
 5613TIP3   OH238329   0.716   2.497  12.628 -0.3333 -0.3613  0.0430
 5613TIP3    H138330   0.796   2.459  12.664 -0.7164 -0.0130  1.2964
 5613TIP3    H238331   0.741   2.528  12.541  0.6155 -1.2061  0.0082
 5614TIP3   OH238332   0.401   6.330  13.047 -0.4993  0.0128 -0.3590
 5614TIP3    H138333   0.417   6.422  13.024 -0.9117  0.4432  1.0252
 5614TIP3    H238334   0.484   6.300  13.084 -1.0666  0.5152  1.3423
 5615TIP3   OH238335   5.542   4.354  13.166  0.4974 -0.4482 -0.3629
 5615TIP3    H138336   5.586   4.436  13.146 -0.3218  0.0830 -0.0188
 5615TIP3    H238337   5.463   4.380  13.213  0.1629 -1.4244 -0.3724
 5616TIP3   OH238338   3.795   5.538   1.701 -0.5171 -0.0978  0.6256
 5616TIP3    H138339   3.746   5.502   1.775  0.6416 -1.2968  0.8176
 5616TIP3    H238340   3.884   5.508   1.714  0.1540  1.5030 -0.1071
 5617TIP3   OH238341   4.785   6.413  16.459  0.2887 -0.6339  0.7344
 5617TIP3    H138342   4.736   6.381  16.384  0.2859 -2.3645  1.4506
 5617TIP3    H238343   4.851   6.346  16.476  0.9977  0.2564  1.6040
 5618TIP3   OH238344   4.541   0.483  12.486 -0.6319 -0.6531  0.2417
 5618TIP3    H138345   4.589   0.402  12.506 -0.7827 -0.5954  0.8323
 5618TIP3    H238346   4.540   0.531  12.568  1.0101  0.7671 -0.5158
 5619TIP3   OH238347   5.045   2.265   0.220 -0.0936  0.1526 -0.5467
 5619TIP3    H138348   5.137   2.290   0.220  0.2338 -0.9179 -2.3787
 5619TIP3    H238349   4.999   2.342   0.187  0.2434  0.4476 -0.3227
 5620TIP3   OH238350   6.553   4.466   0.652  0.3918 -0.0167 -0.3553
 5620TIP3    H138351   6.603   4.547   0.638  0.3825  0.0144 -0.2022
 5620TIP3    H238352   6.568   4.444   0.743 -1.2849  0.9437  0.1744
 5621TIP3   OH238353   5.886   1.770  12.455  0.1937 -0.6844  0.0783
 5621TIP3    H138354   5.954   1.784  12.520  1.2615 -0.5794 -1.0351
 5621TIP3    H238355   5.908   1.685  12.416 -0.6288 -0.9054  0.0938
 5622TIP3   OH238356   1.540   2.165   4.450 -0.3882 -0.4035  0.4442
 5622TIP3    H138357   1.451   2.198   4.467 -1.0444 -1.5711 -0.6111
 5622TIP3    H238358   1.532   2.116   4.368  1.4271  0.1849 -0.0962
 5623TIP3   OH238359   2.721   1.661   1.451 -0.4720 -0.0628  0.4550
 5623TIP3    H138360   2.787   1.715   1.495 -0.3173  1.5627 -1.6536
 5623TIP3    H238361   2.645   1.718   1.441 -0.8504 -0.7022 -0.4558
 5624TIP3   OH238362   0.395   4.679   1.740 -0.3326 -0.6588 -1.0258
 5624TIP3    H138363   0.327   4.658   1.805  0.4314 -1.6053 -0.5174
 5624TIP3    H238364   0.463   4.723   1.790 -0.6884  0.5469 -1.5909
 5625TIP3   OH238365   6.395   6.455  12.881 -0.2911  0.1062  0.2218
 5625TIP3    H138366   6.398   6.525  12.816  0.0041  0.1960  0.3347
 5625TIP3    H238367   6.486   6.430  12.895 -0.3792 -0.1516  0.3446
 5626TIP3   OH238368   3.771   1.611  11.347  0.4819 -0.2456  0.0721
 5626TIP3    H138369   3.766   1.704  11.329  0.2876 -0.1754  0.4979
 5626TIP3    H238370   3.732   1.600  11.434 -2.6819 -1.1640 -1.3726
 5627TIP3   OH238371   6.213   0.029   2.923 -0.0259 -0.0086  0.9053
 5627TIP3    H138372   6.220   0.060   3.013 -0.4919  2.4773  0.1282
 5627TIP3    H238373   6.289   0.066   2.879 -0.0363 -0.8459  0.1600
 5628TIP3   OH238374   4.338   3.070   5.856 -0.0889 -0.1410  0.3644
 5628TIP3    H138375   4.384   3.080   5.773 -0.0208 -1.7160  0.2042
 5628TIP3    H238376   4.395   3.014   5.909 -0.6048  0.0169  1.1003
 5629TIP3   OH238377   5.775   3.623  10.943 -0.4399  0.1850  0.5089
 5629TIP3    H138378   5.718   3.654  10.872 -1.3585 -1.0397  0.7034
 5629TIP3    H238379   5.863   3.626  10.905 -0.6267  1.9520  0.1642
 5630TIP3   OH238380   5.157   3.173  13.071 -0.5116  0.5948  0.3323
 5630TIP3    H138381   5.210   3.100  13.037  0.0399  1.2776 -0.2739
 5630TIP3    H238382   5.153   3.157  13.165 -0.0468 -0.0035  0.2567
 5631TIP3   OH238383   3.793   3.867   4.050 -0.0585 -0.8008 -0.0529
 5631TIP3    H138384   3.772   3.953   4.089 -1.3016 -0.8247 -0.6607
 5631TIP3    H238385   3.885   3.852   4.075 -0.9053 -1.0044  3.2546
 5632TIP3   OH238386   6.329   5.345  15.114 -0.0674 -0.0063  0.2751
 5632TIP3    H138387   6.260   5.338  15.180 -0.5439  1.7468 -0.0011
 5632TIP3    H238388   6.298   5.289  15.042 -0.3911 -0.5477  0.8302
 5633TIP3   OH238389   3.242   3.026   0.877  0.1345 -0.2316  0.2098
 5633TIP3    H138390   3.262   2.981   0.959 -1.0641  0.1533  0.7152
 5633TIP3    H238391   3.249   3.119   0.898 -0.2951 -0.1306 -0.0954
 5634TIP3   OH238392   5.990   6.723   0.570  0.0994 -0.2734  0.3998
 5634TIP3    H138393   5.990   6.717   0.475 -0.9348 -1.9534  0.4776
 5634TIP3    H238394   6.005   6.633   0.600  1.7962  0.4405  1.8402
 5635TIP3   OH238395   5.058   5.930   4.042 -0.0750  0.2460 -0.4104
 5635TIP3    H138396   5.134   5.972   4.081  0.9736 -2.1874  0.2456
 5635TIP3    H238397   4.984   5.960   4.096  0.2694  3.1201 -1.4426
 5636TIP3   OH238398   3.866   3.968   1.967  0.0269  0.1035 -0.2907
 5636TIP3    H138399   3.854   4.035   1.900 -0.2206  1.3732  1.0040
 5636TIP3    H238400   3.783   3.966   2.014 -1.2871 -3.6402 -2.5215
 5637TIP3   OH238401   3.942   4.929  15.597  0.1074 -0.2247  0.3509
 5637TIP3    H138402   3.949   4.987  15.521 -2.2347  1.5104  1.3678
 5637TIP3    H238403   4.020   4.948  15.649 -0.3260  1.6307  0.3635
 5638TIP3   OH238404   1.318   1.414  15.610  0.0313 -0.0146  0.4700
 5638TIP3    H138405   1.311   1.467  15.531  0.6340  0.4273  0.7085
 5638TIP3    H238406   1.229   1.410  15.644  0.0116  0.9925  0.5464
 5639TIP3   OH238407   4.587   5.473   4.454 -0.9028  0.1272  0.2462
 5639TIP3    H138408   4.523   5.403   4.440  1.2508 -1.7863 -0.1839
 5639TIP3    H238409   4.594   5.480   4.549 -1.6158  0.2258  0.2937
 5640TIP3   OH238410   0.677   3.021  13.534 -0.1439  0.1366 -0.7868
 5640TIP3    H138411   0.771   3.005  13.524  0.2857  2.4259 -0.5380
 5640TIP3    H238412   0.663   3.109  13.500 -2.6239 -1.0456 -3.1029
 5641TIP3   OH238413   3.104   4.432   4.225 -0.1763  0.0051  0.3064
 5641TIP3    H138414   3.020   4.385   4.233 -0.4358  0.9297  3.9667
 5641TIP3    H238415   3.081   4.524   4.238  1.1305  0.5474 -1.0697
 5642TIP3   OH238416   5.716   4.599  13.479 -0.1119 -0.1033 -0.2288
 5642TIP3    H138417   5.764   4.594  13.562  0.7808  0.4966 -0.7013
 5642TIP3    H238418   5.717   4.692  13.457  0.1085 -0.3317 -1.1827
 5643TIP3   OH238419   3.246   1.015   0.829 -0.1866  0.2380 -0.4353
 5643TIP3    H138420   3.340   1.004   0.839 -0.3936  0.0984  1.5053
 5643TIP3    H238421   3.232   1.110   0.833 -0.1820  0.2272 -0.1408
 5644TIP3   OH238422   2.516   3.410  13.898  0.4563 -0.0074 -0.2716
 5644TIP3    H138423   2.584   3.351  13.867  0.2903  0.1130 -0.8668
 5644TIP3    H238424   2.435   3.360  13.893  0.7010 -0.6771  1.9137
 5645TIP3   OH238425   0.136   3.208  12.363 -0.0586 -0.1825  0.0432
 5645TIP3    H138426   0.067   3.167  12.416 -1.1980  1.2672 -0.2843
 5645TIP3    H238427   0.089   3.247  12.289  0.9617  1.7262  0.3593
 5646TIP3   OH238428   0.308   4.638  16.929  0.2087 -0.3507  0.3741
 5646TIP3    H138429   0.294   4.607  16.840 -0.4442  1.3199 -0.1202
 5646TIP3    H238430   0.224   4.622  16.973 -0.1291  0.6568  0.1184
 5647TIP3   OH238431   6.554   3.390  12.648 -0.1534  0.0867 -0.0328
 5647TIP3    H138432   6.537   3.442  12.727 -0.9727  0.3082 -0.3428
 5647TIP3    H238433   6.469   3.387  12.604 -0.0314 -1.2767 -0.1672
 5648TIP3   OH238434   4.752   6.284   5.705 -0.0409 -0.1722 -0.0220
 5648TIP3    H138435   4.700   6.274   5.784 -0.2809  2.2815  0.1735
 5648TIP3    H238436   4.836   6.319   5.736 -0.6774  2.3084 -0.9375
 5649TIP3   OH238437   4.947   5.293  14.808 -0.3627  0.6868  0.2027
 5649TIP3    H138438   4.867   5.254  14.843 -0.1430 -0.0336 -0.0853
 5649TIP3    H238439   4.916   5.357  14.744 -0.7086 -0.9417 -1.3400
 5650TIP3   OH238440   0.931   2.508   3.023 -0.7854  0.5991  0.7859
 5650TIP3    H138441   0.919   2.523   2.929 -1.2960  1.4307  0.9803
 5650TIP3    H238442   0.928   2.413   3.032  2.9140  0.3011 -0.5239
 5651TIP3   OH238443   5.946   3.778   4.992  0.3462  0.1639  0.4503
 5651TIP3    H138444   5.931   3.870   4.967 -1.2501 -0.2140 -0.0803
 5651TIP3    H238445   6.040   3.765   4.979  0.6297  1.7837  0.7338
 5652TIP3   OH238446   3.194   5.951  12.442  0.1817  0.3590  0.6790
 5652TIP3    H138447   3.195   5.870  12.493  0.0854 -0.6282 -0.8557
 5652TIP3    H238448   3.117   5.998  12.473 -0.7570 -0.9443  0.3394
 5653TIP3   OH238449   2.250   5.503   4.923 -0.4909  0.4470 -0.2839
 5653TIP3    H138450   2.179   5.528   4.862  0.2180 -0.7623 -1.6274
 5653TIP3    H238451   2.229   5.413   4.948 -0.5561  0.8045  0.9807
 5654TIP3   OH238452   3.629   6.544  16.692 -0.0354 -0.4172  0.1669
 5654TIP3    H138453   3.652   6.632  16.720  0.7539 -0.5437 -0.0450
 5654TIP3    H238454   3.537   6.534  16.713 -0.0958  0.4216  0.2861
 5655TIP3   OH238455   2.560   1.252  11.954  0.0279 -0.5584  0.2129
 5655TIP3    H138456   2.617   1.328  11.963 -0.5948  0.0845 -1.1493
 5655TIP3    H238457   2.615   1.185  11.914  0.4718 -0.7287  1.0803
 5656TIP3   OH238458   4.425   3.992  13.076  0.0968 -0.4182  0.3747
 5656TIP3    H138459   4.447   4.085  13.082  0.8516 -0.5736  0.1818
 5656TIP3    H238460   4.360   3.977  13.144 -0.1698  0.2917  0.2783
 5657TIP3   OH238461   3.189   0.823   0.657 -0.8025  0.1009  0.2942
 5657TIP3    H138462   3.150   0.746   0.700  0.7419  0.6009  2.6654
 5657TIP3    H238463   3.196   0.888   0.726  0.6728  1.3534 -1.0089
 5658TIP3   OH238464   6.088   6.471   2.643 -0.0425 -0.3578  0.2283
 5658TIP3    H138465   6.169   6.508   2.676 -0.1843  0.3087 -0.1735
 5658TIP3    H238466   6.020   6.506   2.701 -0.1360 -0.2870  0.0753
 5659TIP3   OH238467   4.717   1.471  15.732 -0.2590  0.4315  0.0401
 5659TIP3    H138468   4.767   1.433  15.805 -0.2670  0.1163 -0.1148
 5659TIP3    H238469   4.703   1.397  15.673  1.1115  1.0210 -1.0461
 5660TIP3   OH238470   5.997   4.374  12.627 -0.0807 -0.3198  0.8082
 5660TIP3    H138471   6.046   4.293  12.638  0.5488 -0.1012 -0.3223
 5660TIP3    H238472   6.064   4.442  12.623 -0.5412  0.1242  0.5708
 5661TIP3   OH238473   2.679   0.987  14.808 -0.2929 -0.2895  0.0184
 5661TIP3    H138474   2.590   0.976  14.841 -1.6453  1.3174 -2.9096
 5661TIP3    H238475   2.704   0.899  14.777 -0.4958 -0.9354  1.6685
 5662TIP3   OH238476   4.506   5.843  15.841  0.7733 -0.4803 -0.8454
 5662TIP3    H138477   4.485   5.823  15.932 -0.8803  2.7241 -0.4859
 5662TIP3    H238478   4.426   5.880  15.805  1.9761  0.0158 -3.1070
 5663TIP3   OH238479   1.718   1.710  10.580  0.3860  0.0470  0.3331
 5663TIP3    H138480   1.805   1.749  10.587  0.6199 -0.2858 -0.5627
 5663TIP3    H238481   1.720   1.635  10.639 -0.4131  1.9564  2.8820
 5664TIP3   OH238482   6.367   3.031  13.303 -0.2338 -0.3133 -0.0830
 5664TIP3    H138483   6.413   2.955  13.269  0.4060 -0.0230  0.1321
 5664TIP3    H238484   6.290   3.040  13.247  1.8247  1.3440 -2.7708
 5665TIP3   OH238485   0.399   6.236  12.746  0.3537 -0.4676  0.4392
 5665TIP3    H138486   0.419   6.263  12.836  0.5208  0.0875  0.2370
 5665TIP3    H238487   0.485   6.217  12.708  0.3451  0.0159  0.1722
 5666TIP3   OH238488   6.450   5.756  13.070  0.0914 -0.6037  0.8459
 5666TIP3    H138489   6.503   5.796  13.001  0.5176 -0.2242  1.3796
 5666TIP3    H238490   6.458   5.662  13.054 -0.9809 -0.4810 -0.4614
 5667TIP3   OH238491   1.943   2.626   2.953 -0.1044 -0.1578 -0.0834
 5667TIP3    H138492   1.877   2.651   2.889  0.2977 -1.3802 -0.9760
 5667TIP3    H238493   2.026   2.637   2.908  0.4736  3.2743  1.6508
 5668TIP3   OH238494   1.112   3.394  11.093  0.0975 -0.3001  0.9380
 5668TIP3    H138495   1.147   3.470  11.138  0.3215 -1.5532  2.9125
 5668TIP3    H238496   1.149   3.400  11.004 -0.2473  2.0965  0.9182
 5669TIP3   OH238497   1.655   0.630  15.805  0.4229  0.1325  0.3669
 5669TIP3    H138498   1.593   0.568  15.843  0.8453 -0.2789  0.3869
 5669TIP3    H238499   1.639   0.712  15.852  1.0071 -0.3990  1.5020
 5670TIP3   OH238500   3.860   3.979   3.181  0.0853  0.5891 -0.3654
 5670TIP3    H138501   3.802   4.039   3.228  1.5147  1.5408  0.2179
 5670TIP3    H238502   3.845   3.894   3.223  1.5327  1.4745  2.0648
 5671TIP3   OH238503   1.123   3.468   4.356 -0.2610  0.5191  0.1622
 5671TIP3    H138504   1.155   3.394   4.407  3.6838  1.6880 -0.5182
 5671TIP3    H238505   1.165   3.459   4.271  0.5094  3.6542  0.1326
 5672TIP3   OH238506   2.430   2.132  10.365  0.1240  0.2801 -0.6776
 5672TIP3    H138507   2.507   2.075  10.363  0.3639  0.5034  1.0339
 5672TIP3    H238508   2.463   2.216  10.398 -0.9115  0.2740  0.4067
 5673TIP3   OH238509   4.692   3.513   2.565 -0.0680  0.0268 -0.2223
 5673TIP3    H138510   4.630   3.572   2.522  0.4904  0.5697 -0.2735
 5673TIP3    H238511   4.762   3.500   2.501  0.6569  0.6659  0.4337
 5674TIP3   OH238512   5.714   3.063  13.694  0.5850 -0.0887  0.1427
 5674TIP3    H138513   5.738   3.023  13.777  1.5532 -0.6185 -0.3737
 5674TIP3    H238514   5.657   3.135  13.717 -1.0182 -1.6399  1.1066
 5675TIP3   OH238515   4.849   0.687   1.209 -0.4087  0.3113  0.0021
 5675TIP3    H138516   4.821   0.607   1.166  1.0759 -0.4529  0.4069
 5675TIP3    H238517   4.787   0.698   1.282 -1.3288  0.1897 -0.7525
 5676TIP3   OH238518   2.697   4.883   3.370  0.6586  0.5181 -0.1359
 5676TIP3    H138519   2.623   4.848   3.321 -0.3750  1.4431  0.7275
 5676TIP3    H238520   2.765   4.816   3.362 -0.3186 -0.4162 -0.8082
 5677TIP3   OH238521   2.527   2.061  17.155  0.8359  0.0104  0.9599
 5677TIP3    H138522   2.560   2.122  17.088  1.7661  0.1757  1.5575
 5677TIP3    H238523   2.546   1.974  17.118 -1.6750  0.0268 -0.4840
 5678TIP3   OH238524   1.177   4.134  11.464 -0.5799 -0.3504  0.1747
 5678TIP3    H138525   1.271   4.124  11.450 -0.0327  1.9794  1.8282
 5678TIP3    H238526   1.162   4.099  11.552 -1.3425 -1.0911 -0.2445
 5679TIP3   OH238527   5.458   0.758   6.042  0.4868  0.3815  0.1335
 5679TIP3    H138528   5.521   0.828   6.056  0.2904  0.2500  1.7556
 5679TIP3    H238529   5.477   0.694   6.111 -0.4124 -0.3765 -0.3014
 5680TIP3   OH238530   6.563   3.616  12.828 -0.3888 -0.5800 -0.1532
 5680TIP3    H138531   6.625   3.548  12.852 -1.1898 -0.8337  1.2134
 5680TIP3    H238532   6.618   3.685  12.789  0.7885 -0.6437  1.3533
 5681TIP3   OH238533   0.602   6.631  10.777 -0.0882  0.5241  0.3877
 5681TIP3    H138534   0.590   6.725  10.792 -2.4231  0.3665 -0.3335
 5681TIP3    H238535   0.522   6.591  10.810 -0.2394 -0.9612 -1.7197
 5682TIP3   OH238536   1.669   5.123  14.390  0.2900  0.0102 -0.4439
 5682TIP3    H138537   1.650   5.176  14.468 -0.5563 -1.0469  0.0786
 5682TIP3    H238538   1.755   5.154  14.361  0.5185  0.5651  0.7910
 5683TIP3   OH238539   6.476   4.191   1.123  0.0781  0.6064  0.4458
 5683TIP3    H138540   6.458   4.113   1.176 -1.3045  1.2451  0.9468
 5683TIP3    H238541   6.517   4.157   1.044  0.3408 -0.5466  1.0658
 5684TIP3   OH238542   2.177   0.615  16.335 -0.7215 -0.3258  0.0048
 5684TIP3    H138543   2.094   0.642  16.376  0.2232  0.4805  1.4207
 5684TIP3    H238544   2.221   0.697  16.314  0.2203 -0.7580  0.2832
 5685TIP3   OH238545   0.914   3.547   4.585  0.0246 -0.5418  0.4401
 5685TIP3    H138546   0.864   3.486   4.531 -0.9697  1.7263 -1.3355
 5685TIP3    H238547   0.999   3.553   4.541  0.8887 -2.2487  1.8416
 5686TIP3   OH238548   1.910   4.478   4.076 -0.1085 -0.3796  0.0070
 5686TIP3    H138549   1.968   4.403   4.062 -0.2993 -0.5893  0.3447
 5686TIP3    H238550   1.878   4.500   3.989 -1.4913 -1.8440  0.1137
 5687TIP3   OH238551   5.152   1.845  13.466  0.1321 -0.1014 -0.4788
 5687TIP3    H138552   5.076   1.794  13.438  0.5497 -0.8101 -0.3280
 5687TIP3    H238553   5.185   1.799  13.543 -0.7935  1.6473  0.9909
 5688TIP3   OH238554   2.756   5.791  14.994  0.7022 -0.1400  0.1802
 5688TIP3    H138555   2.754   5.745  15.078  1.1861  1.2456  0.9613
 5688TIP3    H238556   2.673   5.768  14.952 -0.0833  0.1275  1.5622
 5689TIP3   OH238557   2.270   4.637   4.001  0.0185 -0.1160 -0.0616
 5689TIP3    H138558   2.312   4.712   3.959  0.5039 -0.4175 -0.1291
 5689TIP3    H238559   2.343   4.589   4.041 -0.4222  0.0972  1.0031
 5690TIP3   OH238560   3.510   1.592  13.075 -0.3439  0.5922  0.4921
 5690TIP3    H138561   3.574   1.658  13.050 -0.2781  0.2810 -0.1866
 5690TIP3    H238562   3.561   1.511  13.082 -0.6146  0.3959  0.2133
 5691TIP3   OH238563   1.099   1.463  13.982 -0.1662  0.0069 -0.2229
 5691TIP3    H138564   1.096   1.513  13.901  1.6245 -1.0938 -1.0110
 5691TIP3    H238565   1.040   1.389  13.968 -1.2780  0.8134  0.1851
 5692TIP3   OH238566   4.699   0.083  12.760  0.2273  0.3071 -0.1293
 5692TIP3    H138567   4.698   0.155  12.696  0.0772  0.4769  0.0617
 5692TIP3    H238568   4.607   0.063  12.774  0.2964 -0.5634 -0.8892
 5693TIP3   OH238569   4.400   5.554  16.240  0.4805  0.1686 -0.9701
 5693TIP3    H138570   4.394   5.504  16.158 -0.8121  1.2115 -1.5401
 5693TIP3    H238571   4.383   5.490  16.309  0.2622 -0.4533 -1.5902
 5694TIP3   OH238572   1.168   4.008   4.038 -0.0888 -0.6141 -0.5586
 5694TIP3    H138573   1.169   3.933   4.098 -0.7610 -0.2254 -0.0546
 5694TIP3    H238574   1.193   3.971   3.953 -0.2634 -1.3834 -0.2819
 5695TIP3   OH238575   0.828   5.784   2.962  0.6527  0.6711 -0.0558
 5695TIP3    H138576   0.750   5.756   2.913  0.3465  1.3236  0.0465
 5695TIP3    H238577   0.897   5.724   2.935 -0.1992 -0.6984  0.7848
 5696TIP3   OH238578   1.045   5.085  12.751 -0.2318 -0.4454 -0.5166
 5696TIP3    H138579   1.000   5.158  12.709  0.1735  0.4683  0.5947
 5696TIP3    H238580   0.991   5.062  12.826  0.1552 -0.6337 -0.2909
 5697TIP3   OH238581   2.880   0.054  14.908  0.2609  0.3929 -0.0642
 5697TIP3    H138582   2.787   0.074  14.900 -0.1348 -1.2976  0.1258
 5697TIP3    H238583   2.915   0.073  14.821 -0.1580  1.4530 -0.0179
 5698TIP3   OH238584   3.652   3.250  13.352 -0.0345 -0.2829  0.2788
 5698TIP3    H138585   3.728   3.282  13.400  0.4101  0.3501 -0.8250
 5698TIP3    H238586   3.640   3.313  13.281 -2.5731  0.5145  1.3636
 5699TIP3   OH238587   2.174   1.198  11.781 -0.3710 -0.6844 -0.5382
 5699TIP3    H138588   2.129   1.120  11.749 -1.1326 -0.6747  0.5021
 5699TIP3    H238589   2.129   1.271  11.739 -2.3372 -0.5849  1.6464
 5700TIP3   OH238590   5.018   4.789   3.194 -0.4600  0.7448 -0.0344
 5700TIP3    H138591   5.000   4.786   3.100  2.2426  1.5252 -0.6225
 5700TIP3    H238592   5.034   4.698   3.219  3.3900  0.9456 -1.3596
 5701TIP3   OH238593   5.448   4.831  14.435  0.4763  0.5804  0.1814
 5701TIP3    H138594   5.355   4.844  14.420  1.0006  2.0318 -2.0571
 5701TIP3    H238595   5.479   4.788  14.355  1.9820  1.4916  0.2547
 5702TIP3   OH238596   6.203   3.708  13.892 -0.0742  0.2497 -0.4867
 5702TIP3    H138597   6.279   3.735  13.840 -0.4613 -0.2603 -1.3437
 5702TIP3    H238598   6.235   3.636  13.947 -0.1884 -0.7115 -1.6477
 5703TIP3   OH238599   2.179   6.065   4.895  0.2039 -0.2529 -0.6630
 5703TIP3    H138600   2.269   6.072   4.928 -0.0789 -0.6905  0.2410
 5703TIP3    H238601   2.169   6.139   4.835  1.1843 -0.2362 -0.8141
 5704TIP3   OH238602   5.783   2.104  11.345 -0.1921  0.1452  0.2128
 5704TIP3    H138603   5.714   2.166  11.367 -0.9092 -0.2031 -1.0103
 5704TIP3    H238604   5.863   2.144  11.379 -0.8304  1.1144  0.5883
 5705TIP3   OH238605   0.836   6.239   4.383  0.0425  0.0666 -0.2798
 5705TIP3    H138606   0.759   6.243   4.440  0.5160 -0.9730  0.4470
 5705TIP3    H238607   0.833   6.152   4.343  0.1891  0.4693 -1.1797
 5706TIP3   OH238608   1.627   0.997   2.718 -0.5237  0.1438  0.2665
 5706TIP3    H138609   1.650   1.062   2.652 -0.2218 -0.7679 -0.5479
 5706TIP3    H238610   1.637   0.913   2.672 -0.6712 -0.4769  1.3685
 5707TIP3   OH238611   1.853   5.970   0.272 -0.1124 -0.0168  0.1451
 5707TIP3    H138612   1.771   5.995   0.228  1.1804  0.1966 -2.2065
 5707TIP3    H238613   1.833   5.978   0.365 -2.5711  0.7127 -0.4062
 5708TIP3   OH238614   2.519   0.870   4.792  0.1634  0.5459  0.3065
 5708TIP3    H138615   2.518   0.875   4.888  0.6519 -0.7457  0.4032
 5708TIP3    H238616   2.529   0.776   4.774  0.4841  0.8240 -1.0031
 5709TIP3   OH238617   6.210   4.953   0.088 -0.3117  0.5609 -0.4077
 5709TIP3    H138618   6.173   4.881   0.036 -0.9324  0.5518  0.0338
 5709TIP3    H238619   6.133   5.003   0.117  0.0856  1.0793 -0.2463
 5710TIP3   OH238620   1.877   2.341  13.403  0.0140  0.1160 -0.1255
 5710TIP3    H138621   1.919   2.310  13.323  1.6304 -0.0041  0.7474
 5710TIP3    H238622   1.918   2.425  13.421 -2.5996  1.6556 -1.1302
 5711TIP3   OH238623   4.593   0.462  14.324 -0.2120 -0.0471 -0.2257
 5711TIP3    H138624   4.502   0.433  14.319  0.1008 -0.9218 -1.2607
 5711TIP3    H238625   4.613   0.466  14.417 -1.8739  1.9819  0.0580
 5712TIP3   OH238626   3.957   3.653   5.188 -0.4123  0.2853  0.3033
 5712TIP3    H138627   3.941   3.728   5.245 -1.7821 -1.7348  2.6594
 5712TIP3    H238628   4.042   3.671   5.148 -0.3988  2.7444  1.3403
 5713TIP3   OH238629   3.161   0.710  15.327 -0.1396 -0.1681 -0.5056
 5713TIP3    H138630   3.129   0.779  15.385  1.6583  0.6435 -0.4771
 5713TIP3    H238631   3.122   0.730  15.242  1.7404  1.8562 -0.9006
 5714TIP3   OH238632   1.517   4.381  11.172  0.3892  0.2467 -0.0591
 5714TIP3    H138633   1.542   4.473  11.169  0.5838  0.1862 -0.4134
 5714TIP3    H238634   1.573   4.339  11.106  0.2567 -0.1107  0.0539
 5715TIP3   OH238635   6.415   5.239   0.687  0.5762  0.2203  0.4897
 5715TIP3    H138636   6.415   5.252   0.592  0.9847 -1.0457  0.3084
 5715TIP3    H238637   6.495   5.283   0.716  0.4562  0.6038  0.2568
 5716TIP3   OH238638   3.170   2.044  15.041 -0.0516  0.8768 -0.2990
 5716TIP3    H138639   3.165   2.132  15.003  0.0562  0.3101 -1.6455
 5716TIP3    H238640   3.088   2.002  15.016  0.4997  0.1213 -0.8933
 5717TIP3   OH238641   4.571   2.178  15.991  0.1984 -0.3001  0.1258
 5717TIP3    H138642   4.660   2.144  15.982  0.0292 -0.5161 -0.8585
 5717TIP3    H238643   4.516   2.101  16.000  0.2132 -0.1249  1.7682
 5718TIP3   OH238644   2.633   3.290  15.394  0.2246 -0.7324  0.0458
 5718TIP3    H138645   2.550   3.336  15.383  1.5997  1.8940  0.3901
 5718TIP3    H238646   2.617   3.204  15.353 -2.3888 -0.0106 -0.5992
 5719TIP3   OH238647   5.049   6.269  13.410  0.2422 -0.3245  0.1259
 5719TIP3    H138648   5.006   6.183  13.403  0.9255 -0.6274 -0.4248
 5719TIP3    H238649   5.070   6.293  13.320 -1.1844  1.0756  0.1451
 5720TIP3   OH238650   2.770   0.503  12.718 -0.2082  0.2101 -0.5607
 5720TIP3    H138651   2.817   0.431  12.677 -0.6075 -0.8717  0.8247
 5720TIP3    H238652   2.769   0.481  12.811 -1.6132  1.2785 -0.3004
 5721TIP3   OH238653   6.230   0.619   4.991 -0.1335 -0.7332  0.2978
 5721TIP3    H138654   6.209   0.528   4.972 -1.7385 -0.0654 -1.1818
 5721TIP3    H238655   6.268   0.653   4.910 -2.0015  0.6406 -0.0126
 5722TIP3   OH238656   3.598   3.913   3.851 -0.1210 -0.3402 -0.0842
 5722TIP3    H138657   3.525   3.851   3.859  0.1989 -0.7454 -0.2514
 5722TIP3    H238658   3.659   3.887   3.920  0.0711 -0.2907 -0.2351
 5723TIP3   OH238659   2.301   1.803  14.137  0.1282  0.2249  0.3424
 5723TIP3    H138660   2.357   1.880  14.141 -0.6229  0.7752  0.5262
 5723TIP3    H238661   2.213   1.839  14.122 -0.1655 -0.6198  0.0324
 5724TIP3   OH238662   4.928   3.274   6.610 -0.1465 -0.1250  0.5619
 5724TIP3    H138663   4.860   3.252   6.546 -1.0059  1.9072  0.7578
 5724TIP3    H238664   4.925   3.202   6.673 -1.0028 -0.8750 -0.3153
 5725TIP3   OH238665   3.970   2.669   4.219  0.3886  0.2734 -0.6224
 5725TIP3    H138666   4.062   2.654   4.243  0.6512 -0.5365 -2.0833
 5725TIP3    H238667   3.962   2.764   4.213  0.1995  0.5797  3.0035
 5726TIP3   OH238668   4.995   3.441   1.405 -0.2827 -0.2530 -0.9284
 5726TIP3    H138669   4.964   3.354   1.431 -0.2316 -0.8573 -2.7936
 5726TIP3    H238670   4.964   3.451   1.315 -3.2931  3.1106  0.3615
 5727TIP3   OH238671   6.761   6.659  16.376 -0.2424 -0.0556  0.2588
 5727TIP3    H138672   6.810   6.734  16.410 -1.2878 -0.2068  2.1632
 5727TIP3    H238673   6.671   6.691  16.368 -0.5301 -0.8459  0.3052
 5728TIP3   OH238674   3.655   6.215   0.659 -0.0784  0.1087 -0.5519
 5728TIP3    H138675   3.676   6.272   0.584  0.6321 -1.4208 -1.5472
 5728TIP3    H238676   3.647   6.127   0.621 -1.0889 -0.4747  0.9661
 5729TIP3   OH238677   0.441   4.653   4.067 -1.1518 -0.1063 -0.4760
 5729TIP3    H138678   0.359   4.650   4.116 -1.5033 -0.0655 -1.0526
 5729TIP3    H238679   0.468   4.744   4.071  0.6534 -0.7175  2.6021
 5730TIP3   OH238680   6.603   5.826   2.484 -0.4511  0.7086 -0.6676
 5730TIP3    H138681   6.579   5.753   2.541 -3.6510  0.8445 -1.7153
 5730TIP3    H238682   6.663   5.879   2.536  0.3903 -1.6513  0.8168
 5731TIP3   OH238683   3.404   2.657  14.627  0.0875 -0.1778  0.8914
 5731TIP3    H138684   3.317   2.646  14.589  0.0972  1.7041  0.3121
 5731TIP3    H238685   3.405   2.597  14.702 -1.2556 -1.1314  0.1662
 5732TIP3   OH238686   2.705   2.363   0.953 -0.4041 -0.5616 -0.0286
 5732TIP3    H138687   2.770   2.328   1.014 -1.0234 -0.1522  0.8815
 5732TIP3    H238688   2.697   2.455   0.977  0.2124 -0.1002 -1.5188
 5733TIP3   OH238689   4.917   4.331   0.962 -0.7491 -0.3267 -0.1366
 5733TIP3    H138690   4.823   4.310   0.965 -0.1759 -3.4410 -1.4956
 5733TIP3    H238691   4.940   4.351   1.053 -2.6259 -0.0732  0.3012
 5734TIP3   OH238692   1.619   6.417  10.643  0.2551 -0.0648  0.0553
 5734TIP3    H138693   1.669   6.462  10.712 -0.0653 -0.3388  0.4750
 5734TIP3    H238694   1.680   6.355  10.605  0.8224  1.0071 -0.8005
 5735TIP3   OH238695   1.602   2.639  13.747  0.2975  0.2822  0.4132
 5735TIP3    H138696   1.665   2.636  13.675 -1.0374  0.1355 -0.7678
 5735TIP3    H238697   1.572   2.729  13.749  0.6986  0.4023  1.1159
 5736TIP3   OH238698   6.441   1.919   1.781 -0.3598 -0.4065 -0.0107
 5736TIP3    H138699   6.498   1.995   1.786  0.1893 -0.8860  1.5173
 5736TIP3    H238700   6.478   1.866   1.710  0.8212 -0.4850  0.6427
 5737TIP3   OH238701   1.024   4.953  16.422 -0.2646  0.2479 -0.4756
 5737TIP3    H138702   1.037   4.890  16.492  0.5927  1.3881  0.4133
 5737TIP3    H238703   1.104   4.947  16.369  0.0162  0.9079 -0.1296
 5738TIP3   OH238704   1.443   2.701  15.644  0.7988  0.2560  0.0828
 5738TIP3    H138705   1.519   2.671  15.694  0.8757  0.5467  0.1419
 5738TIP3    H238706   1.368   2.662  15.690  0.9893 -1.2458 -0.8358
 5739TIP3   OH238707   5.485   1.908  15.474  0.3272 -0.1804  0.2960
 5739TIP3    H138708   5.478   1.820  15.437  0.5872 -0.0934  0.0351
 5739TIP3    H238709   5.566   1.907  15.524 -0.2051 -0.4013  1.1516
 5740TIP3   OH238710   5.578   6.235  14.520  0.2946  0.8250 -0.2385
 5740TIP3    H138711   5.671   6.221  14.499  0.6346  1.0965  1.0330
 5740TIP3    H238712   5.538   6.149  14.510  0.4538  0.9218 -1.8772
 5741TIP3   OH238713   0.734   3.595   2.250  0.0589 -0.2941 -0.0696
 5741TIP3    H138714   0.737   3.500   2.243 -1.6023 -0.4394  0.8063
 5741TIP3    H238715   0.824   3.621   2.270  0.3380 -1.7538  0.6352
 5742TIP3   OH238716   5.688   3.732   6.274  0.2381 -0.0101  0.3898
 5742TIP3    H138717   5.781   3.722   6.257  0.0514 -1.7466  0.3460
 5742TIP3    H238718   5.664   3.657   6.329 -1.2755  0.0229 -0.1837
 5743TIP3   OH238719   1.261   2.581   1.243 -0.0121  0.1016 -0.2678
 5743TIP3    H138720   1.355   2.595   1.237  0.0350 -0.9738 -2.4213
 5743TIP3    H238721   1.252   2.488   1.261 -0.6607  0.2625  0.2527
 5744TIP3   OH238722   6.419   2.452   2.023  0.0913  0.1638 -0.4299
 5744TIP3    H138723   6.340   2.502   2.000 -0.4927 -0.9971 -0.9918
 5744TIP3    H238724   6.465   2.441   1.940 -0.4816 -1.4004 -0.5639
 5745TIP3   OH238725   0.850   6.088   4.933  0.3107  0.4611 -0.3428
 5745TIP3    H138726   0.762   6.052   4.942  1.5166 -2.9810 -1.5583
 5745TIP3    H238727   0.844   6.175   4.973 -2.9000 -0.8061  2.1768
 5746TIP3   OH238728   3.117   1.479  13.748 -0.3336  0.6706  0.0147
 5746TIP3    H138729   3.153   1.392  13.728  0.1581  0.7006  0.7596
 5746TIP3    H238730   3.042   1.487  13.689 -1.8172 -1.2393  1.5456
 5747TIP3   OH238731   0.149   0.741   5.319  0.5752  0.2024  0.6163
 5747TIP3    H138732   0.215   0.751   5.387 -0.2628  0.0380  1.4597
 5747TIP3    H238733   0.128   0.647   5.320 -0.6154  0.4665  1.2514
 5748TIP3   OH238734   2.734   1.141   4.149 -0.4349 -0.0096 -0.1117
 5748TIP3    H138735   2.708   1.221   4.104  0.6481  1.1961  1.3644
 5748TIP3    H238736   2.657   1.117   4.201  0.3462  2.0052  2.0825
 5749TIP3   OH238737   6.098   5.830  13.917  0.0741 -0.5387  0.0763
 5749TIP3    H138738   6.151   5.894  13.964 -2.5579  2.1134 -0.3976
 5749TIP3    H238739   6.126   5.837  13.826 -2.6902  2.8075 -0.6662
 5750TIP3   OH238740   4.937   5.672   1.125 -0.1464  0.5405  0.2787
 5750TIP3    H138741   4.979   5.638   1.204  1.1545  0.2458 -0.5136
 5750TIP3    H238742   4.902   5.595   1.081  2.9666  0.1309 -1.6124
 5751TIP3   OH238743   5.155   6.209  11.473  0.1855 -0.1707  0.2213
 5751TIP3    H138744   5.117   6.294  11.492 -1.4967 -0.7280 -0.5931
 5751TIP3    H238745   5.088   6.146  11.500  0.5339 -1.1741 -1.1949
 5752TIP3   OH238746   5.603   5.819  14.309  0.3131  0.0133 -0.0715
 5752TIP3    H138747   5.527   5.848  14.258  1.2859  0.0674 -1.5042
 5752TIP3    H238748   5.678   5.862  14.268  1.3284 -1.4437  0.1972
 5753TIP3   OH238749   5.675   1.011  12.878 -0.1590 -0.0187 -0.1484
 5753TIP3    H138750   5.722   0.971  12.951 -2.4650 -1.8650  0.3834
 5753TIP3    H238751   5.653   0.937  12.821 -0.1954  1.1479 -1.6613
 5754TIP3   OH238752   5.000   1.177   3.542  0.2054  0.8171 -0.2628
 5754TIP3    H138753   5.076   1.226   3.511  1.6090 -0.9678  0.2468
 5754TIP3    H238754   4.994   1.196   3.635  0.2155  0.7124 -0.2404
 5755TIP3   OH238755   3.378   6.089   0.731 -0.3956  0.8277 -0.0569
 5755TIP3    H138756   3.314   6.087   0.802  1.1867  1.7775  1.4155
 5755TIP3    H238757   3.461   6.068   0.773  0.0400 -2.1085 -2.2445
 5756TIP3   OH238758   2.831   5.320   3.994  0.0559 -0.3844 -0.8295
 5756TIP3    H138759   2.792   5.293   4.077 -0.8020  0.7608 -0.8574
 5756TIP3    H238760   2.865   5.239   3.957 -0.6263 -1.0961  0.0722
 5757TIP3   OH238761   3.602   0.591  11.958  0.1124 -0.3765 -0.4405
 5757TIP3    H138762   3.581   0.636  12.040  1.7738 -2.9951  1.4627
 5757TIP3    H238763   3.667   0.647  11.915  1.9011 -0.7269  1.7447
 5758TIP3   OH238764   2.464   5.579   4.491 -0.1513  0.0690 -0.8074
 5758TIP3    H138765   2.505   5.507   4.538 -0.4658  0.4221  0.0424
 5758TIP3    H238766   2.408   5.538   4.425 -1.0228 -0.4937  0.2662
 5759TIP3   OH238767   0.229   2.537   3.830 -0.1224 -0.3185 -0.8302
 5759TIP3    H138768   0.272   2.474   3.773  0.9423 -2.0204  1.7726
 5759TIP3    H238769   0.287   2.614   3.829  1.1199 -1.2390 -0.1911
 5760TIP3   OH238770   6.758   1.458   6.188 -0.7604  0.3280  0.9402
 5760TIP3    H138771   6.727   1.370   6.166  0.5273 -0.0855  0.7216
 5760TIP3    H238772   6.851   1.457   6.166 -0.8480  1.9314  0.4068
 5761TIP3   OH238773   5.571   1.200   0.128 -0.1930 -0.5464 -0.2092
 5761TIP3    H138774   5.622   1.150   0.192 -1.9082 -1.5845  0.3662
 5761TIP3    H238775   5.577   1.150   0.047  0.0588 -0.4361 -0.2597
 5762TIP3   OH238776   3.370   0.580  15.192  0.0784 -1.0046  0.9138
 5762TIP3    H138777   3.345   0.563  15.101  1.0244  1.2255  0.1823
 5762TIP3    H238778   3.293   0.620  15.231  0.4055  0.0961  0.4466
 5763TIP3   OH238779   3.674   1.766  12.619 -0.7194 -0.0371  0.0777
 5763TIP3    H138780   3.615   1.822  12.670 -1.3048  0.6002 -1.2810
 5763TIP3    H238781   3.646   1.778  12.528  1.7667  0.6288 -0.6498
 5764TIP3   OH238782   2.308   0.092  14.296 -0.0309  0.0007  0.0387
 5764TIP3    H138783   2.347   0.174  14.327  3.0226 -1.4338  0.1824
 5764TIP3    H238784   2.324   0.091  14.202 -0.1412 -0.3687  0.0211
 5765TIP3   OH238785   2.973   0.948  15.233  0.1655  0.2806 -0.0239
 5765TIP3    H138786   3.046   0.987  15.184  0.4080 -0.2061 -0.0480
 5765TIP3    H238787   2.896   0.964  15.178  0.2739  0.6527 -0.0738
 5766TIP3   OH238788   4.785   3.396  12.909  0.5397 -0.5457 -0.7520
 5766TIP3    H138789   4.740   3.376  12.827 -2.8026 -1.9169  1.3321
 5766TIP3    H238790   4.740   3.473  12.943  0.7331 -1.0382  0.6321
 5767TIP3   OH238791   3.457   1.442  15.240 -0.1242 -0.7277 -0.0417
 5767TIP3    H138792   3.518   1.437  15.313 -0.7566  1.6224  0.7126
 5767TIP3    H238793   3.385   1.497  15.272  0.3799  1.7744 -2.9047
 5768TIP3   OH238794   1.093   0.295  14.251  0.2358  0.5546  0.7120
 5768TIP3    H138795   1.080   0.201  14.251 -1.1506  0.7253  0.2115
 5768TIP3    H238796   1.187   0.307  14.260  0.4747 -0.8791  0.1515
 5769TIP3   OH238797   6.370   4.701  11.850  0.0773  0.0913  0.5623
 5769TIP3    H138798   6.367   4.723  11.757  0.5780  3.5616  1.3249
 5769TIP3    H238799   6.286   4.658  11.868 -1.1968  1.9313 -0.8826
 5770TIP3   OH238800   4.523   1.409  14.127  0.3857  0.1797 -0.7545
 5770TIP3    H138801   4.457   1.356  14.083  0.6096  0.8216 -1.9041
 5770TIP3    H238802   4.570   1.453  14.056  0.5662  1.4768  0.1398
 5771TIP3   OH238803   2.511   4.438   3.748 -0.1048 -0.3081  0.4101
 5771TIP3    H138804   2.587   4.403   3.794  0.9906  1.9403  0.4218
 5771TIP3    H238805   2.531   4.531   3.737 -1.7502 -0.1715 -1.8175
 5772TIP3   OH238806   6.773   0.458   1.353  0.5365 -0.8182  0.2319
 5772TIP3    H138807   6.702   0.491   1.408 -0.1473  0.3005 -1.2757
 5772TIP3    H238808   6.802   0.535   1.303  2.0538 -1.5087  0.0339
 5773TIP3   OH238809   1.815   3.913   2.519 -0.1881  0.1857  0.4942
 5773TIP3    H138810   1.810   3.978   2.589  0.2350  0.6279  0.1271
 5773TIP3    H238811   1.736   3.860   2.529 -1.5514  1.9774 -0.3728
 5774TIP3   OH238812   3.891   2.014  12.490  0.1874 -0.7984 -0.3857
 5774TIP3    H138813   3.936   2.030  12.407  0.7429 -0.3880 -0.0046
 5774TIP3    H238814   3.888   1.918  12.498 -1.4915 -0.8847 -1.7582
 5775TIP3   OH238815   6.563   1.144  14.707  0.0932 -1.0052  0.3713
 5775TIP3    H138816   6.584   1.095  14.787 -0.7338 -1.3646  0.3685
 5775TIP3    H238817   6.544   1.077  14.642 -0.2366 -0.6891  0.1420
 5776TIP3   OH238818   3.230   2.656  14.083 -0.0721  0.6139 -0.2874
 5776TIP3    H138819   3.148   2.610  14.062  0.2315  0.2237 -0.6185
 5776TIP3    H238820   3.282   2.650  14.003  0.9722 -0.6418  0.4689
 5777TIP3   OH238821   0.155   3.464   4.382  0.5490 -0.2511  0.1602
 5777TIP3    H138822   0.231   3.500   4.428  0.4740  0.7787 -0.5223
 5777TIP3    H238823   0.161   3.370   4.397  1.3109 -0.0628  1.0972
 5778TIP3   OH238824   2.847   4.897  11.271 -0.6436  0.0651 -0.1416
 5778TIP3    H138825   2.892   4.877  11.189  2.0735  0.4642  1.2115
 5778TIP3    H238826   2.826   4.990  11.265 -1.8167 -0.2331 -0.9849
 5779TIP3   OH238827   1.119   4.806  16.160 -0.0536 -0.7292 -0.4930
 5779TIP3    H138828   1.195   4.753  16.136  1.0275  0.3919  0.3903
 5779TIP3    H238829   1.055   4.743  16.192 -0.3643 -1.9174 -3.3275
 5780TIP3   OH238830   1.360   1.664  14.150  0.3249  0.1874 -0.4609
 5780TIP3    H138831   1.322   1.750  14.165 -0.2077  0.0915 -1.2221
 5780TIP3    H238832   1.416   1.649  14.226 -1.2147  0.3167  0.7441
 5781TIP3   OH238833   3.489   5.799   6.709  0.1445 -0.1105  0.0585
 5781TIP3    H138834   3.440   5.721   6.681 -1.2666  0.4886  0.8505
 5781TIP3    H238835   3.520   5.838   6.627 -1.4156 -0.0305 -0.5144
 5782TIP3   OH238836   0.630   0.516  15.359  0.1134 -0.2287  0.4274
 5782TIP3    H138837   0.662   0.503  15.270 -0.5395 -1.6288  0.3863
 5782TIP3    H238838   0.535   0.510  15.351  0.0589 -0.4215  1.2404
 5783TIP3   OH238839   5.423   0.353   4.154  0.5317  0.1706  0.1632
 5783TIP3    H138840   5.493   0.375   4.215 -2.5711  3.9332  2.5974
 5783TIP3    H238841   5.437   0.411   4.079  0.5962  0.2265  0.2185
 5784TIP3   OH238842   3.291   4.086  16.620  0.1471  0.1791 -0.0969
 5784TIP3    H138843   3.221   4.121  16.676  0.6368 -0.2753  0.8234
 5784TIP3    H238844   3.360   4.060  16.682  0.6313 -0.5002 -0.9085
 5785TIP3   OH238845   5.382   5.414   6.314 -0.2877  0.3922  0.5746
 5785TIP3    H138846   5.318   5.344   6.323 -0.0597  0.1424  0.2711
 5785TIP3    H238847   5.335   5.494   6.339 -0.1805 -0.0309  2.2033
 5786TIP3   OH238848   2.765   6.203  10.479 -0.2645 -0.0152  0.1896
 5786TIP3    H138849   2.778   6.281  10.426  1.5682 -0.4281 -0.0162
 5786TIP3    H238850   2.671   6.200  10.495 -0.7054  0.7642 -2.0516
 5787TIP3   OH238851   6.674   1.459   3.849 -0.3575 -0.5686 -0.1410
 5787TIP3    H138852   6.689   1.454   3.943  1.0664  1.3314 -0.2364
 5787TIP3    H238853   6.756   1.429   3.810 -0.8559 -1.1163 -0.7791
 5788TIP3   OH238854   3.598   5.246  10.642 -1.0049 -0.2689 -0.0263
 5788TIP3    H138855   3.552   5.188  10.583  1.5486 -0.7877 -1.5529
 5788TIP3    H238856   3.672   5.195  10.675 -0.0986  1.3068  0.4742
 5789TIP3   OH238857   1.004   0.751   3.190 -0.8444  0.0153  0.0287
 5789TIP3    H138858   0.977   0.827   3.243 -0.8855  0.2404 -0.3119
 5789TIP3    H238859   0.927   0.731   3.137 -0.4854  0.3953 -0.6432
 5790TIP3   OH238860   6.441   6.670   4.507  0.4111 -0.2135 -0.2629
 5790TIP3    H138861   6.365   6.618   4.532 -0.6696  1.6422  0.4486
 5790TIP3    H238862   6.444   6.664   4.411 -0.3539 -0.6829 -0.2647
 5791TIP3   OH238863   2.528   3.823  16.583 -0.5216 -0.1036  0.3627
 5791TIP3    H138864   2.478   3.845  16.662  0.3264  0.7952  0.6476
 5791TIP3    H238865   2.486   3.874  16.513  1.1702  2.1126  0.9441
 5792TIP3   OH238866   5.451   0.810  14.052  1.2484  0.3341  0.5792
 5792TIP3    H138867   5.499   0.879  14.097  0.6725 -0.1250  1.9254
 5792TIP3    H238868   5.518   0.744  14.031  1.4097  0.2263  1.4099
 5793TIP3   OH238869   4.751   5.357   0.544 -0.3312  0.5950 -0.2592
 5793TIP3    H138870   4.773   5.314   0.462 -1.5656  1.7122 -1.2184
 5793TIP3    H238871   4.832   5.400   0.572 -0.1426  0.9942 -1.3975
 5794TIP3   OH238872   2.664   0.297   0.251 -0.2820  0.7197 -0.0311
 5794TIP3    H138873   2.654   0.371   0.191 -0.0068 -0.3807 -1.4619
 5794TIP3    H238874   2.626   0.223   0.205  1.7041 -0.5574  0.3029
 5795TIP3   OH238875   2.857   1.939  15.832 -0.1100 -0.1371 -0.4140
 5795TIP3    H138876   2.872   1.933  15.738 -0.6965 -0.2678 -0.5048
 5795TIP3    H238877   2.876   2.031  15.853 -0.6024  0.0544 -0.7808
 5796TIP3   OH238878   1.966   4.066  12.063 -0.5086 -0.0045  0.2628
 5796TIP3    H138879   1.893   4.005  12.062 -1.4329  1.0795 -0.4112
 5796TIP3    H238880   2.012   4.051  11.980 -1.1931  0.7449 -0.2554
 5797TIP3   OH238881   2.052   5.403   5.201  0.5062  0.1054 -0.0889
 5797TIP3    H138882   2.110   5.478   5.216 -1.8397  1.5398  2.0595
 5797TIP3    H238883   2.020   5.415   5.112 -1.5125  2.9182  0.9266
 5798TIP3   OH238884   4.604   2.261  12.438 -0.3485 -0.2099 -0.6005
 5798TIP3    H138885   4.637   2.180  12.399  1.2614 -0.9728  2.2306
 5798TIP3    H238886   4.680   2.319  12.442 -0.8507  0.4207 -0.0559
 5799TIP3   OH238887   5.778   0.218  11.626  0.4402  0.0945  0.3507
 5799TIP3    H138888   5.759   0.126  11.643 -2.8300  0.9780  1.7818
 5799TIP3    H238889   5.802   0.220  11.533 -0.1812 -2.0799  0.1149
 5800TIP3   OH238890   0.885   1.643   3.335 -0.2838 -0.3302  0.0393
 5800TIP3    H138891   0.980   1.658   3.338 -0.4011  0.2677  1.0134
 5800TIP3    H238892   0.875   1.565   3.280  0.9090 -1.4332  1.3211
 5801TIP3   OH238893   6.347   4.995  12.605  0.6102  0.6470  0.7679
 5801TIP3    H138894   6.298   4.914  12.621 -0.5707  1.2333  0.1716
 5801TIP3    H238895   6.301   5.061  12.658 -0.0724  1.4795 -0.8360
 5802TIP3   OH238896   6.074   3.733  17.000  0.7267 -0.1922 -0.4140
 5802TIP3    H138897   5.983   3.702  17.005  1.1258 -1.3766 -0.2927
 5802TIP3    H238898   6.123   3.670  17.053  1.8553 -0.5201 -1.8147
 5803TIP3   OH238899   4.162   0.786   4.144  0.3154 -0.7195 -0.8379
 5803TIP3    H138900   4.107   0.744   4.077 -0.0364 -1.2811 -0.1966
 5803TIP3    H238901   4.194   0.714   4.197  1.6962 -0.3983 -1.2101
 5804TIP3   OH238902   4.342   3.818  16.006 -0.0038  0.3553  0.7460
 5804TIP3    H138903   4.285   3.745  16.028  0.0512 -0.0265 -0.3342
 5804TIP3    H238904   4.322   3.886  16.070 -2.0436  0.4249  0.0555
 5805TIP3   OH238905   2.644   6.150   1.780 -0.0595  0.0112 -0.1865
 5805TIP3    H138906   2.596   6.081   1.826  0.7503  0.1064  0.8419
 5805TIP3    H238907   2.635   6.227   1.837  0.7916  0.1877 -0.2822
 5806TIP3   OH238908   2.222   5.612   1.942 -0.1385 -0.1158  0.1393
 5806TIP3    H138909   2.264   5.638   2.024 -2.2249  1.5482  0.7141
 5806TIP3    H238910   2.203   5.519   1.954 -1.7474  0.4330  2.1884
 5807TIP3   OH238911   3.075   1.250  12.658 -0.3692  0.4332  0.0332
 5807TIP3    H138912   3.124   1.191  12.602  1.5138  1.2520  0.7696
 5807TIP3    H238913   2.990   1.260  12.615  0.3729 -0.4284 -1.6544
 5808TIP3   OH238914   3.344   5.698  16.867  0.1870  0.0991 -0.5093
 5808TIP3    H138915   3.433   5.706  16.834  0.2386 -1.4006 -0.7806
 5808TIP3    H238916   3.288   5.704  16.790  0.1644 -0.8312 -0.5720
 5809TIP3   OH238917   6.767   6.339  11.527 -0.4562  0.5177 -0.3414
 5809TIP3    H138918   6.855   6.325  11.492 -0.0686  0.9827  0.4109
 5809TIP3    H238919   6.775   6.420  11.579 -1.3596  0.6366 -0.3865
 5810TIP3   OH238920   4.782   1.894   1.823  0.4404  0.5522 -0.4886
 5810TIP3    H138921   4.838   1.900   1.900 -1.5524  0.4042  1.0089
 5810TIP3    H238922   4.694   1.912   1.855 -0.4116  0.6671 -2.7685
 5811TIP3   OH238923   0.940   6.637  15.419 -0.4457  0.2180 -0.2517
 5811TIP3    H138924   0.875   6.663  15.484 -0.1122  0.1984  0.0923
 5811TIP3    H238925   1.006   6.707  15.421  0.6355 -0.8216  0.9325
 5812TIP3   OH238926   0.361   4.921   0.171 -0.2673  0.3337 -0.2454
 5812TIP3    H138927   0.443   4.883   0.204 -0.5733  1.6801  2.1804
 5812TIP3    H238928   0.388   4.980   0.101  0.7838  0.2501  0.0778
 5813TIP3   OH238929   4.526   0.439   2.742  0.0059 -0.9463 -0.2732
 5813TIP3    H138930   4.532   0.478   2.829 -0.1979 -0.0205 -0.6719
 5813TIP3    H238931   4.544   0.346   2.756 -0.8502 -0.9467  0.8777
 5814TIP3   OH238932   0.959   1.741  14.647 -0.0437  0.3830  0.3407
 5814TIP3    H138933   0.967   1.832  14.675  1.1734  0.2676  0.3880
 5814TIP3    H238934   0.871   1.715  14.675  0.1479  1.0916  1.6402
 5815TIP3   OH238935   0.328   4.610   6.238 -0.1356 -0.1879  0.5328
 5815TIP3    H138936   0.332   4.560   6.319  1.2231  0.5829  0.9662
 5815TIP3    H238937   0.420   4.632   6.220 -0.5084  0.3013 -0.7949
 5816TIP3   OH238938   2.081   0.706  13.782  0.5817 -0.2526 -0.2839
 5816TIP3    H138939   2.058   0.798  13.774  1.0886 -0.0908  0.1073
 5816TIP3    H238940   2.148   0.692  13.715 -0.5476 -0.6992 -1.3518
 5817TIP3   OH238941   1.130   0.986   6.074  0.2074  0.5241 -0.7329
 5817TIP3    H138942   1.069   1.032   6.131 -0.0716 -1.5637  0.7360
 5817TIP3    H238943   1.216   1.019   6.100 -0.0862  1.2509 -0.6854
 5818TIP3   OH238944   4.959   5.576  10.486 -0.1986  0.1738 -0.0532
 5818TIP3    H138945   5.037   5.615  10.447 -0.5564  0.4502 -0.4925
 5818TIP3    H238946   4.990   5.541  10.569  0.2592  0.8604  0.0765
 5819TIP3   OH238947   1.530   6.007   2.944  0.4921 -0.0268 -0.0123
 5819TIP3    H138948   1.601   6.001   3.008  0.6141 -0.9076 -0.2188
 5819TIP3    H238949   1.542   5.930   2.889  0.0239  0.4077 -0.7221
 5820TIP3   OH238950   0.002   0.626  13.361  0.2560  0.3225 -0.4579
 5820TIP3    H138951   0.095   0.645  13.358  0.4291 -0.2258  1.0507
 5820TIP3    H238952  -0.035   0.693  13.418  0.0108 -0.4723  0.3406
 5821TIP3   OH238953   4.575   1.374  11.516  0.1605  0.0740  0.3903
 5821TIP3    H138954   4.579   1.452  11.571 -0.9789  0.4273 -0.0232
 5821TIP3    H238955   4.500   1.325  11.549 -0.2490  0.0610 -0.5581
 5822TIP3   OH238956   5.548   1.033   1.353 -0.0963  0.4109  0.2948
 5822TIP3    H138957   5.470   1.075   1.389 -0.9161 -0.3406 -0.5651
 5822TIP3    H238958   5.585   1.097   1.292  0.1103  0.8764  0.9150
 5823TIP3   OH238959   1.866   0.982  16.541 -0.0978 -0.1419  0.5744
 5823TIP3    H138960   1.818   1.065  16.536 -0.8489 -0.5319  1.2646
 5823TIP3    H238961   1.891   0.974  16.633  1.0708 -0.0732  0.2676
 5824TIP3   OH238962   5.495   4.461   3.119  0.4255  0.2582 -0.3267
 5824TIP3    H138963   5.486   4.443   3.026  1.5077 -0.1240 -0.3668
 5824TIP3    H238964   5.512   4.376   3.159 -0.3496  0.3734  0.2624
 5825TIP3   OH238965   6.094   2.869  12.802  0.3077  0.3443  0.1824
 5825TIP3    H138966   6.061   2.817  12.728  1.4921 -0.6533  0.3333
 5825TIP3    H238967   6.024   2.865  12.867  0.1427 -0.5936 -0.0419
 5826TIP3   OH238968   4.206   6.368   5.257 -0.2531 -0.5210 -0.1610
 5826TIP3    H138969   4.175   6.442   5.310 -1.5303 -2.1266  1.3591
 5826TIP3    H238970   4.132   6.347   5.200 -0.3808 -1.5245  0.3778
 5827TIP3   OH238971   5.963   2.759   0.133  0.1519  0.3276  0.3550
 5827TIP3    H138972   5.911   2.778   0.211  2.9025  0.8461  2.1422
 5827TIP3    H238973   5.959   2.839   0.081 -2.4388 -0.3338 -0.5118
 5828TIP3   OH238974   5.619   1.840   0.905 -0.2119 -0.6703 -0.2456
 5828TIP3    H138975   5.548   1.904   0.911  0.2886 -0.1611  0.3590
 5828TIP3    H238976   5.637   1.832   0.812 -1.4410 -1.2256 -0.4519
 5829TIP3   OH238977   1.816   5.799   3.434 -0.2742  0.2961 -0.2205
 5829TIP3    H138978   1.899   5.845   3.444 -0.3630  0.5002 -0.4177
 5829TIP3    H238979   1.804   5.753   3.517 -0.0518  0.4106 -0.1253
 5830TIP3   OH238980   3.773   2.322   1.093 -0.4523 -0.1057  0.2363
 5830TIP3    H138981   3.773   2.314   1.188 -0.3959  1.1189  0.3467
 5830TIP3    H238982   3.681   2.337   1.070 -0.2993  0.8747  0.2237
 5831TIP3   OH238983   0.174   0.681   2.108 -0.1639  0.0801 -0.4977
 5831TIP3    H138984   0.253   0.689   2.161 -1.0515  0.4748  0.7906
 5831TIP3    H238985   0.175   0.757   2.051 -1.1165  1.7415  1.6077
 5832TIP3   OH238986   3.766   0.021  12.541  0.0217  0.4319 -0.3507
 5832TIP3    H138987   3.771   0.092  12.604 -1.4264  0.9793 -0.8170
 5832TIP3    H238988   3.825   0.047  12.470  0.7460  0.3788  0.2287
 5833TIP3   OH238989   2.098   2.003   2.517 -0.1616 -0.5438  0.3976
 5833TIP3    H138990   2.112   2.011   2.611  0.4074  0.9611  0.1938
 5833TIP3    H238991   2.053   1.919   2.507  0.5226 -1.1246  1.9288
 5834TIP3   OH238992   3.771   5.312   2.355 -0.0707  0.4599 -0.4892
 5834TIP3    H138993   3.782   5.236   2.413 -3.1927 -0.0176 -0.4489
 5834TIP3    H238994   3.860   5.334   2.329  1.0215 -2.4603  0.4777
 5835TIP3   OH238995   4.121   5.884   0.369 -0.3512  0.2283 -0.1299
 5835TIP3    H138996   4.052   5.942   0.401 -1.5339 -0.3090 -1.6171
 5835TIP3    H238997   4.198   5.908   0.419 -1.3768  1.5384  0.8583
 5836TIP3   OH238998   3.379   0.719   5.279  0.5376 -0.4346 -0.0714
 5836TIP3    H138999   3.371   0.803   5.234 -1.9029 -0.4083  0.3562
 5836TIP3    H239000   3.435   0.666   5.222  0.3333  0.7440 -1.3949
 5837TIP3   OH239001   6.615   4.570   4.836  0.0651  0.1763 -0.2745
 5837TIP3    H139002   6.625   4.570   4.932  0.4333 -1.8491 -0.2747
 5837TIP3    H239003   6.563   4.647   4.817 -0.8686  0.0546  1.6733
 5838TIP3   OH239004   1.876   6.120   3.414  0.2802 -0.2119  0.1225
 5838TIP3    H139005   1.879   6.199   3.467  2.4360 -0.1407 -0.0807
 5838TIP3    H239006   1.795   6.076   3.441 -0.1670  1.3023  1.2944
 5839TIP3   OH239007   4.053   5.058   0.494 -0.2307 -0.5729  0.0433
 5839TIP3    H139008   4.141   5.092   0.513 -0.2620 -0.7951  0.5852
 5839TIP3    H239009   3.994   5.117   0.542 -0.3214 -0.9996  0.4633
 5840TIP3   OH239010   0.199   3.180   2.060  0.8724  0.1473 -0.6488
 5840TIP3    H139011   0.232   3.256   2.108  1.7015 -1.2183  0.9879
 5840TIP3    H239012   0.262   3.111   2.079  0.4818 -0.7918 -2.6410
 5841TIP3   OH239013   5.502   3.988   5.091  0.0944 -0.0367  0.2562
 5841TIP3    H139014   5.428   3.941   5.129 -0.0714 -0.9794 -1.1980
 5841TIP3    H239015   5.562   4.002   5.164 -0.4224 -1.4030  0.9569
 5842TIP3   OH239016   3.967   3.735   1.425  0.0881 -0.2879  0.0921
 5842TIP3    H139017   3.924   3.791   1.489 -1.6000 -0.7075 -0.6379
 5842TIP3    H239018   3.935   3.647   1.445  0.6444 -0.6081 -0.4309
 5843TIP3   OH239019   4.373   3.616  16.783 -0.7992  0.1527  0.3035
 5843TIP3    H139020   4.279   3.621  16.767 -0.8442 -0.5583  0.3090
 5843TIP3    H239021   4.380   3.585  16.874 -0.5681 -1.1487 -0.1469
 5844TIP3   OH239022   5.890   1.329   0.174 -0.6810 -0.1115 -0.4966
 5844TIP3    H139023   5.896   1.355   0.266 -1.7747 -0.7067 -0.2568
 5844TIP3    H239024   5.883   1.412   0.127 -0.6149  0.1759 -0.0138
 5845TIP3   OH239025   4.365   6.237  17.140  0.3303 -0.5328  0.2411
 5845TIP3    H139026   4.346   6.308  17.202  0.9976 -0.9654  0.9481
 5845TIP3    H239027   4.456   6.250  17.115 -0.0401 -0.1433 -0.9590
 5846TIP3   OH239028   2.486   2.268  12.171 -0.0733  0.1718 -0.1536
 5846TIP3    H139029   2.395   2.237  12.171 -0.1799  0.4773 -0.4621
 5846TIP3    H239030   2.536   2.199  12.127 -0.2346  0.2190 -0.4143
 5847TIP3   OH239031   3.664   0.959  15.627 -0.0638  0.2716 -0.1627
 5847TIP3    H139032   3.709   1.043  15.615  1.1595 -0.1674  1.2411
 5847TIP3    H239033   3.725   0.894  15.593 -0.6544 -0.1264 -0.4612
 5848TIP3   OH239034   2.041   2.131   2.097  0.0643 -0.1402  0.9044
 5848TIP3    H139035   2.000   2.218   2.093 -0.4183 -0.3456  1.3998
 5848TIP3    H239036   1.972   2.070   2.073  0.8036 -0.2814 -0.9295
 5849TIP3   OH239037   2.732   6.616   2.885 -0.3813 -0.2904  0.5136
 5849TIP3    H139038   2.664   6.675   2.854 -1.9573 -1.8334  0.9774
 5849TIP3    H239039   2.735   6.631   2.980 -1.7374 -1.9194  0.8237
 5850TIP3   OH239040   3.009   3.107  12.666  0.1896  0.3277  0.2444
 5850TIP3    H139041   3.008   3.027  12.718  1.0060 -0.6834 -1.2450
 5850TIP3    H239042   3.066   3.166  12.714  1.2730 -0.7390  0.2992
 5851TIP3   OH239043   5.674   4.687  12.733  0.2108 -0.1920  0.1711
 5851TIP3    H139044   5.585   4.674  12.765  0.0436  0.6406  0.0397
 5851TIP3    H239045   5.705   4.598  12.714  0.3556 -0.7286  2.7131
 5852TIP3   OH239046   1.936   0.691  16.103  0.2789  0.2583  0.3001
 5852TIP3    H139047   1.857   0.651  16.139  2.1304 -1.7565  2.3579
 5852TIP3    H239048   1.954   0.765  16.162 -0.0138  0.6673 -0.1195
 5853TIP3   OH239049   3.900   2.766   3.618 -0.0440  0.3345 -0.1631
 5853TIP3    H139050   3.950   2.844   3.592  0.9116 -0.2154  0.0172
 5853TIP3    H239051   3.966   2.698   3.631 -0.7055 -0.0063  1.5066
 5854TIP3   OH239052   4.378   1.078   2.902  0.4761 -0.3774  0.6233
 5854TIP3    H139053   4.408   1.155   2.853 -0.7441 -0.0930  0.3184
 5854TIP3    H239054   4.330   1.113   2.976 -1.8550 -0.8152 -0.6091
 5855TIP3   OH239055   1.905   2.024   3.162  0.0041 -0.6540 -0.0675
 5855TIP3    H139056   1.974   2.029   3.227  0.7515 -0.3515 -0.8699
 5855TIP3    H239057   1.852   1.949   3.188  0.8566 -1.1191  0.3404
 5856TIP3   OH239058   3.394   1.469   2.006 -0.2925  0.1618  0.4348
 5856TIP3    H139059   3.423   1.560   2.007 -1.3652  0.5127  0.1467
 5856TIP3    H239060   3.475   1.418   2.006  0.3177  1.1261 -0.5669
 5857TIP3   OH239061   1.987   1.725  14.369 -0.3997 -0.4856  0.2571
 5857TIP3    H139062   2.067   1.721  14.316 -0.8238 -0.5362 -0.3788
 5857TIP3    H239063   1.969   1.634  14.392 -0.5563 -0.5283 -0.0277
 5858TIP3   OH239064   6.148   0.550  12.096  0.1008  0.2347 -0.1736
 5858TIP3    H139065   6.232   0.507  12.081 -0.7889 -1.4017 -0.5535
 5858TIP3    H239066   6.154   0.632  12.047  0.2154 -1.4522 -3.1247
 5859TIP3   OH239067   1.352   1.309   6.138 -0.0558  0.1414  0.1512
 5859TIP3    H139068   1.262   1.300   6.171 -0.8524  0.1872 -1.9136
 5859TIP3    H239069   1.381   1.220   6.122 -0.1964  0.1767 -0.3251
 5860TIP3   OH239070   0.051   3.605   5.760 -0.3678 -0.2514  0.5679
 5860TIP3    H139071   0.020   3.695   5.763  0.0669  0.0089 -1.4959
 5860TIP3    H239072   0.119   3.600   5.827  0.0248  1.1456  0.2870
 5861TIP3   OH239073   4.356   2.620  10.692  0.0536  0.2655 -0.3470
 5861TIP3    H139074   4.421   2.665  10.746 -0.0668  0.4781 -0.3839
 5861TIP3    H239075   4.388   2.529  10.689  0.5623  0.4524 -0.6919
 5862TIP3   OH239076   5.329   0.542   2.092 -0.1177 -0.9609  0.5536
 5862TIP3    H139077   5.287   0.582   2.168  0.9746 -2.0503  1.7578
 5862TIP3    H239078   5.405   0.497   2.128  0.4852 -1.3905 -1.2139
 5863TIP3   OH239079   4.324   0.285  14.333  0.0715 -0.3423 -0.5559
 5863TIP3    H139080   4.370   0.235  14.400  1.0808  0.7752 -0.3958
 5863TIP3    H239081   4.233   0.288  14.363  0.6560  0.7909  1.1589
 5864TIP3   OH239082   4.439   2.705  13.074 -0.6839  0.1228  0.3274
 5864TIP3    H139083   4.472   2.760  13.146 -0.6531  0.7208 -0.1356
 5864TIP3    H239084   4.432   2.766  13.000  1.3054 -0.9386 -0.7627
 5865TIP3   OH239085   4.621   2.064   1.962 -0.1227 -0.4304 -0.3497
 5865TIP3    H139086   4.613   2.074   2.057 -0.5770  0.7262 -0.5095
 5865TIP3    H239087   4.699   2.115   1.939 -0.2884 -0.3193 -0.6630
 5866TIP3   OH239088   2.336   1.882   3.582  0.4661 -0.4081  0.0803
 5866TIP3    H139089   2.309   1.819   3.515  0.8591 -0.1817 -0.2891
 5866TIP3    H239090   2.430   1.867   3.594  0.8633  1.0803 -1.0385
 5867TIP3   OH239091   4.539   1.365   6.548 -0.0305 -0.0396 -0.2583
 5867TIP3    H139092   4.447   1.368   6.576  0.2138  0.9013  0.4617
 5867TIP3    H239093   4.535   1.356   6.453 -0.8798  1.9765 -0.4322
 5868TIP3   OH239094   4.261   0.444   2.720 -0.3836 -0.7879  0.1376
 5868TIP3    H139095   4.224   0.392   2.648 -0.8146 -0.5540  0.1928
 5868TIP3    H239096   4.355   0.425   2.717 -0.1055  0.7628 -1.7544
 5869TIP3   OH239097   5.803   2.385   4.815  0.9165 -0.6995 -0.2091
 5869TIP3    H139098   5.785   2.427   4.731  1.0356 -0.8900 -0.3263
 5869TIP3    H239099   5.873   2.323   4.798  1.2772 -0.3907  0.1300
 5870TIP3   OH239100   5.487   0.079   5.061 -0.1881 -0.0117  0.2691
 5870TIP3    H139101   5.519   0.090   5.150 -2.8171  2.5469  0.9880
 5870TIP3    H239102   5.444  -0.006   5.061  0.6802 -0.4557  1.1542
 5871TIP3   OH239103   5.889   6.534  15.046 -0.7092  0.6525  0.1291
 5871TIP3    H139104   5.797   6.513  15.061 -0.2570 -1.7897 -0.2755
 5871TIP3    H239105   5.928   6.536  15.134 -1.1780  1.9326  0.3180
 5872TIP3   OH239106   0.978   5.539  12.057  0.3966 -0.5021  0.8081
 5872TIP3    H139107   1.030   5.463  12.086  0.0574 -0.7525  0.7627
 5872TIP3    H239108   0.890   5.522  12.091 -0.1158 -1.0070 -0.6962
 5873TIP3   OH239109   2.398   6.670  11.377  0.1436 -0.1836 -0.3401
 5873TIP3    H139110   2.492   6.688  11.374 -0.2484  1.9589 -0.5128
 5873TIP3    H239111   2.380   6.624  11.296  1.3577 -2.3474  0.5647
 5874TIP3   OH239112   4.302   6.026   5.951 -0.0043 -0.2157  0.0140
 5874TIP3    H139113   4.296   6.086   5.877  3.3355 -0.3930 -0.5191
 5874TIP3    H239114   4.282   6.080   6.027 -1.8114  0.3828 -0.8739
 5875TIP3   OH239115   6.162   5.090  15.605  0.4082 -0.2361  0.5411
 5875TIP3    H139116   6.121   5.066  15.522  1.4046  0.6023 -0.2174
 5875TIP3    H239117   6.102   5.058  15.672 -1.7566  1.4156 -0.5183
 5876TIP3   OH239118   1.586   4.152  17.234  0.2114  0.2083 -0.0051
 5876TIP3    H139119   1.642   4.141  17.312 -0.2190  0.2943  0.3168
 5876TIP3    H239120   1.594   4.069  17.187 -0.2962 -0.2127  0.6324
 5877TIP3   OH239121   1.205   5.960   3.949  0.0414 -1.0814 -0.1786
 5877TIP3    H139122   1.222   6.011   4.028 -0.3333 -0.1787 -0.6695
 5877TIP3    H239123   1.256   6.004   3.881 -0.1198 -1.4866 -0.5640
 5878TIP3   OH239124   5.356   5.585   0.314  0.3839 -0.0189 -0.9346
 5878TIP3    H139125   5.277   5.532   0.323  1.0763 -0.9830 -0.3936
 5878TIP3    H239126   5.325   5.675   0.312 -0.5544 -0.2378  1.8787
 5879TIP3   OH239127   4.390   2.676  16.292  0.2711 -0.6931 -0.1102
 5879TIP3    H139128   4.367   2.768  16.295 -1.4000 -1.0079 -1.7475
 5879TIP3    H239129   4.457   2.665  16.359  0.2759  1.6337  0.3061
 5880TIP3   OH239130   5.447   4.537  14.632 -0.0037  0.0902 -0.3569
 5880TIP3    H139131   5.362   4.538  14.589 -0.3679 -0.9738  0.3041
 5880TIP3    H239132   5.435   4.587  14.713  0.1239  0.3446 -0.4959
 5881TIP3   OH239133   2.090   4.553   6.082 -0.1668  0.4062 -0.3245
 5881TIP3    H139134   2.063   4.576   6.171 -0.4030 -1.8021  0.1965
 5881TIP3    H239135   2.008   4.534   6.037  0.0146  0.7915 -0.8231
 5882TIP3   OH239136   2.754   3.876   6.511  0.5215  0.0395 -0.9758
 5882TIP3    H139137   2.815   3.816   6.553  0.0098 -0.2658 -0.6571
 5882TIP3    H239138   2.668   3.849   6.543  0.4930  2.8176  1.5117
 5883TIP3   OH239139   1.846   1.524   0.211  0.5027 -0.1318 -0.0260
 5883TIP3    H139140   1.790   1.595   0.180 -1.1416 -1.8288 -1.0674
 5883TIP3    H239141   1.879   1.554   0.296  0.9490  2.4322 -1.0674
 5884TIP3   OH239142   6.300   1.375  14.345 -0.4849 -0.2828  0.2167
 5884TIP3    H139143   6.270   1.443  14.405  1.3196 -0.0555  0.9095
 5884TIP3    H239144   6.280   1.292  14.389 -1.3968 -0.1651  0.0167
 5885TIP3   OH239145   5.184   2.877  12.150 -0.2389  0.1645  0.6061
 5885TIP3    H139146   5.165   2.842  12.237 -1.6198 -0.0774  0.2301
 5885TIP3    H239147   5.109   2.850  12.097  0.4782  0.5130 -0.6008
 5886TIP3   OH239148   3.955   1.902   0.255 -0.0020 -0.5595 -0.7617
 5886TIP3    H139149   3.997   1.866   0.176 -0.5938 -0.7046 -1.0149
 5886TIP3    H239150   3.935   1.992   0.233 -0.7087 -0.7717 -0.9917
 5887TIP3   OH239151   3.508   6.529  13.705  0.3867  0.4000 -0.1133
 5887TIP3    H139152   3.573   6.524  13.776  0.1883 -2.7032 -0.1059
 5887TIP3    H239153   3.559   6.550  13.627  1.1197  0.0776  0.2765
 5888TIP3   OH239154   6.563   4.197  16.669  0.1056 -0.0772  0.0357
 5888TIP3    H139155   6.491   4.189  16.731  0.4361  2.9039  0.8622
 5888TIP3    H239156   6.545   4.278  16.621  1.9159 -0.2713 -1.0347
 5889TIP3   OH239157   4.138   0.562  12.502 -0.5113  0.2031  0.3215
 5889TIP3    H139158   4.104   0.556  12.591  0.0937 -0.5146  0.5148
 5889TIP3    H239159   4.200   0.489  12.495 -1.0985 -0.1998 -0.9255
 5890TIP3   OH239160   2.057   6.305   4.521 -0.0279  0.4286  0.0937
 5890TIP3    H139161   1.985   6.363   4.497  0.9548  1.2452 -0.9705
 5890TIP3    H239162   2.029   6.218   4.492 -0.9552  0.5816  0.5162
 5891TIP3   OH239163   6.033   2.717   7.129 -0.1807 -0.2514  0.0281
 5891TIP3    H139164   6.046   2.747   7.039 -0.9457  0.4633  0.1507
 5891TIP3    H239165   6.087   2.638   7.136  0.5488  0.1597 -0.7984
 5892TIP3   OH239166   4.122   2.715  16.211  0.1993  0.2758  0.1731
 5892TIP3    H139167   4.198   2.662  16.231 -0.0151  0.3732  1.2459
 5892TIP3    H239168   4.092   2.749  16.295 -0.0378  1.5915 -0.4192
 5893TIP3   OH239169   5.738   4.038  10.713 -0.2027  0.3846  0.5995
 5893TIP3    H139170   5.781   4.009  10.794 -0.8677 -2.5896 -0.0448
 5893TIP3    H239171   5.654   3.992  10.713 -1.1391  2.0552 -0.7410
 5894TIP3   OH239172   2.051   4.989   3.762  0.1837 -0.6258 -0.4296
 5894TIP3    H139173   2.035   5.070   3.712 -0.6198  0.4553  1.5139
 5894TIP3    H239174   2.008   5.005   3.847 -1.3747 -3.7172 -0.5694
 5895TIP3   OH239175   4.216   3.229   6.593 -0.0764 -0.2715  0.1311
 5895TIP3    H139176   4.288   3.170   6.616 -0.8118 -1.5422 -0.7501
 5895TIP3    H239177   4.175   3.252   6.676  0.0949 -1.1704  0.4689
 5896TIP3   OH239178   0.214   0.063   0.295  0.1282 -0.2589  0.3094
 5896TIP3    H139179   0.203   0.131   0.362  0.1834 -1.4352  1.5464
 5896TIP3    H239180   0.294   0.086   0.250 -0.4684  1.1411 -0.0514
 5897TIP3   OH239181   2.491   4.238   0.635  0.4535 -0.2472  0.0280
 5897TIP3    H139182   2.404   4.261   0.603  0.7314  3.9595  1.9547
 5897TIP3    H239183   2.550   4.267   0.566  0.4946 -0.6185 -0.0950
 5898TIP3   OH239184   4.233   1.711   4.305 -0.3577  0.1692 -0.1385
 5898TIP3    H139185   4.231   1.742   4.395 -0.0830 -1.3242  0.3987
 5898TIP3    H239186   4.159   1.652   4.298 -1.4558  1.6562 -1.4292
 5899TIP3   OH239187   1.077   5.142   4.671  0.3611 -0.5882 -0.3278
 5899TIP3    H139188   0.990   5.149   4.631  0.1457  1.7639  0.4270
 5899TIP3    H239189   1.137   5.174   4.604  0.8293 -3.5628 -1.3647
 5900TIP3   OH239190   2.633   0.729  12.648  0.0289 -0.0319  0.2075
 5900TIP3    H139191   2.540   0.722  12.670  0.1250 -2.1220 -0.0009
 5900TIP3    H239192   2.667   0.641  12.659  1.6342  0.3607 -1.3659
 5901TIP3   OH239193   6.622   5.617   4.368 -0.3819 -0.0161 -0.1652
 5901TIP3    H139194   6.545   5.667   4.343  0.3446  0.8948 -0.5892
 5901TIP3    H239195   6.655   5.581   4.286 -1.0094 -1.3637  0.1586
 5902TIP3   OH239196   2.987   6.532  10.934  0.3507  0.2286  0.2790
 5902TIP3    H139197   3.080   6.518  10.914 -0.0994 -1.6819 -0.5943
 5902TIP3    H239198   2.956   6.445  10.960 -1.5373  0.5542 -0.8485
 5903TIP3   OH239199   2.987   3.985   2.900  0.2712  0.3330  0.3990
 5903TIP3    H139200   2.980   4.029   2.815  0.7922  0.8223  0.6041
 5903TIP3    H239201   2.898   3.959   2.921  0.3265 -1.0823 -0.9717
 5904TIP3   OH239202   1.370   1.394  13.951 -0.1140  0.5438 -0.0271
 5904TIP3    H139203   1.443   1.344  13.914 -0.4546  1.1419 -1.5421
 5904TIP3    H239204   1.299   1.382  13.889 -0.2646  2.7362 -0.3288
 5905TIP3   OH239205   0.933   0.369  13.608 -0.5650 -0.0214 -0.0614
 5905TIP3    H139206   0.889   0.296  13.653  0.7474 -1.4799 -1.0758
 5905TIP3    H239207   0.875   0.392  13.537 -2.0696  1.4679  1.6090
 5906TIP3   OH239208   0.824   3.476  15.187  0.4948 -0.2235  0.1364
 5906TIP3    H139209   0.868   3.472  15.102  1.2836 -1.5999  0.6032
 5906TIP3    H239210   0.737   3.512  15.167  0.3364 -1.3902 -1.3900
 5907TIP3   OH239211   2.735   1.322  13.568 -0.4463  0.1827  0.0108
 5907TIP3    H139212   2.749   1.317  13.663  1.5910 -1.5236 -0.3562
 5907TIP3    H239213   2.717   1.232  13.542 -0.5346  0.5744 -1.2994
 5908TIP3   OH239214   2.689   4.479   5.105 -0.7858 -0.0178  0.6104
 5908TIP3    H139215   2.727   4.550   5.157 -3.1903  1.2498  0.6911
 5908TIP3    H239216   2.669   4.411   5.169 -1.3698  0.5001  0.9788
 5909TIP3   OH239217   5.615   1.822   6.695 -0.4006  0.4165  0.3515
 5909TIP3    H139218   5.657   1.801   6.778  1.5164 -0.2287 -0.7598
 5909TIP3    H239219   5.608   1.738   6.649 -1.8702  0.6919  0.0175
 5910TIP3   OH239220   4.280   0.172  13.401  0.2991  0.7928  0.2432
 5910TIP3    H139221   4.360   0.124  13.376 -0.9157 -0.1049 -2.1004
 5910TIP3    H239222   4.290   0.189  13.494  2.0125 -1.6707  0.5464
 5911TIP3   OH239223   2.985   5.931   4.921 -0.3477 -0.3663 -0.0795
 5911TIP3    H139224   2.981   5.979   5.004 -1.0083 -0.3258 -0.1306
 5911TIP3    H239225   3.078   5.913   4.908 -0.1696  0.2560  0.3113
 5912TIP3   OH239226   4.824   2.364   4.521 -0.1516  0.1857  0.0832
 5912TIP3    H139227   4.887   2.293   4.519 -1.5134 -1.0726  0.8970
 5912TIP3    H239228   4.854   2.421   4.592  1.1073  0.6087 -0.7685
 5913TIP3   OH239229   2.368   6.013  11.389  0.8459 -0.1129 -0.8846
 5913TIP3    H139230   2.434   5.952  11.356 -0.5975 -1.2086 -1.8189
 5913TIP3    H239231   2.315   5.961  11.449 -0.4413  0.1817 -1.7402
 5914TIP3   OH239232   6.643   0.929  14.003 -0.3916 -0.3328  0.1085
 5914TIP3    H139233   6.565   0.898  13.958 -0.0513  0.4957 -1.0760
 5914TIP3    H239234   6.706   0.858  13.996  0.2227  0.3990 -2.1745
 5915TIP3   OH239235   2.228   2.573  14.793  0.4351 -0.3542  0.0804
 5915TIP3    H139236   2.265   2.486  14.809 -0.0752 -0.7586 -0.9021
 5915TIP3    H239237   2.192   2.567  14.704 -1.7690  0.1034  0.9274
 5916TIP3   OH239238   1.590   2.585  14.320  0.0548 -0.3200 -0.0116
 5916TIP3    H139239   1.512   2.544  14.284 -0.7152 -0.0496  1.3410
 5916TIP3    H239240   1.565   2.612  14.408  1.3689  0.6439  0.0816
 5917TIP3   OH239241   5.817   6.764   3.824 -0.3892  0.0024  0.2270
 5917TIP3    H139242   5.761   6.700   3.867 -0.7761 -0.0317 -0.3217
 5917TIP3    H239243   5.833   6.728   3.737 -1.2062  0.9812 -0.3498
 5918TIP3   OH239244   3.582   4.535  15.660 -0.2506  0.2216 -0.7257
 5918TIP3    H139245   3.524   4.515  15.587  0.4145 -0.9895 -0.9204
 5918TIP3    H239246   3.670   4.527  15.625  0.0900 -1.0177  0.3713
 5919TIP3   OH239247   5.013   2.495  11.481  0.2460 -0.0500  0.0331
 5919TIP3    H139248   4.931   2.485  11.434 -1.1886  0.4540  2.3234
 5919TIP3    H239249   5.022   2.590  11.493  0.5993 -0.1666  0.7192
 5920TIP3   OH239250   0.075   4.261  12.336 -0.0713 -0.2359  0.3506
 5920TIP3    H139251   0.120   4.191  12.288 -0.6901 -0.0136 -0.5482
 5920TIP3    H239252   0.062   4.330  12.272 -1.8902 -0.3799  0.5561
 5921TIP3   OH239253   2.796   3.228   1.661  0.6520 -0.1813 -0.2250
 5921TIP3    H139254   2.763   3.154   1.611 -0.0170  0.6230 -0.9877
 5921TIP3    H239255   2.742   3.302   1.634 -0.0970  0.1710  2.1035
 5922TIP3   OH239256   3.916   1.213   1.879  0.2593 -0.4795 -0.5789
 5922TIP3    H139257   3.907   1.291   1.934 -0.6094 -0.1446 -1.1759
 5922TIP3    H239258   3.841   1.158   1.904  0.9394 -1.1833 -0.0709
 5923TIP3   OH239259   0.395   2.332   4.334 -0.0773  0.0356  0.1448
 5923TIP3    H139260   0.306   2.321   4.368 -0.1031  0.9638  0.3875
 5923TIP3    H239261   0.388   2.306   4.241 -0.6675  0.4164  0.0821
 5924TIP3   OH239262   5.173   5.742   4.591  0.1434 -0.6426 -0.0833
 5924TIP3    H139263   5.260   5.751   4.629 -0.1725  0.6798  0.3672
 5924TIP3    H239264   5.164   5.819   4.534 -1.6054  0.5159  1.6817
 5925TIP3   OH239265   0.208   3.774   0.003  0.0031  0.4759  0.0088
 5925TIP3    H139266   0.167   3.688  -0.004 -2.3320  1.6461 -1.4284
 5925TIP3    H239267   0.161   3.816   0.076  0.2398  0.9967 -0.1420
 5926TIP3   OH239268   5.831   3.737  10.631 -0.3438  0.2386  0.0707
 5926TIP3    H139269   5.897   3.712  10.696  0.4838  0.0536 -0.8265
 5926TIP3    H239270   5.748   3.707  10.668  0.3583 -1.7886  0.0794
 5927TIP3   OH239271   5.158   2.740  14.938 -0.2798 -0.0602  0.5697
 5927TIP3    H139272   5.247   2.731  14.972  0.6594  0.9298 -1.5555
 5927TIP3    H239273   5.164   2.715  14.846 -1.6059  2.6419 -0.3067
 5928TIP3   OH239274   5.254   3.084   6.277 -0.5844  0.5113  0.3523
 5928TIP3    H139275   5.220   3.139   6.348  0.3230 -0.4343  1.5422
 5928TIP3    H239276   5.348   3.080   6.292 -0.4301 -0.0352 -0.6745
 5929TIP3   OH239277   1.315   1.889   2.898 -0.2714  0.7649 -0.0283
 5929TIP3    H139278   1.279   1.912   2.812  0.4145  1.6322 -0.0933
 5929TIP3    H239279   1.254   1.825   2.933 -0.0565 -0.2971 -1.5611
 5930TIP3   OH239280   1.052   2.762  13.372  0.0011  0.9653 -0.2981
 5930TIP3    H139281   0.989   2.716  13.316  0.9727 -1.0788  0.2633
 5930TIP3    H239282   1.018   2.852  13.378 -1.0081  0.7862 -2.8009
 5931TIP3   OH239283   4.990   2.396  12.754 -0.4398  0.3110  0.2973
 5931TIP3    H139284   5.080   2.379  12.781 -0.4809  1.1855  1.0013
 5931TIP3    H239285   4.942   2.318  12.782 -0.1020  0.3201  0.9128
 5932TIP3   OH239286   0.273   0.455  14.515  0.1780  0.2614  0.1665
 5932TIP3    H139287   0.350   0.415  14.474  0.1355 -0.6179  0.9231
 5932TIP3    H239288   0.261   0.538  14.468  0.4667 -0.4604 -1.2132
 5933TIP3   OH239289   3.642   3.231  12.937  0.0614  0.4843 -0.4931
 5933TIP3    H139290   3.674   3.219  12.847 -1.4159 -0.9793 -0.8387
 5933TIP3    H239291   3.575   3.164  12.948 -0.5339  1.3505  1.3513
 5934TIP3   OH239292   3.738   4.181   5.650 -0.1343 -0.0297  0.4314
 5934TIP3    H139293   3.777   4.193   5.736  0.2225  1.8973  0.0256
 5934TIP3    H239294   3.674   4.253   5.643 -1.0124 -0.8794 -0.4283
 5935TIP3   OH239295   2.118   5.847   5.812 -0.1776  0.5343 -0.1947
 5935TIP3    H139296   2.191   5.852   5.873  0.9928  0.5373 -1.5588
 5935TIP3    H239297   2.078   5.762   5.829  1.3949 -0.3475 -0.8079
 5936TIP3   OH239298   3.670   5.708   1.526 -0.6166  0.3201  0.6608
 5936TIP3    H139299   3.707   5.645   1.588 -2.0935 -0.5905  0.6409
 5936TIP3    H239300   3.716   5.691   1.444 -0.4872 -0.2197  0.8432
 5937TIP3   OH239301   3.538   5.798  10.796 -0.0664 -0.0636 -0.0866
 5937TIP3    H139302   3.514   5.877  10.844 -1.0577 -0.3114 -0.1594
 5937TIP3    H239303   3.554   5.732  10.864 -2.1053 -0.5926 -0.0953
 5938TIP3   OH239304   3.707   6.054  15.437 -0.1316  0.0528 -0.4952
 5938TIP3    H139305   3.713   6.045  15.532 -0.4722  0.0019 -0.4787
 5938TIP3    H239306   3.704   6.149  15.422 -0.7487  0.0476 -0.4144
 5939TIP3   OH239307   3.680   3.236  11.718 -0.1815  0.2420  0.2969
 5939TIP3    H139308   3.637   3.274  11.794 -0.0106  1.4477 -0.1996
 5939TIP3    H239309   3.759   3.288  11.706 -0.4183  0.3377 -0.9513
 5940TIP3   OH239310   3.775   5.903  13.529  0.0162  0.0510 -0.6246
 5940TIP3    H139311   3.815   5.985  13.500  1.8343 -0.6313 -0.0911
 5940TIP3    H239312   3.800   5.840  13.461 -1.2303 -0.1223 -0.9412
 5941TIP3   OH239313   0.306   6.234  17.096  0.4659 -0.2792  0.5899
 5941TIP3    H139314   0.280   6.197  17.011  1.0334 -1.8995  1.0913
 5941TIP3    H239315   0.270   6.323  17.095 -1.0058 -0.8455 -0.6631
 5942TIP3   OH239316   3.565   1.561  15.039  0.6400 -0.0194  0.0768
 5942TIP3    H139317   3.488   1.539  15.091  0.8040  0.6436  0.5988
 5942TIP3    H239318   3.637   1.517  15.083  0.5221 -0.9138 -0.5986
 5943TIP3   OH239319   0.235   0.479   3.635  0.2559  0.1869  0.1798
 5943TIP3    H139320   0.182   0.513   3.563 -0.2402  1.0847  0.9456
 5943TIP3    H239321   0.321   0.522   3.624  0.6719 -0.8881 -0.7755
 5944TIP3   OH239322   6.735   3.890   1.272 -0.0104 -0.8253 -0.1707
 5944TIP3    H139323   6.681   3.922   1.199 -0.8233 -1.6068  0.0771
 5944TIP3    H239324   6.825   3.899   1.241 -0.3375 -0.8232 -1.1397
 5945TIP3   OH239325   0.501   2.543  10.918 -0.1630 -0.1113 -0.2123
 5945TIP3    H139326   0.554   2.496  10.983 -0.9825 -2.8100 -1.4303
 5945TIP3    H239327   0.508   2.490  10.839 -3.4574  0.2822 -0.8336
 5946TIP3   OH239328   1.482   1.778  12.214  0.9518 -0.9744 -0.2101
 5946TIP3    H139329   1.491   1.683  12.223 -0.8384 -1.1859 -0.5464
 5946TIP3    H239330   1.552   1.814  12.268  2.4847 -2.5028 -1.1404
 5947TIP3   OH239331   0.208   6.113  14.899 -0.7560  1.0838 -0.8212
 5947TIP3    H139332   0.125   6.155  14.875 -1.8292 -0.6404 -0.2423
 5947TIP3    H239333   0.198   6.022  14.869  0.5752  0.6388  0.0353
 5948TIP3   OH239334   5.185   0.778   6.077  0.9465  0.7209  0.4978
 5948TIP3    H139335   5.164   0.868   6.101  1.6153  0.2010  3.2879
 5948TIP3    H239336   5.280   0.778   6.068  0.8939  0.4231 -0.0185
 5949TIP3   OH239337   0.499   3.333   4.495  0.2590  0.2979 -0.5437
 5949TIP3    H139338   0.534   3.248   4.522 -0.0485 -0.1105 -1.4046
 5949TIP3    H239339   0.455   3.316   4.412 -3.2392  0.4852  1.1688
 5950TIP3   OH239340   2.442   1.540   4.233 -0.2898  0.2894 -0.2513
 5950TIP3    H139341   2.356   1.536   4.191 -0.2855  1.6347 -0.4006
 5950TIP3    H239342   2.503   1.520   4.162 -0.3912  0.8273 -0.4951
 5951TIP3   OH239343   2.274   3.243  13.041  0.0502  0.3437  0.3520
 5951TIP3    H139344   2.355   3.293  13.031  0.7358 -0.3390  2.1307
 5951TIP3    H239345   2.265   3.233  13.136 -3.2076  2.1530  0.3045
 5952TIP3   OH239346   2.241   0.001   3.399 -0.3264  0.3442 -0.3084
 5952TIP3    H139347   2.320   0.056   3.401 -0.4691  0.5352  0.4308
 5952TIP3    H239348   2.233  -0.032   3.489 -1.0338  0.2382 -0.4081
 5953TIP3   OH239349   4.017   4.529  11.471  0.3162  0.2727 -0.1195
 5953TIP3    H139350   4.000   4.550  11.380 -1.1400 -1.6425 -0.3233
 5953TIP3    H239351   3.936   4.549  11.517  0.8521  0.6874  0.6501
 5954TIP3   OH239352   3.624   5.860   1.899 -0.0774  0.0475  0.2734
 5954TIP3    H139353   3.626   5.945   1.943  0.2134 -0.4693  1.2684
 5954TIP3    H239354   3.712   5.848   1.866  0.1553 -0.3190  1.0143
 5955TIP3   OH239355   3.309   1.498  10.791  0.2898  0.2403  0.2352
 5955TIP3    H139356   3.394   1.458  10.776 -0.0214 -0.6261  0.6929
 5955TIP3    H239357   3.252   1.424  10.816 -0.6832  0.7447 -0.4411
 5956TIP3   OH239358   6.749   3.002   5.210  0.5655 -0.6446  0.3711
 5956TIP3    H139359   6.771   3.056   5.134  1.8463 -1.3084  0.2539
 5956TIP3    H239360   6.768   3.057   5.286  0.0535 -0.2640  0.2242
 5957TIP3   OH239361   0.242   1.697  13.049  0.9581 -0.5592  0.3676
 5957TIP3    H139362   0.258   1.766  13.113  1.4525  1.2329 -1.6548
 5957TIP3    H239363   0.183   1.736  12.985  0.7801 -2.2117 -0.5066
 5958TIP3   OH239364   5.921   0.602   4.381 -0.5004 -0.0767  0.5745
 5958TIP3    H139365   5.982   0.540   4.342  1.4645  1.4016  1.2085
 5958TIP3    H239366   5.935   0.594   4.476 -0.2460  1.2879  0.6685
 5959TIP3   OH239367   4.191   3.174   2.744  0.1174 -0.2213  0.0901
 5959TIP3    H139368   4.176   3.258   2.787 -0.3608 -0.1853 -0.1391
 5959TIP3    H239369   4.257   3.131   2.798  0.5011  0.3783  0.1019
 5960TIP3   OH239370   2.475   4.601   3.406  0.1002  0.5550  0.1663
 5960TIP3    H139371   2.427   4.523   3.376  0.2652  0.5474 -0.0841
 5960TIP3    H239372   2.553   4.566   3.448 -0.3077  0.5553  0.9219
 5961TIP3   OH239373   0.204   3.428  13.479 -0.0025 -0.5277  0.4583
 5961TIP3    H139374   0.118   3.442  13.520 -0.7010  0.1637 -1.2005
 5961TIP3    H239375   0.257   3.390  13.549 -1.7887 -1.4215  1.3873
 5962TIP3   OH239376   0.003   4.388  13.603 -0.0843 -0.1308 -0.2057
 5962TIP3    H139377  -0.015   4.451  13.534 -1.5045 -0.3785 -0.0816
 5962TIP3    H239378  -0.083   4.368  13.640  0.2311 -2.9436 -0.9441
 5963TIP3   OH239379   0.197   3.586  16.640 -0.6550 -0.1001  0.3564
 5963TIP3    H139380   0.172   3.585  16.548 -1.4307 -0.2489  0.5660
 5963TIP3    H239381   0.118   3.558  16.687 -0.1075 -0.5409  1.0232
 5964TIP3   OH239382   2.174   6.683   4.389  0.0152  0.2732  0.4192
 5964TIP3    H139383   2.167   6.739   4.466 -3.0190  0.3738  0.1382
 5964TIP3    H239384   2.100   6.622   4.398 -0.0074 -0.1049 -2.0738
 5965TIP3   OH239385   5.736   0.573  13.307  0.4027  0.1700  0.1087
 5965TIP3    H139386   5.712   0.511  13.239 -0.7097  0.3091  0.3723
 5965TIP3    H239387   5.745   0.519  13.386  0.0070  0.2622  0.2154
 5966TIP3   OH239388   3.285   1.771   2.326 -0.3561  0.4698 -0.2035
 5966TIP3    H139389   3.259   1.760   2.418 -0.2793 -1.6117 -0.4072
 5966TIP3    H239390   3.269   1.685   2.286  1.2347  0.8669 -1.7463
 5967TIP3   OH239391   6.653   5.467   4.909 -0.5075 -0.1416  0.2474
 5967TIP3    H139392   6.613   5.479   4.822 -0.3644 -0.3370  0.1553
 5967TIP3    H239393   6.746   5.484   4.895 -0.5391  0.2135  0.4437
 5968TIP3   OH239394   2.078   4.864  13.607 -0.6474  0.0836  0.2377
 5968TIP3    H139395   2.014   4.931  13.582  1.2578  1.9328  0.2610
 5968TIP3    H239396   2.026   4.784  13.615 -2.7491  1.2851 -0.9981
 5969TIP3   OH239397   2.257   1.439   1.400  0.7131 -0.3589  0.0924
 5969TIP3    H139398   2.213   1.523   1.394 -0.1187 -0.7527  0.6450
 5969TIP3    H239399   2.228   1.390   1.323  1.3257 -0.0909 -0.3181
 5970TIP3   OH239400   4.797   5.229   3.450 -0.2370  0.4965 -0.7372
 5970TIP3    H139401   4.817   5.287   3.524 -1.1515  0.2707 -0.3048
 5970TIP3    H239402   4.876   5.230   3.397 -0.8558  3.5204 -1.6704
 5971TIP3   OH239403   6.319   0.661   4.723 -0.2614 -0.3885 -0.3075
 5971TIP3    H139404   6.323   0.755   4.707  0.7310 -0.4402 -0.4403
 5971TIP3    H239405   6.296   0.623   4.639  1.2157 -0.3909 -0.7314
 5972TIP3   OH239406   0.570   5.195  11.785 -0.1330  0.4976 -0.1207
 5972TIP3    H139407   0.530   5.192  11.698 -1.7538  1.4746  0.5760
 5972TIP3    H239408   0.512   5.141  11.840 -2.0236  3.9689  1.4661
 5973TIP3   OH239409   2.997   0.744  12.639  0.5079 -0.0748  0.1170
 5973TIP3    H139410   2.975   0.695  12.718  0.8247 -0.6081 -0.1240
 5973TIP3    H239411   2.976   0.684  12.567 -0.6259  0.7417 -0.2345
 5974TIP3   OH239412   6.407   1.371   6.629 -0.0880  0.4412 -0.4409
 5974TIP3    H139413   6.465   1.401   6.559  0.3269  1.0653  0.1671
 5974TIP3    H239414   6.429   1.426   6.704 -0.0579 -0.6752  0.3832
 5975TIP3   OH239415   3.961   6.038   3.978  0.0313 -0.1677  0.5322
 5975TIP3    H139416   4.045   6.061   3.938  1.7502 -0.3678  3.8822
 5975TIP3    H239417   3.905   6.114   3.961  0.2231 -0.8293 -3.4099
 5976TIP3   OH239418   1.879   2.054  15.666 -0.4322 -0.1539 -0.3043
 5976TIP3    H139419   1.946   2.102  15.714 -0.7051 -1.0472  0.9987
 5976TIP3    H239420   1.840   2.120  15.607  0.8802  0.6017 -0.3505
 5977TIP3   OH239421   3.623   4.782   4.941  0.6471  0.4717  0.9498
 5977TIP3    H139422   3.530   4.767   4.925  0.5530 -0.8709  2.6560
 5977TIP3    H239423   3.668   4.722   4.881  0.3539 -1.0270  2.1889
 5978TIP3   OH239424   2.915   1.388  17.219 -0.3595 -0.9815  0.2670
 5978TIP3    H139425   2.929   1.479  17.246 -0.3010 -0.4046 -1.6615
 5978TIP3    H239426   2.976   1.338  17.274  1.9600  0.4915 -0.8404
 5979TIP3   OH239427   0.808   5.263  13.899 -0.2839  0.3828 -0.3954
 5979TIP3    H139428   0.890   5.297  13.861  0.8310  0.1270  1.6985
 5979TIP3    H239429   0.827   5.171  13.916 -2.1814 -0.5377 -2.9864
 5980TIP3   OH239430   5.362   1.083   2.528 -0.1652  0.3902 -0.2729
 5980TIP3    H139431   5.334   1.033   2.605 -1.6170 -1.2741 -1.8290
 5980TIP3    H239432   5.435   1.031   2.492 -0.0166  0.7448 -0.4786
 5981TIP3   OH239433   5.589   3.217   1.555  0.6662 -0.2547  0.3059
 5981TIP3    H139434   5.535   3.289   1.588 -0.5557 -0.7712 -0.5499
 5981TIP3    H239435   5.585   3.150   1.623  1.8899  0.4959  1.1521
 5982TIP3   OH239436   0.050   4.722  13.597  0.2703 -0.1903  0.2276
 5982TIP3    H139437   0.033   4.686  13.510 -0.0524  0.4572  0.0145
 5982TIP3    H239438  -0.035   4.716  13.642  0.1126  0.6306  0.0606
 5983TIP3   OH239439   2.536   1.314   3.984  0.1030  0.3850  0.5134
 5983TIP3    H139440   2.506   1.300   3.894 -0.1353 -0.8819  0.7815
 5983TIP3    H239441   2.582   1.398   3.981  2.1931 -0.7602 -1.3423
 5984TIP3   OH239442   4.953   3.240  16.055  0.0011  0.1838  0.5126
 5984TIP3    H139443   5.020   3.186  16.098  1.7395  0.2990 -1.9120
 5984TIP3    H239444   4.949   3.206  15.966 -4.2853 -0.7566  0.9751
 5985TIP3   OH239445   3.716   5.751  10.526  0.0022  0.1063 -0.1292
 5985TIP3    H139446   3.749   5.676  10.477 -1.2069 -0.4534 -0.0987
 5985TIP3    H239447   3.621   5.737  10.532 -0.1437  1.2596  0.5056
 5986TIP3   OH239448   0.594   6.603  12.704  0.1517 -0.3834 -0.7779
 5986TIP3    H139449   0.676   6.590  12.752 -0.2862 -2.0691 -0.4575
 5986TIP3    H239450   0.526   6.606  12.771 -0.2366 -0.6543 -1.1605
 5987TIP3   OH239451   4.027   3.383   5.227 -0.0623 -0.0513 -0.1620
 5987TIP3    H139452   3.976   3.412   5.302  1.5790  0.2997  0.8251
 5987TIP3    H239453   4.014   3.452   5.161 -0.7718  0.0864  0.1179
 5988TIP3   OH239454   1.810   5.442   1.442 -0.3756  0.2667 -0.2592
 5988TIP3    H139455   1.899   5.459   1.471 -0.0868 -1.9519  0.2679
 5988TIP3    H239456   1.807   5.347   1.428 -2.8245  0.2101  0.3615
 5989TIP3   OH239457   3.391   4.660  16.024 -0.2168 -0.0297  0.2825
 5989TIP3    H139458   3.304   4.622  16.010 -0.0906  0.2888 -1.5305
 5989TIP3    H239459   3.380   4.753  16.003  0.1780  0.3540  1.7212
 5990TIP3   OH239460   1.852   3.635   0.517 -0.0003  0.3127  0.1346
 5990TIP3    H139461   1.894   3.564   0.470 -0.5071  0.4647 -0.5608
 5990TIP3    H239462   1.770   3.597   0.549  0.4662  0.1305  1.1404
 5991TIP3   OH239463   2.751   4.799   5.569  0.6052 -0.1090 -0.2195
 5991TIP3    H139464   2.826   4.811   5.626  0.3733 -1.5692  0.4171
 5991TIP3    H239465   2.728   4.887   5.539  2.1119  0.4118  0.1563
 5992TIP3   OH239466   2.720   5.880  16.186 -0.1380 -1.0622 -0.5252
 5992TIP3    H139467   2.718   5.965  16.230  0.5618 -1.0826 -0.4477
 5992TIP3    H239468   2.667   5.824  16.243  0.1036 -0.8882 -0.1187
 5993TIP3   OH239469   3.740   0.803  16.147 -0.5447  0.1909 -0.2460
 5993TIP3    H139470   3.666   0.863  16.143 -1.0975 -0.3209  1.6876
 5993TIP3    H239471   3.703   0.722  16.182  0.7492 -0.3704 -0.1497
 5994TIP3   OH239472   4.138   1.602  16.695 -0.5485 -0.3506  0.2075
 5994TIP3    H139473   4.212   1.663  16.700 -0.7159 -0.1176 -0.1621
 5994TIP3    H239474   4.153   1.541  16.768 -0.5368  0.3001  0.7562
 5995TIP3   OH239475   6.118   3.503  14.668 -0.4708  0.3832  0.0704
 5995TIP3    H139476   6.035   3.549  14.657 -0.6258  0.0943 -0.0003
 5995TIP3    H239477   6.150   3.530  14.754  0.1820  1.7754 -0.5930
 5996TIP3   OH239478   1.708   1.204   2.561  0.5120  0.4310 -0.3774
 5996TIP3    H139479   1.766   1.281   2.556 -0.6426  1.3126 -0.3922
 5996TIP3    H239480   1.639   1.231   2.622  0.3512 -0.7812 -0.0135
 5997TIP3   OH239481   6.075   4.144   2.654 -0.2937  0.1228 -0.6366
 5997TIP3    H139482   6.095   4.080   2.723 -3.1919  0.3288  0.4674
 5997TIP3    H239483   6.105   4.102   2.573  2.1176 -0.6079  0.5974
 5998TIP3   OH239484   0.128   0.086  11.755 -0.2256 -0.1530 -0.2726
 5998TIP3    H139485   0.038   0.090  11.723 -0.7387 -1.0259  0.9994
 5998TIP3    H239486   0.147   0.175  11.786 -0.8433 -0.0998 -0.0468
 5999TIP3   OH239487   3.474   0.212   4.991 -0.3075  0.2014 -0.0374
 5999TIP3    H139488   3.426   0.258   4.923 -0.8813 -0.4437 -0.0761
 5999TIP3    H239489   3.424   0.132   5.006  0.7335 -0.4661 -0.0534
 6000TIP3   OH239490   1.388   6.386  14.636 -0.2260  0.0207  0.4044
 6000TIP3    H139491   1.407   6.303  14.679 -1.3701  0.0806  1.0568
 6000TIP3    H239492   1.352   6.361  14.551  1.3787 -0.1088 -0.2451
 6001TIP3   OH239493   4.743   4.243   0.481  0.2840  0.5953 -0.2181
 6001TIP3    H139494   4.685   4.208   0.413 -0.0567  0.9350 -0.1039
 6001TIP3    H239495   4.819   4.185   0.480 -0.0537  0.1597 -0.3774
 6002TIP3   OH239496   1.907   6.490  12.093 -0.1254 -0.7018 -0.0505
 6002TIP3    H139497   1.941   6.566  12.047 -0.8582 -1.7277 -2.3529
 6002TIP3    H239498   1.813   6.490  12.076 -0.4747 -0.9015  1.7666
 6003TIP3   OH239499   0.531   0.348  12.724 -0.4895  0.3203  0.3976
 6003TIP3    H139500   0.550   0.408  12.796  2.1517 -1.2630  1.0636
 6003TIP3    H239501   0.543   0.261  12.761  0.3325 -0.5334 -1.7848
 6004TIP3   OH239502   3.276   2.800   2.011 -0.2910  0.1388  0.4285
 6004TIP3    H139503   3.293   2.894   2.003 -1.3836  0.3584  0.6318
 6004TIP3    H239504   3.345   2.758   1.960  0.5402  1.0319  0.8159
 6005TIP3   OH239505   5.456   0.070  14.619 -0.3574 -0.5127 -0.0378
 6005TIP3    H139506   5.417   0.092  14.704  1.5802  1.7141  0.3241
 6005TIP3    H239507   5.550   0.070  14.635 -0.0768 -4.3887 -1.2346
 6006TIP3   OH239508   3.476   5.763  13.268  0.1624 -0.1184 -0.0526
 6006TIP3    H139509   3.508   5.752  13.178  2.0424  0.0496  0.5697
 6006TIP3    H239510   3.515   5.690  13.316 -3.7477 -2.3552 -0.0624
 6007TIP3   OH239511   2.291   2.385  13.258  0.1987 -0.1547  0.3344
 6007TIP3    H139512   2.321   2.432  13.335  1.1159 -0.0658 -0.0736
 6007TIP3    H239513   2.317   2.440  13.184  1.1213 -1.2073 -0.1388
 6008TIP3   OH239514   3.662   6.789  13.087 -1.0653 -0.2901 -0.3403
 6008TIP3    H139515   3.596   6.821  13.148 -0.7850  0.5178 -0.4592
 6008TIP3    H239516   3.632   6.819  13.001 -0.0962  0.8171 -0.2951
 6009TIP3   OH239517   4.834   5.782   2.422 -0.0133 -0.3113 -0.5584
 6009TIP3    H139518   4.815   5.729   2.499  0.7411  0.5250  0.2080
 6009TIP3    H239519   4.878   5.722   2.362  0.2655 -0.7108  0.0472
 6010TIP3   OH239520   0.776   0.736  13.277 -0.4143 -0.6146  0.2599
 6010TIP3    H139521   0.744   0.706  13.191  0.1086  1.7926 -0.8054
 6010TIP3    H239522   0.863   0.772  13.259 -1.1316  1.7690  1.4348
 6011TIP3   OH239523   5.150   0.608  13.247  0.2391 -0.3284 -0.9081
 6011TIP3    H139524   5.145   0.513  13.238  1.4092 -0.2532 -2.5642
 6011TIP3    H239525   5.243   0.628  13.244 -0.0079  0.9034 -0.7888
 6012TIP3   OH239526   5.397   0.428  15.209  0.6271  0.2252  0.1691
 6012TIP3    H139527   5.301   0.430  15.215  0.7294  2.3993  2.3363
 6012TIP3    H239528   5.424   0.375  15.284  1.1592  1.6941  1.0393
 6013TIP3   OH239529   4.552   1.023   0.230 -0.2571  0.2018 -0.1897
 6013TIP3    H139530   4.495   1.096   0.206 -0.3502  0.6798  1.4459
 6013TIP3    H239531   4.502   0.945   0.205 -0.4452  0.6779 -1.3245
 6014TIP3   OH239532   2.265   0.162  16.606  0.0989 -0.4089 -0.0112
 6014TIP3    H139533   2.233   0.098  16.543 -0.8057 -0.3191  0.3430
 6014TIP3    H239534   2.277   0.242  16.554 -2.8217  0.3209  0.3026
 6015TIP3   OH239535   1.276   0.202   2.181  0.4562 -0.1586  0.4234
 6015TIP3    H139536   1.253   0.130   2.122  1.6177  0.1724 -0.4314
 6015TIP3    H239537   1.203   0.206   2.243 -0.6319 -0.6853 -0.8138
 6016TIP3   OH239538   2.265   0.899  16.321  0.3595 -0.7712  0.4497
 6016TIP3    H139539   2.355   0.868  16.334  0.2341 -0.8961  1.0609
 6016TIP3    H239540   2.264   0.987  16.357  0.9265  0.2977 -2.0419
 6017TIP3   OH239541   6.366   2.648  13.912 -0.3365 -0.2244 -0.2142
 6017TIP3    H139542   6.295   2.676  13.855 -1.6420 -0.4168  1.3015
 6017TIP3    H239543   6.421   2.725  13.922 -0.1446 -0.1615 -1.6408
 6018TIP3   OH239544   0.203   4.582  15.815  0.5361  0.0732  0.3297
 6018TIP3    H139545   0.234   4.610  15.901 -0.8797 -0.6388  1.1021
 6018TIP3    H239546   0.263   4.512  15.790  0.3213 -0.4624  1.2518
 6019TIP3   OH239547   0.411   0.395  11.754 -0.3683  0.4004  0.4320
 6019TIP3    H139548   0.357   0.469  11.782 -0.2416  1.1345 -1.2430
 6019TIP3    H239549   0.500   0.430  11.749 -0.3920  0.2963 -0.8926
 6020TIP3   OH239550   1.126   4.043  14.124 -0.0203  0.1582 -0.0438
 6020TIP3    H139551   1.068   4.076  14.192  0.3711 -0.3357  0.5378
 6020TIP3    H239552   1.103   4.093  14.046 -2.7536 -1.5367 -0.3720
 6021TIP3   OH239553   0.194   1.432   6.052  0.4300  0.3680  0.4788
 6021TIP3    H139554   0.279   1.409   6.090  0.6986  0.2685 -0.1816
 6021TIP3    H239555   0.178   1.364   5.986 -1.3826 -1.1248  2.3855
 6022TIP3   OH239556   2.487   0.787   4.425  0.2091 -0.0008  0.7393
 6022TIP3    H139557   2.507   0.694   4.432 -0.1011 -0.0170  1.4293
 6022TIP3    H239558   2.573   0.830   4.432  0.3792 -0.2473  0.1522
 6023TIP3   OH239559   5.883   1.905   3.188 -0.0129  0.0094  0.2495
 6023TIP3    H139560   5.789   1.915   3.202  0.3315 -0.2087  3.0104
 6023TIP3    H239561   5.923   1.934   3.270  2.3739  0.7007 -1.1179
 6024TIP3   OH239562   4.187   3.811  16.526  0.5529  0.1813  0.4021
 6024TIP3    H139563   4.162   3.762  16.605  0.2421  0.2740  0.3624
 6024TIP3    H239564   4.139   3.769  16.455 -0.6517  1.2813  0.5411
 6025TIP3   OH239565   5.849   4.511   3.152 -0.6507 -0.0659  0.3060
 6025TIP3    H139566   5.853   4.526   3.058 -0.0075 -0.8352  0.2110
 6025TIP3    H239567   5.856   4.416   3.162  1.1821  0.1578  1.2340
 6026TIP3   OH239568   2.873   0.430   4.982  0.2483 -0.2931  0.6549
 6026TIP3    H139569   2.955   0.470   4.956 -0.5901  0.4021 -1.0123
 6026TIP3    H239570   2.843   0.482   5.057 -0.0054  1.1877 -0.4499
 6027TIP3   OH239571   2.568   5.231   5.345 -0.5223 -0.6095 -0.1259
 6027TIP3    H139572   2.495   5.263   5.398 -0.2012  0.7499 -0.4782
 6027TIP3    H239573   2.597   5.308   5.295  1.5455 -0.9713  0.4766
 6028TIP3   OH239574   2.691   3.709   0.169 -0.5225  0.4902  0.2312
 6028TIP3    H139575   2.709   3.618   0.193 -4.1707 -0.3123  0.2031
 6028TIP3    H239576   2.685   3.708   0.074  1.1462  1.1421  0.1015
 6029TIP3   OH239577   2.064   5.877  14.688  0.1054  0.3449  0.5831
 6029TIP3    H139578   2.106   5.883  14.603 -1.3252 -0.8062 -0.2183
 6029TIP3    H239579   2.027   5.965  14.703  1.6524  0.9882  0.7293
 6030TIP3   OH239580   3.280   5.855   3.313  0.2912  0.5076 -0.5619
 6030TIP3    H139581   3.275   5.776   3.367  1.9607 -0.0613 -1.1964
 6030TIP3    H239582   3.322   5.921   3.369  3.3388 -0.4935 -1.5439
 6031TIP3   OH239583   2.428   3.771   2.484 -0.2857 -0.1671 -0.2267
 6031TIP3    H139584   2.341   3.811   2.480 -0.4430 -0.5415 -0.6259
 6031TIP3    H239585   2.429   3.725   2.567 -1.6832 -2.8828 -1.6403
 6032TIP3   OH239586   3.480   1.738   1.960  0.4139 -0.3401 -0.3408
 6032TIP3    H139587   3.496   1.747   1.866 -0.3552  1.1700 -0.3439
 6032TIP3    H239588   3.562   1.766   2.001 -0.1538  1.6918 -0.5153
 6033TIP3   OH239589   2.920   0.437   1.620  0.1287 -0.4989 -0.3711
 6033TIP3    H139590   2.871   0.484   1.553  1.3466  0.2900 -0.7241
 6033TIP3    H239591   3.006   0.421   1.580  0.6340 -0.6192  0.7471
 6034TIP3   OH239592   6.041   5.159  13.076 -0.5970 -0.0122  0.0651
 6034TIP3    H139593   6.056   5.172  13.169 -1.0396  1.2204 -0.0335
 6034TIP3    H239594   6.058   5.244  13.036 -1.0232 -0.3730 -0.9062
 6035TIP3   OH239595   0.079   3.815   0.751  0.2328  0.3072 -0.7804
 6035TIP3    H139596   0.157   3.821   0.806  0.5387 -1.0601 -1.0404
 6035TIP3    H239597   0.072   3.721   0.730 -1.1293  0.5069 -1.2526
 6036TIP3   OH239598   3.750   4.318   1.917 -0.0942  1.2910  0.1808
 6036TIP3    H139599   3.683   4.307   1.985  0.9218 -0.3939  0.9198
 6036TIP3    H239600   3.829   4.343   1.965  0.8204 -0.6282 -0.2805
 6037TIP3   OH239601   1.625   2.923   2.797 -0.2880 -0.2765  0.1761
 6037TIP3    H139602   1.691   2.870   2.752 -0.8353 -1.4666  0.7567
 6037TIP3    H239603   1.578   2.968   2.726  1.6978  1.2642 -0.1971
 6038TIP3   OH239604   0.137   4.357  14.937  0.3368 -0.5017 -0.0605
 6038TIP3    H139605   0.228   4.386  14.933  0.3269 -0.2212  1.3626
 6038TIP3    H239606   0.123   4.336  15.029 -0.2199 -3.2751 -0.7344
 6039TIP3   OH239607   3.046   4.926   0.210 -0.1860 -0.0074 -0.3854
 6039TIP3    H139608   3.099   5.003   0.192  1.3540 -0.8545  0.3800
 6039TIP3    H239609   2.958   4.950   0.183  0.2036  2.1387  0.1695
 6040TIP3   OH239610   2.455   5.576   1.764 -0.0415  0.7018  0.3012
 6040TIP3    H139611   2.393   5.596   1.834 -1.0244  1.5331 -0.8053
 6040TIP3    H239612   2.410   5.601   1.684  1.9518  1.8779 -0.4820
 6041TIP3   OH239613   0.447   2.784   2.535  0.0122  0.0942  0.0579
 6041TIP3    H139614   0.510   2.852   2.559 -1.0806  1.8007 -1.6379
 6041TIP3    H239615   0.388   2.778   2.610  0.8350  0.1705  0.7112
 6042TIP3   OH239616   2.869   1.127   3.124  0.5882 -0.5456  0.3282
 6042TIP3    H139617   2.849   1.050   3.070 -0.1659  1.1812 -1.9189
 6042TIP3    H239618   2.853   1.097   3.214  2.5150 -3.6760 -0.2650
 6043TIP3   OH239619   2.942   6.395   2.478 -0.7510  0.4986  0.5818
 6043TIP3    H139620   3.030   6.368   2.503 -1.1910 -1.9072 -0.2648
 6043TIP3    H239621   2.930   6.480   2.519  2.6935  1.7821 -0.9170
 6044TIP3   OH239622   2.350   4.647   6.172  0.1828  0.3319  0.1171
 6044TIP3    H139623   2.377   4.625   6.261 -0.6974 -0.9496  0.0870
 6044TIP3    H239624   2.264   4.607   6.163 -0.4316  1.8077 -0.7836
 6045TIP3   OH239625   6.034   5.276  11.736 -0.7857  0.0176  0.4587
 6045TIP3    H139626   5.959   5.218  11.723  0.7638 -1.6490 -1.4240
 6045TIP3    H239627   6.055   5.269  11.829 -2.0393 -0.6449  0.6936
 6046TIP3   OH239628   2.511   0.234   0.573  0.2123  0.4811 -0.2293
 6046TIP3    H139629   2.575   0.222   0.503  0.7774  0.4979  0.2815
 6046TIP3    H239630   2.520   0.326   0.598  1.5525 -0.0671  1.3536
 6047TIP3   OH239631   5.851   5.626  13.631 -0.3793 -0.0700 -0.6673
 6047TIP3    H139632   5.942   5.598  13.639 -0.6972 -1.0186 -0.2279
 6047TIP3    H239633   5.851   5.716  13.661  0.5057  0.0973 -1.1676
 6048TIP3   OH239634   2.429   6.571   5.569 -0.3786  0.0236 -0.3970
 6048TIP3    H139635   2.475   6.652   5.591 -0.6376 -0.4681  2.0714
 6048TIP3    H239636   2.461   6.548   5.482  4.1742 -0.4153  1.2727
 6049TIP3   OH239637   2.114   1.641   3.143  0.0925 -0.1419  0.1720
 6049TIP3    H139638   2.100   1.735   3.151 -0.2618 -0.3535  2.2764
 6049TIP3    H239639   2.027   1.603   3.155  0.4405 -0.7978  0.6293
 6050TIP3   OH239640   0.067   3.224  16.996  0.7943  0.4988  0.0990
 6050TIP3    H139641   0.060   3.291  17.064  0.2100  1.7471 -1.1833
 6050TIP3    H239642   0.150   3.179  17.015 -0.3547 -0.5418  2.8611
 6051TIP3   OH239643   1.367   1.207   5.403 -0.1505 -0.7633  0.8416
 6051TIP3    H139644   1.441   1.267   5.411 -1.4565  1.2822 -1.7079
 6051TIP3    H239645   1.340   1.190   5.493  2.5392 -0.4459  1.7405
 6052TIP3   OH239646   0.433   6.564   0.000 -0.2380  0.0314  0.6932
 6052TIP3    H139647   0.373   6.632  -0.029  0.4326  0.5759  0.5984
 6052TIP3    H239648   0.376   6.500   0.044 -1.2685 -0.8247 -1.8100
 6053TIP3   OH239649   0.600   2.219  11.807  0.1447  0.2678  0.8449
 6053TIP3    H139650   0.632   2.201  11.895  3.7100  0.4211 -0.3408
 6053TIP3    H239651   0.659   2.287  11.773 -0.2389 -0.8134 -2.1647
 6054TIP3   OH239652   0.146   1.519   1.144  0.2806  0.1485  0.2448
 6054TIP3    H139653   0.180   1.433   1.119 -0.1021  0.1762 -0.3684
 6054TIP3    H239654   0.103   1.552   1.065  3.5143  2.4659 -0.6724
 6055TIP3   OH239655   5.174   5.494  15.951  0.0954  0.2624 -0.0708
 6055TIP3    H139656   5.225   5.550  15.893  1.9046 -0.7152  0.5287
 6055TIP3    H239657   5.114   5.448  15.892  0.8453  0.4352 -0.9892
 6056TIP3   OH239658   3.952   2.881  13.842 -0.1546 -0.2616 -0.4012
 6056TIP3    H139659   3.986   2.942  13.777 -0.9618  0.7103  0.0763
 6056TIP3    H239660   3.874   2.924  13.877  0.1722 -0.8522  1.0812
 6057TIP3   OH239661   2.042   1.383  11.627 -0.1510 -0.3019 -0.6977
 6057TIP3    H139662   2.046   1.444  11.553  1.9521  0.0815 -0.2851
 6057TIP3    H239663   1.978   1.421  11.687  1.7848  1.9696 -0.0297
 6058TIP3   OH239664   5.601   2.940  10.902  0.3054  0.0621 -0.7047
 6058TIP3    H139665   5.682   2.890  10.892  0.7656  0.5519  0.5521
 6058TIP3    H239666   5.578   2.931  10.994  0.5818  2.4399 -0.3688
 6059TIP3   OH239667   5.568   5.859  14.765 -0.1740 -0.5383 -0.1991
 6059TIP3    H139668   5.510   5.783  14.765  0.2201 -0.8479  0.5979
 6059TIP3    H239669   5.541   5.910  14.688 -2.1309 -0.1782  0.7035
 6060TIP3   OH239670   4.642   6.666   4.839 -0.1020  0.4622 -0.0714
 6060TIP3    H139671   4.606   6.584   4.873 -1.3750  0.8858 -0.3734
 6060TIP3    H239672   4.596   6.735   4.887  0.1289  1.0122 -0.6223
 6061TIP3   OH239673   1.581   5.500   5.802  0.0586  0.3884  0.3090
 6061TIP3    H139674   1.584   5.590   5.833 -1.0061  0.7942 -0.7246
 6061TIP3    H239675   1.669   5.483   5.769  0.0625  1.3197 -0.1864
 6062TIP3   OH239676   4.018   4.473   5.328 -0.0414  0.1450  0.0637
 6062TIP3    H139677   4.091   4.446   5.272 -1.4084 -3.3126 -0.2057
 6062TIP3    H239678   3.954   4.512   5.268 -0.3800 -1.1431 -0.4364
 6063TIP3   OH239679   2.039   5.238   4.774 -0.4337 -0.5496 -0.0278
 6063TIP3    H139680   2.025   5.255   4.680  1.7230 -0.7533 -0.4045
 6063TIP3    H239681   2.021   5.145   4.784 -1.6650 -0.3237 -0.0284
 6064TIP3   OH239682   5.291   3.457   1.283  0.1342  0.3801  0.0710
 6064TIP3    H139683   5.311   3.470   1.191  1.2737  0.1924  0.2807
 6064TIP3    H239684   5.211   3.404   1.283 -1.0604  2.1511 -0.7884
 6065TIP3   OH239685   2.320   0.063   2.290  0.3472 -0.5939 -0.3031
 6065TIP3    H139686   2.273  -0.004   2.340 -0.2189 -1.7453 -2.2718
 6065TIP3    H239687   2.252   0.121   2.258  0.5772 -0.4877 -0.6030
 6066TIP3   OH239688   4.312   1.036  11.832 -0.1668  0.1212 -0.2547
 6066TIP3    H139689   4.237   1.071  11.880 -0.4355 -0.9231  0.1082
 6066TIP3    H239690   4.387   1.059  11.886 -0.0199  2.7371 -1.5034
 6067TIP3   OH239691   4.558   1.097  14.162  0.1853 -0.7832  0.4105
 6067TIP3    H139692   4.578   1.190  14.156  0.7469 -0.8798  0.7483
 6067TIP3    H239693   4.494   1.081  14.092  1.8546 -0.6174 -1.1836
 6068TIP3   OH239694   4.479   4.871  16.666 -0.5134  0.2243 -0.4412
 6068TIP3    H139695   4.509   4.821  16.742  0.4198 -0.4514 -1.2464
 6068TIP3    H239696   4.552   4.867  16.604 -1.3499  0.5884 -1.4623
 6069TIP3   OH239697   4.828   6.478   5.475 -0.5164  0.4834  0.3827
 6069TIP3    H139698   4.914   6.467   5.436 -1.0183 -0.5178 -0.4600
 6069TIP3    H239699   4.820   6.406   5.538 -1.2907 -0.2872 -0.5716
 6070TIP3   OH239700   3.163   1.592   1.067 -0.0518 -0.5938 -0.1166
 6070TIP3    H139701   3.235   1.530   1.075  0.2617  0.0916  2.8071
 6070TIP3    H239702   3.089   1.539   1.038  0.6988 -1.9815  0.4706
 6071TIP3   OH239703   6.709   3.185  12.896 -0.0021  0.1273  0.3452
 6071TIP3    H139704   6.617   3.172  12.874 -0.2445  0.9058  0.8763
 6071TIP3    H239705   6.757   3.127  12.837 -0.7957  0.2370 -0.4058
 6072TIP3   OH239706   0.690   3.334  13.988 -0.4697  0.1160  0.0988
 6072TIP3    H139707   0.776   3.293  14.001 -0.2017  0.2411 -1.2610
 6072TIP3    H239708   0.633   3.289  14.051  0.4825 -0.2912  0.6817
 6073TIP3   OH239709   0.697   5.027  13.783 -0.0659  0.4381  0.1909
 6073TIP3    H139710   0.608   5.021  13.818  0.4094  0.3673  1.4002
 6073TIP3    H239711   0.698   5.109  13.733 -0.3527  1.2713  1.5265
 6074TIP3   OH239712   0.779   0.113  14.001  0.1737 -0.1885 -0.0360
 6074TIP3    H139713   0.835   0.191  14.005 -1.4337  1.0807 -1.5826
 6074TIP3    H239714   0.761   0.100  13.908 -1.9766 -0.6354  0.3992
 6075TIP3   OH239715   4.573   1.340   3.863 -0.5218  0.4812 -0.0358
 6075TIP3    H139716   4.665   1.316   3.847 -0.9715 -0.5061 -1.1983
 6075TIP3    H239717   4.523   1.270   3.821 -1.8140  1.2588  0.2157
 6076TIP3   OH239718   5.926   4.771   4.311 -0.0924  0.0995  0.7219
 6076TIP3    H139719   5.896   4.856   4.277  1.9889  0.8130  0.5867
 6076TIP3    H239720   6.021   4.777   4.309  0.1809 -3.5263 -2.3980
 6077TIP3   OH239721   5.329   1.191  16.956 -0.2798 -0.5005 -0.9097
 6077TIP3    H139722   5.301   1.107  16.994  0.3798 -1.4715 -2.4868
 6077TIP3    H239723   5.395   1.166  16.892 -1.1912  1.0951 -2.4992
 6078TIP3   OH239724   5.279   3.720  14.360  0.1418 -0.0953  0.3985
 6078TIP3    H139725   5.277   3.699  14.267  0.2900  1.9434 -0.0838
 6078TIP3    H239726   5.187   3.732  14.384 -0.0312 -2.1935  0.9234
 6079TIP3   OH239727   6.739   2.646   4.440  0.0117 -0.1267  0.0061
 6079TIP3    H139728   6.644   2.645   4.449  0.0571  0.9300  0.7096
 6079TIP3    H239729   6.758   2.721   4.383  0.4643  0.1171  0.4673
 6080TIP3   OH239730   5.081   5.515  12.019 -0.4197 -0.3452 -0.3025
 6080TIP3    H139731   5.006   5.518  12.078 -0.8821 -0.2659 -0.8870
 6080TIP3    H239732   5.107   5.423  12.017  0.6343 -0.0858  1.3174
 6081TIP3   OH239733   3.689   1.394  13.130 -0.3044  0.0875 -0.3185
 6081TIP3    H139734   3.747   1.436  13.194 -0.9715 -2.0868  1.7573
 6081TIP3    H239735   3.644   1.326  13.179  0.4533 -2.8348 -3.4989
 6082TIP3   OH239736   3.616   4.826  12.052 -0.2906 -0.2429 -0.3297
 6082TIP3    H139737   3.620   4.762  12.123  0.0891  0.7576  0.5713
 6082TIP3    H239738   3.558   4.895  12.085  0.5197  0.6087 -0.6600
 6083TIP3   OH239739   1.292   1.305   2.496 -0.3165  0.3665  0.3223
 6083TIP3    H139740   1.309   1.218   2.459 -0.7232 -0.1068  1.2256
 6083TIP3    H239741   1.326   1.366   2.430 -0.7658 -0.4597 -0.6923
 6084TIP3   OH239742   4.123   6.297   0.993 -0.2985  0.2847 -0.2422
 6084TIP3    H139743   4.207   6.319   0.952 -1.1880  2.7007 -0.8786
 6084TIP3    H239744   4.097   6.215   0.953  0.8431  0.5109 -1.4798
 6085TIP3   OH239745   1.305   6.267  12.821 -0.4354 -0.0470  0.5115
 6085TIP3    H139746   1.270   6.204  12.884  1.7339 -1.4621  0.3373
 6085TIP3    H239747   1.368   6.217  12.769  1.5489  2.2972  0.5671
 6086TIP3   OH239748   2.608   2.861   5.681 -0.5181 -0.2605  0.7128
 6086TIP3    H139749   2.699   2.834   5.670  0.2147  1.0645  3.1988
 6086TIP3    H239750   2.561   2.780   5.699  0.1385 -0.9509 -0.5743
 6087TIP3   OH239751   4.029   2.130  13.965  0.1526 -0.4946 -0.3977
 6087TIP3    H139752   4.039   2.223  13.944 -1.3102 -0.0172  0.9657
 6087TIP3    H239753   4.041   2.125  14.059  0.9130 -1.8018 -0.5557
 6088TIP3   OH239754   6.226   0.335  15.216  0.3037 -0.0300  0.7680
 6088TIP3    H139755   6.307   0.314  15.170  0.4622 -2.2000  2.0040
 6088TIP3    H239756   6.244   0.418  15.261  1.1047  0.5879 -0.6513
 6089TIP3   OH239757   1.250   2.839  16.295 -0.3192 -0.5938 -0.2137
 6089TIP3    H139758   1.278   2.922  16.334  0.8958 -0.9906 -0.2261
 6089TIP3    H239759   1.202   2.794  16.365 -0.4150 -0.1637 -0.0053
 6090TIP3   OH239760   4.359   0.272  17.028  0.3064  0.2493  0.1843
 6090TIP3    H139761   4.386   0.362  17.044  0.8469  0.2994 -0.9321
 6090TIP3    H239762   4.330   0.272  16.936 -1.7667 -0.2155  0.8042
 6091TIP3   OH239763   3.602   4.999  16.194  0.1492 -0.4044 -0.1702
 6091TIP3    H139764   3.693   4.971  16.186  0.5750  0.4477  1.3784
 6091TIP3    H239765   3.591   5.020  16.287 -1.4918 -0.0413 -0.4176
 6092TIP3   OH239766   3.747   2.757  12.715 -0.5790 -0.1267  0.5598
 6092TIP3    H139767   3.812   2.705  12.667  1.1978  2.3584  0.1949
 6092TIP3    H239768   3.666   2.746  12.665  0.3031 -0.7462 -0.7787
 6093TIP3   OH239769   2.251   2.980  16.914 -0.2645  0.2693  0.2583
 6093TIP3    H139770   2.232   3.032  16.992 -0.6193  1.2723 -0.4932
 6093TIP3    H239771   2.346   2.972  16.914 -0.2210  0.7542  0.4776
 6094TIP3   OH239772   3.413   3.614  12.065  0.0155  0.0029  0.0098
 6094TIP3    H139773   3.344   3.561  12.105 -1.7023  1.0223 -1.5205
 6094TIP3    H239774   3.370   3.658  11.992  2.3957  0.3902 -1.2026
 6095TIP3   OH239775   5.320   1.483   0.719  0.1528 -0.4103 -0.2923
 6095TIP3    H139776   5.333   1.392   0.692 -1.5606 -0.6553 -0.2963
 6095TIP3    H239777   5.270   1.522   0.647 -0.1273  0.2273  0.2529
 6096TIP3   OH239778   3.596   5.960   1.371 -0.1721  0.0326 -0.3691
 6096TIP3    H139779   3.504   5.966   1.344 -0.1119 -0.1058 -0.6042
 6096TIP3    H239780   3.599   5.884   1.428 -0.5917  1.1713  1.2220
 6097TIP3   OH239781   2.539   5.787  14.410 -0.1919  0.5491  0.2817
 6097TIP3    H139782   2.501   5.796  14.497  1.7916  1.6544  1.0510
 6097TIP3    H239783   2.628   5.754  14.425  0.0829  0.4844 -1.3397
 6098TIP3   OH239784   3.369   0.797   5.539  0.2824  0.3728 -0.1932
 6098TIP3    H139785   3.352   0.776   5.447  0.0366 -1.0058  0.1537
 6098TIP3    H239786   3.453   0.754   5.558 -0.2568 -0.3855  0.5465
 6099TIP3   OH239787   0.994   4.404   3.805  0.1786  1.0888  0.4350
 6099TIP3    H139788   1.089   4.413   3.808  0.2922  0.1583 -0.0327
 6099TIP3    H239789   0.979   4.325   3.752 -0.8173  0.5639  1.4682
 6100TIP3   OH239790   0.826   1.706   1.728 -0.6357 -0.0147  0.1998
 6100TIP3    H139791   0.765   1.690   1.656 -0.3727  0.3320 -0.1036
 6100TIP3    H239792   0.836   1.621   1.770  0.3317 -0.5478 -1.0576
 6101TIP3   OH239793   0.057   0.902  14.767 -0.0090 -0.4164  0.2326
 6101TIP3    H139794  -0.008   0.868  14.829  0.4953 -0.2438  0.8686
 6101TIP3    H239795   0.125   0.834  14.764  0.9060  0.4163  1.3548
 6102TIP3   OH239796   2.465   5.323   1.246  0.2664 -0.2514  0.9027
 6102TIP3    H139797   2.435   5.232   1.243  1.7519 -0.7341  0.4774
 6102TIP3    H239798   2.451   5.356   1.158 -2.0466  0.5375  1.5210
 6103TIP3   OH239799   0.951   4.095  12.054  0.2054  0.5749  0.1362
 6103TIP3    H139800   1.003   4.170  12.026  1.2194 -0.6570 -1.3260
 6103TIP3    H239801   0.943   4.105  12.149  2.1558  1.3609  0.2275
 6104TIP3   OH239802   4.701   4.537  12.713 -0.6860  0.5454 -0.5235
 6104TIP3    H139803   4.695   4.528  12.808 -0.5850  0.4510 -0.5260
 6104TIP3    H239804   4.681   4.450  12.680 -1.1644  0.6873 -0.6071
 6105TIP3   OH239805   1.340   0.209  15.998  0.0410 -0.3105  0.0101
 6105TIP3    H139806   1.347   0.158  15.918  0.2536  1.9766 -1.4648
 6105TIP3    H239807   1.257   0.255  15.991  2.0694  3.4121 -1.0880
 6106TIP3   OH239808   5.577   1.259  12.959  0.1417  0.3466  0.0903
 6106TIP3    H139809   5.514   1.288  12.892 -1.9078  0.3145  1.9378
 6106TIP3    H239810   5.630   1.192  12.914 -1.2841  0.2057 -1.4604
 6107TIP3   OH239811   1.332   5.868   2.012  0.1385 -0.1070 -0.5135
 6107TIP3    H139812   1.419   5.842   2.043 -0.7311 -2.4070  0.0490
 6107TIP3    H239813   1.293   5.915   2.087  0.7782  0.6909 -0.6731
 6108TIP3   OH239814   0.392   6.329   0.301 -0.3053 -0.1694  0.2542
 6108TIP3    H139815   0.320   6.392   0.287 -0.0829  0.1500  0.5457
 6108TIP3    H239816   0.355   6.264   0.360 -1.2388 -1.4958 -1.7224
 6109TIP3   OH239817   2.566   6.791  12.699 -0.0344 -0.7254  0.5750
 6109TIP3    H139818   2.540   6.873  12.658  0.2985 -0.7475  0.3125
 6109TIP3    H239819   2.520   6.789  12.783 -0.3568 -0.4606  0.4041
 6110TIP3   OH239820   0.659   4.317  10.916 -0.5426  0.0078 -0.2627
 6110TIP3    H139821   0.651   4.259  10.840 -0.2563  0.6871 -0.8161
 6110TIP3    H239822   0.728   4.278  10.970  1.2986  1.0894 -1.7780
 6111TIP3   OH239823   2.156   2.427  13.599  0.0743 -0.1709 -0.2124
 6111TIP3    H139824   2.231   2.457  13.549  0.0833  0.6441  0.2653
 6111TIP3    H239825   2.080   2.452  13.546  0.1759 -2.5271 -1.5005
 6112TIP3   OH239826   3.800   0.170   5.667 -0.5624 -0.5506  0.2479
 6112TIP3    H139827   3.881   0.214   5.692 -0.4873 -1.2131  1.2273
 6112TIP3    H239828   3.730   0.225   5.704 -0.5974  0.2586 -0.9738
 6113TIP3   OH239829   1.691   2.713  12.524  0.6074  0.1527  0.5305
 6113TIP3    H139830   1.715   2.805  12.534  0.6970 -0.0841  2.8169
 6113TIP3    H239831   1.762   2.665  12.566  0.1248 -0.9268  0.1341
 6114TIP3   OH239832   2.662   3.425  16.596  0.7881 -0.5915  0.5943
 6114TIP3    H139833   2.720   3.360  16.636  1.2289 -0.9379 -0.5815
 6114TIP3    H239834   2.606   3.375  16.537 -0.7241 -0.2521  1.7110
 6115TIP3   OH239835   4.723   3.288  13.157  0.4529 -0.1676  0.3498
 6115TIP3    H139836   4.734   3.367  13.105  1.1563 -0.6282 -0.2161
 6115TIP3    H239837   4.669   3.231  13.103 -1.8024  0.6910  1.6115
 6116TIP3   OH239838   2.416   4.923  14.738  0.0956  0.2010  0.0441
 6116TIP3    H139839   2.372   4.890  14.660 -1.7415  1.1122  0.6790
 6116TIP3    H239840   2.506   4.891  14.730 -0.7640 -1.9969 -1.0729
 6117TIP3   OH239841   1.673   3.364   2.230 -0.4297  0.7581 -0.7248
 6117TIP3    H139842   1.596   3.398   2.276  0.5763  2.3789 -0.2013
 6117TIP3    H239843   1.741   3.357   2.297  0.3280  0.7885 -1.4760
 6118TIP3   OH239844   0.627   3.836   2.380 -0.5661  0.0956 -0.1020
 6118TIP3    H139845   0.579   3.777   2.322 -0.9664  1.6692 -1.4042
 6118TIP3    H239846   0.719   3.820   2.359 -0.7289  1.1392 -1.6812
 6119TIP3   OH239847   2.961   6.273  15.058  0.5978  0.2272  0.5546
 6119TIP3    H139848   2.926   6.339  15.118  1.1338  0.0926  1.0251
 6119TIP3    H239849   2.895   6.204  15.056 -0.7720  1.5882 -1.3168
 6120TIP3   OH239850   6.731   2.925  14.190 -0.2430  0.2776  0.6539
 6120TIP3    H139851   6.656   2.909  14.133  1.6683 -2.0860 -1.2826
 6120TIP3    H239852   6.792   2.975  14.136  1.1674 -1.1178  0.9086
 6121TIP3   OH239853   4.315   6.284  16.858  0.0847 -0.4402  0.0015
 6121TIP3    H139854   4.335   6.231  16.935 -0.3793  0.4643  0.7503
 6121TIP3    H239855   4.313   6.221  16.786 -1.9399 -1.6997  1.0978
 6122TIP3   OH239856   6.528   0.057   4.654  0.3569  0.5625  0.0803
 6122TIP3    H139857   6.450   0.111   4.639  0.6453  0.4853 -1.7872
 6122TIP3    H239858   6.514  -0.019   4.598  0.9914 -0.2562  1.0355
 6123TIP3   OH239859   3.125   2.067   0.413  0.4094 -0.0433 -0.3893
 6123TIP3    H139860   3.141   2.011   0.489  1.1727  1.7938  0.8396
 6123TIP3    H239861   3.116   2.155   0.450 -0.0290  0.7608 -2.3577
 6124TIP3   OH239862   4.010   2.278  15.374  0.1749 -0.5800 -0.0183
 6124TIP3    H139863   3.948   2.336  15.418 -2.0403 -2.3013 -0.7207
 6124TIP3    H239864   4.090   2.284  15.426 -1.1051  0.4683  1.9133
 6125TIP3   OH239865   2.860   2.378  11.996  0.1411 -0.5385 -0.5859
 6125TIP3    H139866   2.926   2.353  12.060  0.6313  0.7084 -0.6030
 6125TIP3    H239867   2.801   2.436  12.044 -0.3131 -0.7606 -0.8722
 6126TIP3   OH239868   1.846   3.318   0.660 -0.3144  0.0575 -0.3467
 6126TIP3    H139869   1.931   3.325   0.704 -0.3330 -3.2189  0.3451
 6126TIP3    H239870   1.868   3.308   0.567 -0.0499  1.2042 -0.4179
 6127TIP3   OH239871   3.718   2.638  11.774  0.0651  0.7155  0.0104
 6127TIP3    H139872   3.626   2.655  11.755  0.0571 -1.2545 -1.8344
 6127TIP3    H239873   3.727   2.659  11.867 -2.5542 -0.3624  0.5567
 6128TIP3   OH239874   0.009   4.816   5.106 -0.1957 -0.1036 -0.7272
 6128TIP3    H139875   0.014   4.882   5.037 -0.4995  0.5029 -0.1731
 6128TIP3    H239876  -0.076   4.830   5.147 -0.1598 -0.6851 -0.4415
 6129TIP3   OH239877   3.206   3.128  15.006 -0.0392  0.7801 -0.4555
 6129TIP3    H139878   3.242   3.078  14.932  1.2496 -0.1807  0.7807
 6129TIP3    H239879   3.111   3.121  14.996  0.1298 -0.5768 -1.2046
 6130TIP3   OH239880   1.282   3.296   4.709 -0.0898  0.0439  0.4212
 6130TIP3    H139881   1.239   3.374   4.744 -1.6518 -0.5465 -0.1418
 6130TIP3    H239882   1.265   3.229   4.775 -0.4674 -0.3240 -0.0554
 6131TIP3   OH239883   5.791   3.954  16.806  0.1657 -0.7202  0.0322
 6131TIP3    H139884   5.704   3.994  16.818 -0.1540 -1.1011 -0.9797
 6131TIP3    H239885   5.787   3.874  16.858 -1.3475 -2.5538 -2.7346
 6132TIP3   OH239886   3.277   3.646  14.078  0.3640  0.2133  0.6297
 6132TIP3    H139887   3.233   3.700  14.144  0.1760  1.4917 -0.5132
 6132TIP3    H239888   3.270   3.696  13.997  1.2041 -1.0094 -0.2283
 6133TIP3   OH239889   1.777   1.832   3.301  0.4122 -1.0733  0.0056
 6133TIP3    H139890   1.714   1.793   3.362 -0.5245 -0.6994 -0.7035
 6133TIP3    H239891   1.763   1.785   3.219  0.8761 -0.8069 -0.2270
 6134TIP3   OH239892   5.391   3.590   1.931  0.0804 -0.4375  0.0540
 6134TIP3    H139893   5.406   3.552   2.018 -0.9008 -1.0865 -0.0586
 6134TIP3    H239894   5.442   3.671   1.932  1.0855 -1.0604  0.7901
 6135TIP3   OH239895   4.691   3.278  11.459 -0.1322  0.4869 -0.0558
 6135TIP3    H139896   4.750   3.252  11.389 -1.3934  0.5855 -1.1753
 6135TIP3    H239897   4.649   3.196  11.487 -0.6313  0.6363 -0.3558
 6136TIP3   OH239898   3.697   1.825  13.000 -0.2980 -0.1750 -0.4178
 6136TIP3    H139899   3.759   1.875  12.947 -0.1449  0.0121 -0.0580
 6136TIP3    H239900   3.643   1.891  13.043  0.6477 -0.2848  0.9564
 6137TIP3   OH239901   1.117   1.940  14.794  0.1413  0.8899 -0.0965
 6137TIP3    H139902   1.185   1.873  14.787  0.3522  1.0437  0.5382
 6137TIP3    H239903   1.137   1.988  14.874  0.4338  2.2195 -0.9641
 6138TIP3   OH239904   6.034   5.952   2.549  0.0960  0.1187  0.2873
 6138TIP3    H139905   5.972   5.912   2.610 -1.0583  1.5613  0.0883
 6138TIP3    H239906   6.113   5.899   2.558 -0.5561 -0.6400  1.8895
 6139TIP3   OH239907   0.633   6.064   1.028 -0.0471  0.1414  0.0264
 6139TIP3    H139908   0.727   6.053   1.036  0.3112  2.1291 -1.0851
 6139TIP3    H239909   0.599   5.975   1.014  1.5202 -0.7033  1.5131
 6140TIP3   OH239910   1.063   4.413  12.483  0.5353 -0.0931  0.2415
 6140TIP3    H139911   1.052   4.487  12.541 -1.2355 -1.8952  2.3107
 6140TIP3    H239912   1.146   4.373  12.509  1.1469  0.7456 -0.4094
 6141TIP3   OH239913   4.580   5.898   4.205  0.3934  0.0090 -0.7310
 6141TIP3    H139914   4.516   5.968   4.220  1.4755  1.0485 -0.8868
 6141TIP3    H239915   4.580   5.848   4.286 -1.7252 -0.9315 -1.2702
 6142TIP3   OH239916   3.017   4.628  13.526 -0.5146 -0.7933  0.3727
 6142TIP3    H139917   3.017   4.663  13.615 -0.7805 -2.3717  1.0107
 6142TIP3    H239918   3.076   4.685  13.478  1.7391 -1.5144  2.2034
 6143TIP3   OH239919   5.527   3.633  14.367 -0.0736  0.3653  0.7634
 6143TIP3    H139920   5.508   3.540  14.354  0.4924  0.0487  2.0674
 6143TIP3    H239921   5.441   3.675  14.369 -0.3686 -0.2361  0.8497
 6144TIP3   OH239922   0.410   3.073   6.181 -0.0108 -0.1933  0.6565
 6144TIP3    H139923   0.433   3.142   6.243  1.5934  1.5804 -1.7743
 6144TIP3    H239924   0.494   3.032   6.160 -1.1167 -3.8910  3.1284
 6145TIP3   OH239925   5.120   6.120  15.071 -0.3185  0.1325  0.3736
 6145TIP3    H139926   5.038   6.165  15.052  0.4720  1.0199 -1.0269
 6145TIP3    H239927   5.177   6.189  15.104 -0.8522 -0.9113  3.6484
 6146TIP3   OH239928   0.256   6.604   5.606  0.0406  0.4218 -0.2026
 6146TIP3    H139929   0.190   6.536   5.618  1.6541 -0.8918  1.5786
 6146TIP3    H239930   0.337   6.565   5.641  1.3410  2.6617 -0.6301
 6147TIP3   OH239931   4.425   1.255  13.723 -0.1355 -0.3850  0.2359
 6147TIP3    H139932   4.513   1.282  13.748 -0.6539 -0.2239  1.9922
 6147TIP3    H239933   4.372   1.334  13.731 -0.2562 -0.2236 -1.8782
 6148TIP3   OH239934   5.010   1.433   2.691  0.1699 -0.5541  0.3685
 6148TIP3    H139935   5.055   1.361   2.647  0.6213 -0.0052 -0.0761
 6148TIP3    H239936   5.009   1.408   2.783 -0.7600 -1.7039  0.0654
 6149TIP3   OH239937   6.106   4.473   2.406  0.5038  0.2332 -0.9788
 6149TIP3    H139938   6.057   4.511   2.480  1.3695  0.8196 -0.6997
 6149TIP3    H239939   6.053   4.397   2.379  1.3157 -1.3671  1.7084
 6150TIP3   OH239940   0.401   1.651  11.271  0.1717  0.3826 -0.3758
 6150TIP3    H139941   0.439   1.714  11.332 -0.3130  0.6664 -0.3631
 6150TIP3    H239942   0.439   1.673  11.186  2.1404 -1.0634  0.0804
 6151TIP3   OH239943   5.596   3.712  12.332 -0.5692  0.3720  0.0735
 6151TIP3    H139944   5.680   3.711  12.287  0.5356 -1.3197  2.0816
 6151TIP3    H239945   5.531   3.698  12.263  0.7405  1.9214 -1.5277
 6152TIP3   OH239946   4.763   0.038   5.349 -0.2422 -0.1540 -0.0820
 6152TIP3    H139947   4.757  -0.057   5.338  1.3640 -0.3774  0.8642
 6152TIP3    H239948   4.794   0.049   5.439  0.8057  1.2418 -0.6122
 6153TIP3   OH239949   6.301   3.250  15.202 -0.7567 -0.5675 -0.3059
 6153TIP3    H139950   6.341   3.178  15.154  1.8053  0.4969  0.0964
 6153TIP3    H239951   6.319   3.328  15.149 -0.8916  0.1606  0.6805
 6154TIP3   OH239952   4.444   2.372  10.760 -0.5766 -0.1450 -0.3469
 6154TIP3    H139953   4.411   2.406  10.843 -3.4100  1.0983 -1.9195
 6154TIP3    H239954   4.380   2.305  10.734  0.9391 -1.3911 -0.9217
 6155TIP3   OH239955   5.615   3.944  13.488  0.1779  0.3623  0.5982
 6155TIP3    H139956   5.656   3.895  13.417 -2.3319 -0.1394 -0.5391
 6155TIP3    H239957   5.633   4.035  13.469  0.0738  0.1873 -0.3431
 6156TIP3   OH239958   4.078   4.427  12.001  0.2358 -0.0356 -0.2663
 6156TIP3    H139959   4.015   4.423  11.929 -1.3201 -1.7197  1.1403
 6156TIP3    H239960   4.154   4.379  11.969 -1.0044 -2.0341 -0.2571
 6157TIP3   OH239961   5.972   4.447   0.709  0.2420  0.1922  0.1166
 6157TIP3    H139962   6.011   4.383   0.768 -0.1246  0.8925  1.1289
 6157TIP3    H239963   5.883   4.459   0.740  0.1582  0.8459 -0.3472
 6158TIP3   OH239964   0.576   1.998  12.386 -0.2730  0.1140 -0.6178
 6158TIP3    H139965   0.551   2.089  12.370  0.2524 -0.1250 -2.8791
 6158TIP3    H239966   0.654   2.004  12.443 -0.5303  1.0471 -0.3563
 6159TIP3   OH239967   3.963   2.877  14.421  0.1259 -0.4985 -0.2076
 6159TIP3    H139968   3.938   2.799  14.470  1.9263 -0.9582  0.0121
 6159TIP3    H239969   3.952   2.949  14.484 -0.6914 -0.6847 -0.1402
 6160TIP3   OH239970   3.382   6.209   2.752 -0.3343  0.3701 -0.1466
 6160TIP3    H139971   3.315   6.270   2.780 -0.8013  0.0769 -0.6213
 6160TIP3    H239972   3.397   6.229   2.660  0.1456  0.3558 -0.0775
 6161TIP3   OH239973   4.627   0.478  13.503 -0.1623 -0.5133  0.2021
 6161TIP3    H139974   4.624   0.528  13.584 -0.1263  0.5141 -0.4186
 6161TIP3    H239975   4.705   0.510  13.458 -1.2837  0.3681 -1.1548
 6162TIP3   OH239976   1.934   6.811  17.266 -0.1966 -0.0726  0.0842
 6162TIP3    H139977   1.983   6.739  17.226 -0.3514 -1.0141  1.5492
 6162TIP3    H239978   1.844   6.797  17.239 -0.1930 -0.2919  0.1898
 6163TIP3   OH239979   6.685   1.709   6.566  0.0766  0.1182 -0.5530
 6163TIP3    H139980   6.775   1.739   6.555  0.2584 -0.1633  0.1642
 6163TIP3    H239981   6.661   1.738   6.654 -0.1259 -0.8727 -0.2828
 6164TIP3   OH239982   0.620   2.069  15.949  0.0522  0.0470  0.3017
 6164TIP3    H139983   0.554   2.011  15.986  0.4594 -1.2007 -0.9235
 6164TIP3    H239984   0.697   2.056  16.004 -0.0609 -0.0705  0.4324
 6165TIP3   OH239985   3.712   6.687   5.592  0.4257  0.0834  0.1356
 6165TIP3    H139986   3.642   6.667   5.653  0.0471  0.6987 -0.0974
 6165TIP3    H239987   3.749   6.601   5.569 -0.1627 -0.2273  0.3528
 6166TIP3   OH239988   6.673   3.423  14.188 -0.5436 -0.3975  0.4508
 6166TIP3    H139989   6.725   3.484  14.137 -1.1429  0.8611  1.3295
 6166TIP3    H239990   6.738   3.375  14.241 -0.2081  0.7037  1.0511
 6167TIP3   OH239991   0.929   3.802   2.378  0.1557  0.2523 -0.1687
 6167TIP3    H139992   0.922   3.894   2.406 -0.7388 -0.2827  1.4239
 6167TIP3    H239993   1.021   3.779   2.393  0.3676  0.8542 -0.5049
 6168TIP3   OH239994   5.814   4.571   4.548 -0.2551 -0.3426 -0.0205
 6168TIP3    H139995   5.835   4.499   4.488  0.0893  0.5275 -0.9680
 6168TIP3    H239996   5.884   4.635   4.534  0.6152 -0.7109  2.3352
 6169TIP3   OH239997   0.497   3.093   3.083 -0.4123  0.3558  0.0417
 6169TIP3    H139998   0.569   3.040   3.119 -0.1242  0.8588  0.2172
 6169TIP3    H239999   0.471   3.150   3.156  0.0169  1.2230 -0.4773
 6170TIP3   OH240000   6.303   6.132   0.490 -0.7186  0.0172 -0.8898
 6170TIP3    H140001   6.363   6.065   0.458  0.3660 -0.1360  1.4045
 6170TIP3    H240002   6.325   6.210   0.439 -0.2722 -0.6906 -1.8011
 6171TIP3   OH240003   6.006   1.253   0.671  0.3222  0.3669  0.1801
 6171TIP3    H140004   6.032   1.299   0.750  0.9401 -1.6820  1.2151
 6171TIP3    H240005   6.086   1.207   0.643 -0.0901  0.4691 -1.2015
 6172TIP3   OH240006   4.444   5.994  17.253  0.1497 -0.1195 -0.2178
 6172TIP3    H140007   4.424   5.946  17.334 -0.9212  0.7497  0.0453
 6172TIP3    H240008   4.379   6.064  17.251  1.5009  1.1305 -0.7532
 6173TIP3   OH240009   4.147   6.233   5.498  0.2343 -0.3884 -0.4340
 6173TIP3    H140010   4.061   6.192   5.506 -1.2227  2.9115  1.9153
 6173TIP3    H240011   4.144   6.279   5.414  0.5424 -2.0315 -1.3681
 6174TIP3   OH240012   2.607   6.279   0.765  0.8037 -0.1423 -0.7378
 6174TIP3    H140013   2.685   6.325   0.794 -0.3085  1.1389  0.2905
 6174TIP3    H240014   2.634   6.187   0.759  1.7216 -0.0951  2.0600
 6175TIP3   OH240015   4.333   1.673   0.420  0.3094 -0.2397 -0.0559
 6175TIP3    H140016   4.296   1.761   0.430  1.5073  0.3860 -0.9865
 6175TIP3    H240017   4.364   1.650   0.508  0.1004  0.3291  0.1692
 6176TIP3   OH240018   5.729   1.055   5.634  0.4862  0.1333  0.1488
 6176TIP3    H140019   5.796   1.082   5.571 -1.2784  0.3920 -1.6948
 6176TIP3    H240020   5.694   1.137   5.668  0.7029  0.0101  0.6747
 6177TIP3   OH240021   6.256   0.296  16.291 -0.0145  0.1986  0.0823
 6177TIP3    H140022   6.334   0.272  16.241 -0.2378 -1.4724  0.5026
 6177TIP3    H240023   6.203   0.347  16.229  0.8187  0.2416 -0.6129
 6178TIP3   OH240024   4.671   5.458   0.189  0.3325  0.1331 -0.4166
 6178TIP3    H140025   4.734   5.465   0.117 -0.8049  0.1434 -1.4258
 6178TIP3    H240026   4.592   5.499   0.155 -0.5157 -0.7228  0.5092
 6179TIP3   OH240027   6.700   1.625   0.280 -0.1862  0.3607  0.3883
 6179TIP3    H140028   6.730   1.699   0.332  2.2089  0.4253 -1.0238
 6179TIP3    H240029   6.660   1.664   0.202  1.4774  0.1931 -0.5701
 6180TIP3   OH240030   0.332   1.078  13.949 -0.0791 -0.4958  0.1211
 6180TIP3    H140031   0.400   1.011  13.962 -0.3437 -0.8926 -0.5213
 6180TIP3    H240032   0.252   1.036  13.980  0.0327  0.1135  1.2491
 6181TIP3   OH240033   6.286   6.679   5.458  0.1300 -0.0563 -0.2246
 6181TIP3    H140034   6.310   6.616   5.526  0.8908 -0.1949 -0.6118
 6181TIP3    H240035   6.201   6.713   5.485  0.4958 -0.0057  0.8739
 6182TIP3   OH240036   0.240   6.142  16.850  0.2418 -0.4154  0.0445
 6182TIP3    H140037   0.212   6.174  16.764 -0.0848 -0.5414  0.1043
 6182TIP3    H240038   0.331   6.115  16.836  0.4658  0.3846 -0.0400
 6183TIP3   OH240039   2.869   6.510   0.329 -0.6617  0.1550  0.0860
 6183TIP3    H140040   2.843   6.497   0.237 -0.9623  0.5888  0.1093
 6183TIP3    H240041   2.939   6.446   0.343 -1.2520 -0.5560 -0.1791
 6184TIP3   OH240042   1.161   2.618  13.070  0.5296 -0.0167  0.3452
 6184TIP3    H140043   1.202   2.532  13.078 -0.5063 -0.7404 -1.8443
 6184TIP3    H240044   1.202   2.657  12.992  0.5035  1.1994  0.9323
 6185TIP3   OH240045   2.969   1.430   5.393 -0.2558 -0.3745  0.3109
 6185TIP3    H140046   3.000   1.375   5.321  0.0451  0.2658 -0.0619
 6185TIP3    H240047   3.027   1.506   5.391 -0.6493 -0.0590  0.8312
 6186TIP3   OH240048   1.021   0.506  14.401 -0.2828  0.5524 -0.1370
 6186TIP3    H140049   1.078   0.570  14.356 -0.8540  2.1620  1.3940
 6186TIP3    H240050   1.040   0.423  14.356  0.6065  1.7358 -2.0537
 6187TIP3   OH240051   1.709   5.050   3.833  0.3090 -0.3285  0.6933
 6187TIP3    H140052   1.738   5.075   3.745  1.8824 -1.5839  0.8374
 6187TIP3    H240053   1.775   5.088   3.891  0.3851 -1.2132  1.1856
 6188TIP3   OH240054   4.382   5.685  13.943 -0.7524  0.4541  0.0712
 6188TIP3    H140055   4.355   5.774  13.966 -1.1051  0.0290  1.3544
 6188TIP3    H240056   4.470   5.676  13.980 -0.0451  0.8196 -1.4973
 6189TIP3   OH240057   4.282   2.871  10.645  0.4520 -0.1063  0.0112
 6189TIP3    H140058   4.347   2.878  10.575 -0.6901 -1.3787 -1.2216
 6189TIP3    H240059   4.287   2.779  10.673  1.1778  0.4855  1.8932
 6190TIP3   OH240060   5.469   4.289   1.924 -0.5736 -0.1508 -0.0476
 6190TIP3    H140061   5.480   4.204   1.880 -0.8761  1.0842 -2.6016
 6190TIP3    H240062   5.558   4.317   1.942 -0.2702  0.6221 -2.5220
 6191TIP3   OH240063   2.428   4.868   0.122  0.1735 -0.9584  0.2716
 6191TIP3    H140064   2.346   4.819   0.108 -0.1089 -0.0881 -1.2680
 6191TIP3    H240065   2.472   4.821   0.192 -1.4825 -1.6711  0.8728
 6192TIP3   OH240066   4.656   4.200  16.835 -0.4118  0.2772  0.3738
 6192TIP3    H140067   4.652   4.120  16.887  1.2590  1.6901  2.7322
 6192TIP3    H240068   4.584   4.254  16.868  0.2148  0.8915  0.7488
 6193TIP3   OH240069   6.007   5.567   0.580  0.1117  0.0724 -0.1260
 6193TIP3    H140070   5.988   5.647   0.530 -0.9738  1.5183  2.4785
 6193TIP3    H240071   5.962   5.580   0.663 -0.0404 -3.2784  0.3840
 6194TIP3   OH240072   5.779   3.854  14.432  0.0426  0.3968  1.0404
 6194TIP3    H140073   5.688   3.833  14.410 -0.0520 -0.0910  1.8679
 6194TIP3    H240074   5.821   3.869  14.348 -0.1560 -2.1081  0.4499
 6195TIP3   OH240075   1.923   4.566   1.682 -0.9672 -0.0998  0.9235
 6195TIP3    H140076   1.957   4.484   1.717  0.0773  0.4016  1.0958
 6195TIP3    H240077   1.830   4.550   1.669 -0.9745 -0.9587  2.0091
 6196TIP3   OH240078   2.518   0.496   5.377 -0.3113  0.0965  0.3190
 6196TIP3    H140079   2.523   0.522   5.469 -0.3436 -0.6149  0.5250
 6196TIP3    H240080   2.431   0.458   5.367 -0.5910  0.8620 -0.1918
 6197TIP3   OH240081   6.510   5.630   1.161  0.0570 -0.5102  0.2766
 6197TIP3    H140082   6.594   5.676   1.166  0.0328 -0.5203  0.7336
 6197TIP3    H240083   6.470   5.662   1.080  0.2504 -0.0745  0.3538
 6198TIP3   OH240084   6.460   6.364   4.352  0.3912 -0.5753  0.3964
 6198TIP3    H140085   6.376   6.391   4.315 -0.1149 -2.4563  0.1561
 6198TIP3    H240086   6.457   6.395   4.443  0.4066  1.3984 -0.2532
 6199TIP3   OH240087   6.345   0.055  12.872 -0.2412  0.7548 -0.2171
 6199TIP3    H140088   6.407  -0.010  12.837 -1.5152  0.1415 -1.4035
 6199TIP3    H240089   6.367   0.061  12.965  1.2307  0.1309 -0.5041
 6200TIP3   OH240090   5.100   6.145   4.384 -0.0429 -0.0180 -0.0553
 6200TIP3    H140091   5.077   6.144   4.291 -0.9078  1.6000  0.1334
 6200TIP3    H240092   5.055   6.068   4.419 -0.1936 -0.3098 -0.8619
 6201TIP3   OH240093   0.337   4.198  13.799 -0.2489 -0.4914  0.1484
 6201TIP3    H140094   0.292   4.266  13.849  1.1682  0.7366 -0.1925
 6201TIP3    H240095   0.290   4.193  13.716  0.4726  1.0933 -0.3804
 6202TIP3   OH240096   4.908   4.343  16.726 -0.0370  0.1558 -0.2370
 6202TIP3    H140097   4.842   4.282  16.758 -0.5719  0.0200 -1.5370
 6202TIP3    H240098   4.984   4.288  16.705  0.5146  0.3140  1.2819
 6203TIP3   OH240099   6.141   3.265   1.122  0.3497 -0.8709  0.3002
 6203TIP3    H140100   6.223   3.215   1.125  2.2572  2.0681 -0.2375
 6203TIP3    H240101   6.144   3.320   1.201 -1.2610 -0.9461  0.4356
 6204TIP3   OH240102   3.931   3.596   2.182  0.2853 -0.4051 -0.9873
 6204TIP3    H140103   3.932   3.518   2.236  0.1663  0.8689  0.9250
 6204TIP3    H240104   3.846   3.637   2.200  1.7396  2.0000  0.8333
 6205TIP3   OH240105   3.322   5.312  10.748 -0.0603 -0.8579  0.2333
 6205TIP3    H140106   3.388   5.249  10.775 -0.6864 -2.5139 -2.0093
 6205TIP3    H240107   3.245   5.259  10.726 -0.4797  0.6431 -2.0701
 6206TIP3   OH240108   0.795   6.523   1.884 -0.1850  0.3934 -0.8047
 6206TIP3    H140109   0.746   6.441   1.889 -0.6719  0.7720  0.6685
 6206TIP3    H240110   0.887   6.497   1.889 -0.3623 -0.0074  0.2357
 6207TIP3   OH240111   0.978   5.636  14.556 -0.7165 -0.0399  0.0992
 6207TIP3    H140112   1.032   5.585  14.616  1.1569  0.2022 -1.3544
 6207TIP3    H240113   0.965   5.579  14.480 -1.1404  0.5193 -0.2513
 6208TIP3   OH240114   5.716   4.010  12.107  0.3443  0.1113  0.3246
 6208TIP3    H140115   5.794   3.978  12.061 -0.5329 -2.6874  0.7041
 6208TIP3    H240116   5.730   3.984  12.199 -1.1691 -0.7231  0.3352
 6209TIP3   OH240117   0.842   2.245  12.371 -0.0547 -0.0327 -0.1232
 6209TIP3    H140118   0.915   2.249  12.310 -0.2472  0.3553 -0.3248
 6209TIP3    H240119   0.817   2.336  12.385 -1.0192 -0.2063 -0.6786
 6210TIP3   OH240120   2.113   2.083   3.348 -0.2234 -0.1179 -0.0815
 6210TIP3    H140121   2.080   2.083   3.438 -1.0213 -1.2007 -0.3591
 6210TIP3    H240122   2.177   2.155   3.345 -0.2228 -0.0528  1.3322
 6211TIP3   OH240123   0.852   3.742   3.189 -0.4968  0.3521 -0.0849
 6211TIP3    H140124   0.837   3.828   3.148  0.6530  1.3999  1.6124
 6211TIP3    H240125   0.765   3.711   3.213 -0.8499  1.4439  0.0738
 6212TIP3   OH240126   6.566   1.106   0.445  0.2031  0.2007  0.4085
 6212TIP3    H140127   6.645   1.060   0.414  0.1474 -0.1482  0.7739
 6212TIP3    H240128   6.493   1.052   0.412  0.1569 -0.5968  1.7852
 6213TIP3   OH240129   0.499   0.960  16.217  0.0306  0.5458  0.3150
 6213TIP3    H140130   0.514   0.876  16.261 -0.8550  0.3921  0.3266
 6213TIP3    H240131   0.583   0.981  16.177  0.2218 -0.4128  0.2011
 6214TIP3   OH240132   1.010   4.633   3.619  0.2082 -0.3066 -0.1822
 6214TIP3    H140133   1.074   4.703   3.614 -1.3748  1.2550  1.0139
 6214TIP3    H240134   1.023   4.594   3.706  1.9402 -2.3803 -1.3130
 6215TIP3   OH240135   3.756   1.015  11.508 -0.1346 -0.0492 -0.0005
 6215TIP3    H140136   3.704   0.976  11.579  0.1606  1.1320  0.8845
 6215TIP3    H240137   3.847   0.999  11.534 -0.0228  0.5606 -0.0170
 6216TIP3   OH240138   2.811   2.217  14.416  0.0172  0.3349  0.4266
 6216TIP3    H140139   2.742   2.281  14.402  1.8045  1.9924 -1.1517
 6216TIP3    H240140   2.799   2.153  14.346  0.3049  0.8341 -0.0831
 6217TIP3   OH240141   0.051   0.243  12.269 -0.1664 -0.1177 -0.1894
 6217TIP3    H140142   0.014   0.244  12.357 -1.3944 -0.7414 -0.6766
 6217TIP3    H240143   0.120   0.177  12.273  0.3515  0.4591  0.5194
 6218TIP3   OH240144   3.614   5.975   2.987 -0.2814 -1.0026 -0.4234
 6218TIP3    H140145   3.661   6.008   2.910 -2.8248  0.2234 -1.4951
 6218TIP3    H240146   3.600   6.052   3.041 -0.1396 -1.5569  0.4174
 6219TIP3   OH240147   4.555   1.592   0.719  0.1457 -0.1251  0.5411
 6219TIP3    H140148   4.469   1.559   0.745 -0.8499  1.8388 -0.1137
 6219TIP3    H240149   4.596   1.621   0.800 -1.3514  2.3466  0.4812
 6220TIP3   OH240150   5.495   3.790   0.380 -0.3843  0.3786 -0.3090
 6220TIP3    H140151   5.474   3.706   0.422  2.6519 -0.4923 -0.3851
 6220TIP3    H240152   5.457   3.784   0.293 -1.2976 -0.3910  0.1323
 6221TIP3   OH240153   1.567   5.746   2.027 -0.1219 -0.0078  0.6735
 6221TIP3    H140154   1.572   5.657   1.991 -0.9174 -0.2686  1.1985
 6221TIP3    H240155   1.618   5.799   1.966 -0.6809 -0.6098 -0.3332
 6222TIP3   OH240156   3.623   1.064   2.869 -0.3143 -0.4368 -0.3348
 6222TIP3    H140157   3.616   1.155   2.841 -0.4320 -1.2529 -3.1731
 6222TIP3    H240158   3.662   1.068   2.956 -0.2376  2.2997 -0.4520
 6223TIP3   OH240159   1.577   1.963   5.831 -0.2551 -0.2388 -0.5908
 6223TIP3    H140160   1.659   1.915   5.837 -0.6511 -0.9695 -0.8979
 6223TIP3    H240161   1.510   1.897   5.852 -0.6818  0.6517  0.9541
 6224TIP3   OH240162   1.206   1.228   3.729 -0.0370 -0.0643 -0.3015
 6224TIP3    H140163   1.221   1.315   3.692 -2.3370  0.7255  0.5562
 6224TIP3    H240164   1.137   1.241   3.794 -0.9567 -2.6722 -0.6979
 6225TIP3   OH240165   3.473   5.346   5.355  0.1156 -0.2092  0.0922
 6225TIP3    H140166   3.479   5.334   5.450  0.2837  0.2354  0.1393
 6225TIP3    H240167   3.396   5.401   5.342  0.5491  0.3934  0.0330
 6226TIP3   OH240168   0.382   4.733  16.042 -0.1657 -0.6353 -0.1971
 6226TIP3    H140169   0.433   4.652  16.041 -0.9439 -1.1550  1.0976
 6226TIP3    H240170   0.338   4.732  16.127 -0.0736  1.2178 -0.1188
 6227TIP3   OH240171   1.335   6.377   3.614 -0.0020  0.4464 -0.4364
 6227TIP3    H140172   1.397   6.305   3.611 -1.9969 -1.3948  1.1640
 6227TIP3    H240173   1.283   6.367   3.535 -0.8906 -0.4465  0.2560
 6228TIP3   OH240174   0.963   4.685  14.250  0.3591 -0.3015  0.6866
 6228TIP3    H140175   0.901   4.681  14.177  0.9850  0.5116  0.0853
 6228TIP3    H240176   1.001   4.598  14.254  1.5267  0.0841 -1.0690
 6229TIP3   OH240177   2.309   5.748   2.623 -0.2862 -0.4057  0.2366
 6229TIP3    H140178   2.284   5.788   2.706  0.0191 -1.8212  1.0201
 6229TIP3    H240179   2.375   5.683   2.646 -0.6298 -1.2287 -1.0428
 6230TIP3   OH240180   0.041   0.449   2.097  0.4409  0.6362  0.5467
 6230TIP3    H140181   0.108   0.516   2.084  0.3369  0.5515 -0.4018
 6230TIP3    H240182   0.031   0.407   2.012 -0.4715  0.3148  0.8031
 6231TIP3   OH240183   5.073   4.365  13.418  0.0864  0.2618 -0.1943
 6231TIP3    H140184   4.996   4.337  13.369  0.6342 -2.5208  0.4339
 6231TIP3    H240185   5.044   4.369  13.509  0.7447 -1.1735  0.0964
 6232TIP3   OH240186   6.279   5.247   1.887  0.5704  0.0548 -0.2147
 6232TIP3    H140187   6.322   5.173   1.844  1.0022  0.8218 -1.1332
 6232TIP3    H240188   6.229   5.208   1.959  0.9745 -1.0962 -0.5501
 6233TIP3   OH240189   3.612   0.019   3.670 -0.1179 -0.1092  0.2195
 6233TIP3    H140190   3.698   0.032   3.631 -0.4290  0.2265 -0.3612
 6233TIP3    H240191   3.550   0.035   3.598 -0.6790  0.1423  0.7506
 6234TIP3   OH240192   4.176   1.637  13.542  0.0217 -0.0272 -0.6095
 6234TIP3    H140193   4.176   1.660  13.449 -3.1589  1.5252 -0.3016
 6234TIP3    H240194   4.179   1.721  13.587 -1.4247 -0.6337  0.6586
 6235TIP3   OH240195   4.843   0.421   1.068 -0.0067  0.4510 -0.6506
 6235TIP3    H140196   4.786   0.346   1.088  0.6425  0.3345  0.8617
 6235TIP3    H240197   4.930   0.382   1.058  0.2985  0.9637 -0.0496
 6236TIP3   OH240198   2.318   4.207   3.875 -0.4698  0.3974 -0.4942
 6236TIP3    H140199   2.312   4.285   3.930 -3.4566 -0.5973  0.7234
 6236TIP3    H240200   2.270   4.229   3.795 -2.0634 -0.4258  0.2065
 6237TIP3   OH240201   5.129   1.794  16.104  0.0016 -0.3059  0.0482
 6237TIP3    H140202   5.085   1.719  16.144 -0.8962  0.4777  0.5391
 6237TIP3    H240203   5.106   1.788  16.011 -0.0419 -0.6547  0.0799
 6238TIP3   OH240204   0.489   5.128  14.319  0.0665  0.3131 -0.1270
 6238TIP3    H140205   0.559   5.073  14.355 -0.5160  0.4761  1.3264
 6238TIP3    H240206   0.525   5.216  14.320  0.6572  0.0910 -1.5481
 6239TIP3   OH240207   2.932   0.108  16.791 -0.4897 -0.6132  0.0850
 6239TIP3    H140208   2.995   0.066  16.850 -0.5149 -0.4134  0.2579
 6239TIP3    H240209   2.979   0.185  16.758 -0.1418 -1.2494 -0.8859
 6240TIP3   OH240210   3.945   4.569  15.719  0.0849  0.8328 -0.7441
 6240TIP3    H140211   4.021   4.580  15.661 -1.3165  1.4966 -2.5189
 6240TIP3    H240212   3.870   4.572  15.660 -1.3785  1.1259  1.0901
 6241TIP3   OH240213   4.488   3.089   3.773 -0.0563 -0.5156  0.3238
 6241TIP3    H140214   4.555   3.155   3.757  0.2449 -0.5387  1.3838
 6241TIP3    H240215   4.444   3.077   3.689  1.0801 -0.2853 -0.3132
 6242TIP3   OH240216   1.878   5.513  16.695 -0.3827  0.1230  0.1522
 6242TIP3    H140217   1.891   5.463  16.776  0.6062  0.3421  0.1374
 6242TIP3    H240218   1.967   5.534  16.666 -0.7087 -0.5692 -1.3681
 6243TIP3   OH240219   1.403   0.714   4.178  0.0240  0.5617  0.1644
 6243TIP3    H140220   1.458   0.682   4.107  0.2489  0.3639  0.4253
 6243TIP3    H240221   1.454   0.697   4.257 -0.7343 -0.3367  0.4774
 6244TIP3   OH240222   2.782   3.936  17.074 -0.3107 -0.2970 -0.1355
 6244TIP3    H140223   2.750   4.017  17.114 -1.6324 -0.9224  0.1060
 6244TIP3    H240224   2.764   3.946  16.981  1.9445  0.7834 -0.4784
 6245TIP3   OH240225   0.829   4.411  12.790  0.0735  0.3194  0.0615
 6245TIP3    H140226   0.739   4.382  12.807 -0.2854 -0.4040 -2.6958
 6245TIP3    H240227   0.818   4.481  12.725  1.4639  0.7270  0.2598
 6246TIP3   OH240228   1.264   2.916   2.508  0.0520  0.6856 -0.6946
 6246TIP3    H140229   1.301   2.832   2.482  1.4272  0.3141  2.2674
 6246TIP3    H240230   1.238   2.903   2.599  0.3300  3.4746 -0.1797
 6247TIP3   OH240231   0.619   0.334  14.727  0.3504 -0.0455  0.2583
 6247TIP3    H140232   0.685   0.367  14.665 -2.0637 -0.8456 -2.8436
 6247TIP3    H240233   0.635   0.240  14.731 -0.0097 -0.1085  0.2246
 6248TIP3   OH240234   6.737   1.830  15.121  0.1062 -0.6574 -0.2670
 6248TIP3    H140235   6.742   1.796  15.032 -0.0419  0.6106 -0.7811
 6248TIP3    H240236   6.685   1.910  15.113  1.0240  0.0602  0.7778
 6249TIP3   OH240237   3.010   1.159  14.913  0.2258 -0.4381  0.5112
 6249TIP3    H140238   2.978   1.069  14.918 -1.9905  0.3221  0.8631
 6249TIP3    H240239   3.042   1.168  14.823  0.5892 -1.6077  0.5174
 6250TIP3   OH240240   2.062   5.233  11.285  0.2729  0.2136  0.5223
 6250TIP3    H140241   2.060   5.321  11.324 -0.0436  0.6517 -0.4701
 6250TIP3    H240242   2.007   5.240  11.207 -0.5742 -1.1442  0.9928
 6251TIP3   OH240243   1.202   4.056  12.699 -0.2264  0.4028  0.1535
 6251TIP3    H140244   1.157   4.037  12.617  1.1150  2.2059 -1.0621
 6251TIP3    H240245   1.134   4.088  12.758 -1.0063  0.2525 -0.6625
 6252TIP3   OH240246   3.201   3.657   4.776 -0.0248  0.1960  0.4444
 6252TIP3    H140247   3.122   3.606   4.793  0.4187 -0.3969  0.7382
 6252TIP3    H240248   3.241   3.670   4.862 -0.9793  2.4587  0.5986
 6253TIP3   OH240249   0.767   2.813   1.987 -0.1116  0.1312  0.4290
 6253TIP3    H140250   0.786   2.720   2.000 -0.4205 -0.1310 -0.9189
 6253TIP3    H240251   0.796   2.855   2.068  0.0987 -1.1270  1.0177
 6254TIP3   OH240252   5.436   3.314  10.442 -0.0128  0.1237  0.5628
 6254TIP3    H140253   5.527   3.342  10.445  0.5292 -1.3896 -0.7423
 6254TIP3    H240254   5.387   3.394  10.420  1.1298  0.7084  0.0992
 6255TIP3   OH240255   0.485   1.435  15.336  0.1412  0.7302 -0.7332
 6255TIP3    H140256   0.517   1.355  15.378 -0.6597  0.0677 -1.3945
 6255TIP3    H240257   0.490   1.501  15.405  1.8639  0.3784 -0.4945
 6256TIP3   OH240258   1.724   6.285  14.703 -0.6826  0.0507  0.3109
 6256TIP3    H140259   1.727   6.372  14.742  0.5750  0.5644 -0.9040
 6256TIP3    H240260   1.667   6.294  14.627  0.2031  0.0462 -0.3612
 6257TIP3   OH240261   1.218   2.111   3.100 -0.1881 -0.1108 -0.2112
 6257TIP3    H140262   1.309   2.098   3.072 -0.8798 -2.6433 -1.4526
 6257TIP3    H240263   1.203   2.205   3.089  2.7493  0.6123  1.5441
 6258TIP3   OH240264   2.937   6.628  13.654  0.5726  0.4957 -0.7231
 6258TIP3    H140265   2.919   6.660  13.742  2.4342 -1.5628  0.4637
 6258TIP3    H240266   3.033   6.624  13.649  0.4679 -1.0476 -2.2004
 6259TIP3   OH240267   4.736   3.025   4.571 -0.1062 -0.1261 -0.1091
 6259TIP3    H140268   4.764   3.116   4.574 -3.1352  0.9231 -2.3457
 6259TIP3    H240269   4.644   3.028   4.548 -0.5020 -3.7532  0.6140
 6260TIP3   OH240270   4.963   0.122  10.609  0.7664  0.4428  0.0885
 6260TIP3    H140271   4.988   0.209  10.639 -0.8372  1.2964 -0.9520
 6260TIP3    H240272   4.970   0.127  10.514  0.0501 -0.3719 -0.0108
 6261TIP3   OH240273   2.897   5.026   3.953 -0.3487  0.5216 -0.3115
 6261TIP3    H140274   2.838   4.987   3.889 -2.1116  1.2042  0.8482
 6261TIP3    H240275   2.870   4.989   4.037 -0.2593  2.1124  0.4447
 6262TIP3   OH240276   4.568   6.621   1.752 -0.2041  0.0737 -0.3467
 6262TIP3    H140277   4.501   6.622   1.820  0.6633  0.4267  0.5120
 6262TIP3    H240278   4.614   6.538   1.765 -0.3916 -0.1100 -0.8518
 6263TIP3   OH240279   1.018   2.210  11.818  0.1582 -0.0258  0.1118
 6263TIP3    H140280   0.989   2.162  11.740  0.8263  0.7990 -0.6593
 6263TIP3    H240281   0.990   2.300  11.802 -0.9928 -0.1101  1.4964
 6264TIP3   OH240282   1.901   4.710   1.436  0.0005  0.3790  0.5469
 6264TIP3    H140283   1.927   4.672   1.520 -1.2058 -0.6497  0.4655
 6264TIP3    H240284   1.875   4.634   1.383 -0.9841  1.1862 -0.1294
 6265TIP3   OH240285   2.458   6.047   1.007 -0.0270 -0.2200 -0.1509
 6265TIP3    H140286   2.471   5.986   1.080  0.9789  2.1082  1.7190
 6265TIP3    H240287   2.545   6.083   0.991 -0.8433  1.7851 -0.2113
 6266TIP3   OH240288   3.186   0.264  12.140  0.3665 -0.1914 -0.2571
 6266TIP3    H140289   3.216   0.352  12.162  0.0536  0.1103 -1.0180
 6266TIP3    H240290   3.267   0.213  12.132  0.4753 -0.5001  2.2574
 6267TIP3   OH240291   4.611   5.486  12.672  0.3314  0.3692 -0.1239
 6267TIP3    H140292   4.521   5.453  12.672 -0.0763  1.4545 -1.1603
 6267TIP3    H240293   4.602   5.579  12.692  1.3587  0.1701  1.3057
 6268TIP3   OH240294   5.703   3.602  11.245 -0.0306 -0.0869  0.0525
 6268TIP3    H140295   5.716   3.637  11.156  0.9715  1.2130  0.6944
 6268TIP3    H240296   5.736   3.512  11.240  0.0274 -0.0237 -0.8854
 6269TIP3   OH240297   3.216   5.653   4.099  0.5545 -0.1471  0.4874
 6269TIP3    H140298   3.224   5.606   4.016 -0.2904 -0.0530  0.3526
 6269TIP3    H240299   3.162   5.729   4.079 -2.0151 -1.5757  1.6897
 6270TIP3   OH240300   1.147   2.645  14.601  0.1019 -0.0735  0.6685
 6270TIP3    H140301   1.155   2.740  14.614 -1.7012  0.5074 -2.1578
 6270TIP3    H240302   1.178   2.630  14.512  0.7098 -2.2447  1.2072
 6271TIP3   OH240303   3.254   0.287   6.102 -0.1086  0.0358  0.3636
 6271TIP3    H140304   3.165   0.321   6.115  0.1190  0.0657  1.8845
 6271TIP3    H240305   3.263   0.218   6.167 -0.0614 -2.0364 -1.7750
 6272TIP3   OH240306   2.462   0.925   3.619 -0.0895  0.5118  0.4241
 6272TIP3    H140307   2.403   0.969   3.680 -1.0096 -0.5121  0.2836
 6272TIP3    H240308   2.409   0.912   3.540  0.0623 -1.1326  0.5803
 6273TIP3   OH240309   5.375   6.764  16.680 -0.1920  0.3530  0.2487
 6273TIP3    H140310   5.424   6.766  16.597  0.1297 -0.6035  0.4193
 6273TIP3    H240311   5.315   6.691  16.670  0.6655 -0.5000  1.3375
 6274TIP3   OH240312   0.632   0.364  10.883 -0.2387 -0.2740 -0.5703
 6274TIP3    H140313   0.548   0.320  10.866  0.4742 -1.1997 -1.7909
 6274TIP3    H240314   0.673   0.371  10.797  0.2581  1.6086 -0.2008
 6275TIP3   OH240315   0.931   4.800   6.697 -0.3662  0.3176 -0.2963
 6275TIP3    H140316   0.964   4.853   6.625  2.0620  1.0025  1.2763
 6275TIP3    H240317   0.988   4.723   6.699  0.5355  1.0083  1.7820
 6276TIP3   OH240318   1.450   4.836   5.508  0.1200 -0.3688  0.4340
 6276TIP3    H140319   1.387   4.868   5.444  1.6590  0.0549 -0.9177
 6276TIP3    H240320   1.417   4.750   5.535 -0.6526 -0.4589 -0.7783
 6277TIP3   OH240321   6.652   5.531  16.104  0.2027  0.0405 -0.4109
 6277TIP3    H140322   6.599   5.467  16.150  1.0330 -0.8738 -0.6987
 6277TIP3    H240323   6.680   5.593  16.171  1.0190 -1.0153  0.2412
 6278TIP3   OH240324   4.457   3.289   1.109 -0.5458 -0.0972 -0.8776
 6278TIP3    H140325   4.450   3.346   1.032  0.5615  1.0531 -0.1431
 6278TIP3    H240326   4.542   3.312   1.148 -1.1869 -0.5290  0.7947
 6279TIP3   OH240327   3.746   4.855  14.171  0.5063 -0.9610  0.4149
 6279TIP3    H140328   3.723   4.945  14.195 -0.3126 -1.2726  0.8243
 6279TIP3    H240329   3.840   4.857  14.157  0.3286  0.2168 -0.6996
 6280TIP3   OH240330   4.125   5.224   0.990  0.4079 -0.1059  0.4540
 6280TIP3    H140331   4.192   5.197   1.053  0.0148 -0.4487  0.7304
 6280TIP3    H240332   4.066   5.280   1.040  1.8142  2.1948 -0.3771
 6281TIP3   OH240333   5.562   1.341   2.769  0.4361 -0.1947 -0.3151
 6281TIP3    H140334   5.604   1.348   2.684 -1.3241  1.3707 -1.0670
 6281TIP3    H240335   5.562   1.247   2.788 -0.3876 -0.6964 -2.6670
 6282TIP3   OH240336   4.571   5.654   1.169 -0.4237 -0.1657  0.0452
 6282TIP3    H140337   4.636   5.711   1.209 -1.7379  0.6101  1.1218
 6282TIP3    H240338   4.612   5.568   1.168  1.0477  0.5261 -0.3383
 6283TIP3   OH240339   1.371   5.310   3.730  0.2457 -0.5378 -0.0038
 6283TIP3    H140340   1.397   5.218   3.728  1.3264 -0.2115 -2.8271
 6283TIP3    H240341   1.287   5.311   3.685 -0.3635 -0.2739  1.1065
 6284TIP3   OH240342   5.096   0.347  13.194 -0.0858 -0.1507  0.2504
 6284TIP3    H140343   5.085   0.356  13.099  0.9880  2.2642  0.3221
 6284TIP3    H240344   5.186   0.315  13.205  0.5397  1.6470  0.5124
 6285TIP3   OH240345   0.376   0.326   4.914  0.7359  0.2147  0.0181
 6285TIP3    H140346   0.366   0.377   4.833  1.2612  1.3469  0.6533
 6285TIP3    H240347   0.349   0.386   4.983 -1.0197 -1.1963  0.5889
 6286TIP3   OH240348   6.059   3.679   3.897  0.0707  0.2216 -0.6063
 6286TIP3    H140349   5.988   3.615   3.894 -0.3417  0.4428  2.1579
 6286TIP3    H240350   6.131   3.639   3.849  0.3028 -2.9547  2.2168
 6287TIP3   OH240351   6.557   1.977   3.402 -0.0253 -0.1147 -0.5678
 6287TIP3    H140352   6.487   2.041   3.387  0.5119  0.5311 -0.3300
 6287TIP3    H240353   6.631   2.009   3.350  0.7496  0.2979  0.7787
 6288TIP3   OH240354   5.331   2.912  15.380  0.6241  0.1510 -0.0498
 6288TIP3    H140355   5.406   2.929  15.323  0.9995 -0.5222  0.2403
 6288TIP3    H240356   5.270   2.863  15.324 -0.3334  2.1177 -0.7951
 6289TIP3   OH240357   3.471   5.865   4.873 -0.7007 -0.0831 -0.2619
 6289TIP3    H140358   3.492   5.800   4.806  0.7638  0.4904 -0.3930
 6289TIP3    H240359   3.408   5.822   4.930  1.9493 -2.4986  0.9951
 6290TIP3   OH240360   1.433   1.688  14.864 -0.0502 -0.1793 -0.4537
 6290TIP3    H140361   1.353   1.639  14.882  0.2898 -0.8172 -0.7060
 6290TIP3    H240362   1.504   1.632  14.897  0.3975 -0.2386 -1.5207
 6291TIP3   OH240363   4.457   4.106   4.835 -0.4538 -0.0651  0.1563
 6291TIP3    H140364   4.408   4.077   4.758 -1.4237 -0.0066  0.7495
 6291TIP3    H240365   4.443   4.038   4.900  0.3697 -0.1142  0.2932
 6292TIP3   OH240366   4.012   2.094   0.889  0.1603  0.4271  0.5963
 6292TIP3    H140367   3.932   2.096   0.837 -1.6971 -1.3263  3.2291
 6292TIP3    H240368   3.990   2.140   0.970  1.6142 -0.5290  1.5777
 6293TIP3   OH240369   2.204   6.612   4.946  0.8400 -0.1735  0.6997
 6293TIP3    H140370   2.120   6.604   4.991  0.4646 -1.0276 -0.1607
 6293TIP3    H240371   2.185   6.596   4.854  2.0614 -1.0789  0.5937
 6294TIP3   OH240372   1.792   1.469  16.130  0.0141 -0.8889  0.2298
 6294TIP3    H140373   1.831   1.503  16.050 -0.1839 -1.1817  0.0050
 6294TIP3    H240374   1.803   1.374  16.123 -0.8360 -0.9861  0.1087
 6295TIP3   OH240375   4.891   5.351  12.742 -0.0035  0.3951 -0.2610
 6295TIP3    H140376   4.861   5.411  12.673 -0.2292  0.9465  0.3180
 6295TIP3    H240377   4.946   5.288  12.695 -1.2750 -0.0656 -1.1768
 6296TIP3   OH240378   2.536   5.162  11.073 -0.4467  0.2206 -0.6566
 6296TIP3    H140379   2.523   5.248  11.033 -1.5176  0.3055 -0.1371
 6296TIP3    H240380   2.448   5.130  11.090 -0.0332 -0.1684  0.8753
 6297TIP3   OH240381   5.711   3.475   3.133  0.2809  0.3618 -0.2876
 6297TIP3    H140382   5.767   3.550   3.152  0.7382 -0.0907  0.1636
 6297TIP3    H240383   5.769   3.411   3.093 -0.5533  1.0794 -2.7101
 6298TIP3   OH240384   2.622   2.726  12.852  0.7842  0.3769  0.1966
 6298TIP3    H140385   2.562   2.801  12.860  0.3860  0.0421  0.3360
 6298TIP3    H240386   2.574   2.662  12.800  2.2649  1.3750 -2.4791
 6299TIP3   OH240387   1.487   0.434  15.917  0.4099  0.0688 -0.1356
 6299TIP3    H140388   1.440   0.355  15.943 -0.4059 -0.0377 -1.8922
 6299TIP3    H240389   1.458   0.500  15.979 -0.1662 -0.6010  0.3213
 6300TIP3   OH240390   5.810   0.522  16.912  0.1173  0.0167 -0.0499
 6300TIP3    H140391   5.725   0.561  16.933  0.2500  0.6476 -0.6492
 6300TIP3    H240392   5.790   0.459  16.842 -0.1626 -1.3145  1.2095
 6301TIP3   OH240393   4.311   4.818  16.085  0.0755  0.5396  0.3238
 6301TIP3    H140394   4.353   4.784  16.165  0.7963  0.6489 -0.0044
 6301TIP3    H240395   4.232   4.863  16.117 -0.7105 -1.1273  0.8039
 6302TIP3   OH240396   0.704   3.583  12.645  0.0688  0.1582 -0.1506
 6302TIP3    H140397   0.786   3.620  12.678  0.0328 -0.6230  0.8394
 6302TIP3    H240398   0.722   3.561  12.554  0.4158  1.6147 -0.4392
 6303TIP3   OH240399   5.680   6.376   5.422  0.1881 -0.3233 -0.8231
 6303TIP3    H140400   5.608   6.342   5.476  1.6390 -1.6494  0.3114
 6303TIP3    H240401   5.752   6.389   5.483  0.3828  2.7959 -1.6298
 6304TIP3   OH240402   1.661   1.918  14.536 -0.3774 -0.8087 -0.8202
 6304TIP3    H140403   1.617   1.987  14.487 -1.3460 -0.4372  0.5651
 6304TIP3    H240404   1.595   1.885  14.597  0.9617 -0.9179  0.6002
 6305TIP3   OH240405   1.048   1.282   0.176 -0.4741 -0.3156 -0.4235
 6305TIP3    H140406   1.073   1.189   0.177 -0.8741 -0.4244 -0.3945
 6305TIP3    H240407   1.130   1.329   0.190 -0.0324 -0.6199 -1.8726
 6306TIP3   OH240408   2.614   6.782   0.622  0.3459 -0.0135  0.4576
 6306TIP3    H140409   2.678   6.781   0.550  2.6706 -0.4889  2.4718
 6306TIP3    H240410   2.569   6.866   0.612  2.1764  0.9104 -0.2480
 6307TIP3   OH240411   2.563   0.324   0.974 -0.2448 -0.0891 -0.2127
 6307TIP3    H140412   2.598   0.372   0.899  2.8077 -1.2435  0.4271
 6307TIP3    H240413   2.566   0.232   0.947  2.7022 -0.7099  1.9599
 6308TIP3   OH240414   3.416   2.882  12.399 -0.2533  0.4601 -0.5145
 6308TIP3    H140415   3.341   2.863  12.455  1.0326 -0.0138  1.0968
 6308TIP3    H240416   3.380   2.885  12.310 -1.9079 -1.2925  0.0650
 6309TIP3   OH240417   1.061   6.322   5.913  0.5937 -0.3258  0.1142
 6309TIP3    H140418   1.070   6.403   5.862  0.7554 -0.9824 -0.9238
 6309TIP3    H240419   1.062   6.350   6.004 -1.4814  1.0686 -0.2662
 6310TIP3   OH240420   6.530   4.742   6.012  0.0970  0.0675 -0.0930
 6310TIP3    H140421   6.542   4.702   5.926  0.3376  0.3014 -0.1673
 6310TIP3    H240422   6.440   4.774   6.011  0.2711  0.5537 -0.4592
 6311TIP3   OH240423   4.752   4.445  12.985 -0.4539 -0.1198  0.2793
 6311TIP3    H140424   4.669   4.492  12.993 -0.1803  0.6610 -1.1807
 6311TIP3    H240425   4.811   4.489  13.046 -0.2647  1.3321 -0.9235
 6312TIP3   OH240426   4.166   0.884  11.415  0.2056  0.7149 -0.0162
 6312TIP3    H140427   4.254   0.849  11.403 -0.8831 -2.6444  1.1061
 6312TIP3    H240428   4.161   0.903  11.509 -0.2556  0.9545 -0.0888
 6313TIP3   OH240429   2.222   6.815   5.220 -0.8220 -0.3374 -0.0048
 6313TIP3    H140430   2.260   6.729   5.205  2.9410  1.1159  0.7883
 6313TIP3    H240431   2.172   6.834   5.140  2.0620 -1.3383 -2.0921
 6314TIP3   OH240432   5.573   1.671   2.294 -0.0307 -0.0391 -0.0597
 6314TIP3    H140433   5.541   1.659   2.383  0.8435 -1.2277  0.0977
 6314TIP3    H240434   5.496   1.656   2.238 -0.4796  0.3036  0.4633
 6315TIP3   OH240435   3.280   2.181  13.252  0.0931  0.0700 -0.0059
 6315TIP3    H140436   3.189   2.188  13.281 -0.4161 -1.3648 -1.1804
 6315TIP3    H240437   3.328   2.149  13.329 -0.9943 -2.3869 -0.2849
 6316TIP3   OH240438   4.389   6.536  11.248 -0.7822  0.2089  0.2764
 6316TIP3    H140439   4.480   6.564  11.261 -0.8192  0.2678  0.4185
 6316TIP3    H240440   4.374   6.544  11.154 -1.0677  1.5268  0.4310
 6317TIP3   OH240441   1.844   6.614  16.004 -0.0139  0.2425 -0.3083
 6317TIP3    H140442   1.777   6.550  15.981 -0.3997  1.3756 -2.4726
 6317TIP3    H240443   1.795   6.684  16.049  0.2611 -0.4901  1.1715
 6318TIP3   OH240444   6.232   0.273  17.125 -0.1661 -0.3262  0.0187
 6318TIP3    H140445   6.271   0.196  17.083  1.2106  0.6311 -0.5220
 6318TIP3    H240446   6.170   0.307  17.061 -0.9374 -1.1140  0.3478
 6319TIP3   OH240447   6.174   1.587  16.532 -0.0955  0.3427  0.0965
 6319TIP3    H140448   6.096   1.562  16.483  0.9853 -0.0772 -1.4432
 6319TIP3    H240449   6.213   1.504  16.560  0.6494  0.4845 -0.5018
 6320TIP3   OH240450   6.509   1.015  11.783  0.1720 -0.2779  0.0745
 6320TIP3    H140451   6.474   0.967  11.859  1.5201 -2.2602 -0.5089
 6320TIP3    H240452   6.495   0.956  11.709 -0.3325  1.2761 -1.0810
 6321TIP3   OH240453   3.905   5.929   1.388  0.3587 -0.5872  0.4782
 6321TIP3    H140454   3.820   5.912   1.347  0.4396 -1.6240  0.7296
 6321TIP3    H240455   3.884   5.965   1.474  0.1855  0.5061 -0.0105
 6322TIP3   OH240456   4.088   2.776  13.127  0.8048 -0.1318  0.5055
 6322TIP3    H140457   4.178   2.808  13.132  0.7925  0.1033 -0.7040
 6322TIP3    H240458   4.073   2.759  13.034 -1.0149  1.6740  0.4256
 6323TIP3   OH240459   0.826   0.639  16.000  0.1993 -0.4535  0.0794
 6323TIP3    H140460   0.861   0.565  15.950  0.0155  0.3878 -1.3252
 6323TIP3    H240461   0.734   0.644  15.972  0.3303  0.5765 -0.1761
 6324TIP3   OH240462   1.135   1.991   4.309  0.6695  0.2190  0.8248
 6324TIP3    H140463   1.049   1.996   4.351  0.2064 -0.0735 -0.0823
 6324TIP3    H240464   1.147   2.076   4.267  0.0630 -0.3412 -0.5076
 6325TIP3   OH240465   5.452   3.252  14.724 -0.3258  0.1939 -0.0184
 6325TIP3    H140466   5.493   3.242  14.638 -1.7185  1.3291 -0.8437
 6325TIP3    H240467   5.358   3.244  14.707 -0.5351 -1.0762  1.6368
 6326TIP3   OH240468   1.575   1.780  12.968  0.0829  0.2723 -0.0782
 6326TIP3    H140469   1.533   1.764  13.052  1.4789  2.1610  1.0385
 6326TIP3    H240470   1.668   1.788  12.989  0.3927  1.2838 -1.7178
 6327TIP3   OH240471   4.326   4.407   6.053 -0.0917 -0.1778 -0.5927
 6327TIP3    H140472   4.352   4.493   6.018 -0.7080 -0.1062 -0.8897
 6327TIP3    H240473   4.271   4.428   6.129  0.1146 -0.3179 -0.4031
 6328TIP3   OH240474   5.307   1.838   5.802 -0.0548 -0.0360  0.3210
 6328TIP3    H140475   5.262   1.826   5.886 -0.6552 -1.4673 -0.1957
 6328TIP3    H240476   5.239   1.826   5.736  0.5249  0.5417 -0.3976
 6329TIP3   OH240477   5.365   0.685   0.963  0.9087  0.3118  0.3583
 6329TIP3    H140478   5.272   0.677   0.982  1.7004 -1.6401  3.7827
 6329TIP3    H240479   5.383   0.779   0.974 -1.0502  1.1365 -2.7483
 6330TIP3   OH240480   5.260   4.986  13.699  0.0291 -0.0077 -0.4210
 6330TIP3    H140481   5.301   4.996  13.614  1.4044 -0.6122  0.1636
 6330TIP3    H240482   5.319   5.029  13.760  0.2056 -1.5899  0.5370
 6331TIP3   OH240483   5.341   4.382  11.398 -0.2207 -0.0729  0.0678
 6331TIP3    H140484   5.349   4.450  11.331  1.4585 -0.1125  0.2135
 6331TIP3    H240485   5.312   4.429  11.477  1.0296  0.4976  0.1927
 6332TIP3   OH240486   0.878   1.683   0.861 -0.1780  0.2870  0.0253
 6332TIP3    H140487   0.839   1.715   0.942 -2.9634 -0.7906 -0.8444
 6332TIP3    H240488   0.838   1.737   0.792  1.3335  0.4447 -0.7552
 6333TIP3   OH240489   4.552   1.746  15.714 -0.2763  0.1587  0.4149
 6333TIP3    H140490   4.625   1.777  15.660 -0.1556  0.2412  0.6281
 6333TIP3    H240491   4.581   1.660  15.745 -0.3482  0.1089  0.3435
 6334TIP3   OH240492   5.894   5.692  15.461 -0.4619 -0.3285  0.4461
 6334TIP3    H140493   5.878   5.751  15.534  0.7706  2.5044 -1.5145
 6334TIP3    H240494   5.858   5.737  15.385 -1.1123 -2.9195 -0.8521
 6335TIP3   OH240495   3.656   5.115   0.581 -0.1861 -0.0124  0.5689
 6335TIP3    H140496   3.659   5.105   0.486 -2.9595 -1.3624  0.5666
 6335TIP3    H240497   3.669   5.208   0.596  0.7628  0.1396 -1.0970
 6336TIP3   OH240498   6.809   0.707   2.302 -0.4484 -0.4219 -0.3317
 6336TIP3    H140499   6.859   0.701   2.221 -0.3523 -2.6976 -0.1376
 6336TIP3    H240500   6.874   0.694   2.371 -0.8445 -0.5231  0.0244
 6337TIP3   OH240501   1.561   3.837   4.766  0.2124 -0.6670  0.3776
 6337TIP3    H140502   1.491   3.776   4.791 -0.2273  0.1875  1.2792
 6337TIP3    H240503   1.525   3.885   4.691  0.5034 -1.4231 -0.2428
 6338TIP3   OH240504   5.756   4.339  11.131  0.1560  0.3417  0.3576
 6338TIP3    H140505   5.676   4.334  11.079  0.5098  0.3314 -0.1920
 6338TIP3    H240506   5.735   4.295  11.213 -0.8125  1.5215  0.7459
 6339TIP3   OH240507   5.216   6.175  12.605  0.1676 -0.0015  0.0144
 6339TIP3    H140508   5.304   6.209  12.622  0.3431 -0.7009  0.5237
 6339TIP3    H240509   5.166   6.252  12.578  0.8107  0.4909  0.2030
 6340TIP3   OH240510   0.683   0.559   2.813  0.2346  0.0075 -0.2202
 6340TIP3    H140511   0.599   0.594   2.784  0.4217  0.6038 -0.0526
 6340TIP3    H240512   0.703   0.489   2.752 -0.6847 -0.5479  0.1055
 6341TIP3   OH240513   0.955   5.064   3.392 -0.5288  0.3332 -0.9893
 6341TIP3    H140514   1.038   5.110   3.403 -0.8005  0.7501 -0.6581
 6341TIP3    H240515   0.963   5.020   3.307  0.0648  0.2925 -0.9138
 6342TIP3   OH240516   1.639   5.976   4.918  0.2674 -0.1198 -0.1418
 6342TIP3    H140517   1.667   6.057   4.961 -0.6808 -0.0326  0.3370
 6342TIP3    H240518   1.693   5.970   4.839  0.6678  0.7349  0.0638
 6343TIP3   OH240519   4.528   1.126   1.035  0.1114  0.4672 -0.5741
 6343TIP3    H140520   4.612   1.160   1.003 -0.7720  2.0487 -1.2720
 6343TIP3    H240521   4.521   1.159   1.124  1.4002 -1.8350  0.4330
 6344TIP3   OH240522   4.742   6.795   4.620 -0.0274  0.0434 -0.4070
 6344TIP3    H140523   4.720   6.727   4.556  0.1529 -1.6251  1.2508
 6344TIP3    H240524   4.733   6.752   4.705  0.7728  1.9076  0.6614
 6345TIP3   OH240525   2.116   5.613  16.598  0.2984  0.3023 -0.1410
 6345TIP3    H140526   2.195   5.644  16.642 -0.6277  2.1055  0.2866
 6345TIP3    H240527   2.114   5.662  16.515 -0.2509  0.1028 -0.2469
 6346TIP3   OH240528   0.787   3.804   0.380 -0.4962 -0.0211 -0.8025
 6346TIP3    H140529   0.877   3.788   0.351 -0.2832 -0.9898  0.3449
 6346TIP3    H240530   0.791   3.891   0.421 -0.5910  0.9268 -2.7534
 6347TIP3   OH240531   2.447   1.547   3.241  0.5616  0.0512 -0.1727
 6347TIP3    H140532   2.432   1.633   3.202 -1.5733 -0.6698 -1.0226
 6347TIP3    H240533   2.412   1.485   3.177  2.1536 -1.4757  0.3843
 6348TIP3   OH240534   2.000   3.330  10.447  0.1156  0.6355  0.1660
 6348TIP3    H140535   1.951   3.380  10.513 -1.7901  0.4815 -1.0890
 6348TIP3    H240536   1.938   3.318  10.375  2.0437  0.4881 -1.5210
 6349TIP3   OH240537   1.804   6.540  12.580 -0.6238  0.3246  0.1588
 6349TIP3    H140538   1.890   6.555  12.541 -1.6015  4.2827 -0.6327
 6349TIP3    H240539   1.756   6.491  12.514  0.4149 -0.3191 -0.1349
 6350TIP3   OH240540   4.796   5.642   4.377  0.6299 -0.1275  0.0623
 6350TIP3    H140541   4.729   5.576   4.398  0.6456  0.3127  1.5684
 6350TIP3    H240542   4.858   5.596   4.321  0.9690 -1.5996  1.5851
 6351TIP3   OH240543   1.276   0.063  14.000 -0.0041 -0.2092 -0.2912
 6351TIP3    H140544   1.308   0.047  14.088  1.0545 -1.2860 -0.8563
 6351TIP3    H240545   1.214  -0.008  13.983 -0.5472  0.2508 -0.2497
 6352TIP3   OH240546   5.706   1.972  14.721  0.1807  0.4600  0.0766
 6352TIP3    H140547   5.636   2.017  14.675  1.3823  2.0139 -0.2659
 6352TIP3    H240548   5.699   2.003  14.811 -0.8538 -0.9833  0.5191
 6353TIP3   OH240549   3.972   3.420  14.591  0.3836 -0.0115 -0.0201
 6353TIP3    H140550   3.919   3.341  14.597 -0.2138  0.1926 -2.0943
 6353TIP3    H240551   3.914   3.491  14.619  1.3159 -0.3975  3.1216
 6354TIP3   OH240552   0.802   5.187  13.224  0.1062 -0.3400 -0.6633
 6354TIP3    H140553   0.786   5.228  13.139  2.1818 -1.6697 -1.7400
 6354TIP3    H240554   0.784   5.094  13.209 -3.8323 -0.0451  1.5583
 6355TIP3   OH240555   1.487   2.078  14.803 -0.0474  0.7405  0.0372
 6355TIP3    H140556   1.455   2.033  14.725 -0.3121 -0.2704  0.7225
 6355TIP3    H240557   1.499   2.169  14.775  0.7383  0.1969 -1.4217
 6356TIP3   OH240558   5.921   6.169  12.037 -0.0446  0.4077  0.1753
 6356TIP3    H140559   5.834   6.204  12.017 -0.0657  1.5188  2.0582
 6356TIP3    H240560   5.949   6.126  11.957 -2.2477  0.2237 -0.5283
 6357TIP3   OH240561   6.669   5.727  15.673 -0.4748  0.4081  0.0305
 6357TIP3    H140562   6.629   5.810  15.646 -0.6547  0.2000 -0.3460
 6357TIP3    H240563   6.696   5.686  15.591 -0.7167 -0.0751  0.1932
 6358TIP3   OH240564   0.067   5.895   1.750 -0.2754 -0.1353 -0.1070
 6358TIP3    H140565   0.115   5.845   1.815 -0.4268  0.6249  0.5947
 6358TIP3    H240566   0.119   5.887   1.670  0.9142  0.5107  0.5904
 6359TIP3   OH240567   4.879   3.209  12.672  0.0398 -0.0404 -0.0727
 6359TIP3    H140568   4.891   3.267  12.597  1.3591 -1.0483 -0.6581
 6359TIP3    H240569   4.905   3.262  12.748  2.0533 -0.1153 -0.6829
 6360TIP3   OH240570   5.246   0.747  16.843  0.2993  0.5879 -0.2627
 6360TIP3    H140571   5.241   0.794  16.760  1.5355  2.0171  0.4415
 6360TIP3    H240572   5.199   0.803  16.905 -1.9104 -1.1936 -0.2891
 6361TIP3   OH240573   1.306   4.758  14.494 -0.0122 -0.5468 -0.2681
 6361TIP3    H140574   1.311   4.841  14.542  1.0396 -0.4548 -0.5276
 6361TIP3    H240575   1.249   4.777  14.420  1.4918  0.3946 -1.2053
 6362TIP3   OH240576   6.809   4.629  14.309  0.5455  0.7847  0.1079
 6362TIP3    H140577   6.819   4.582  14.392 -2.4616 -0.8039 -0.3669
 6362TIP3    H240578   6.802   4.561  14.243  2.3669  2.0408 -1.4308
 6363TIP3   OH240579   6.057   2.200   6.205 -0.2768  0.1577 -1.0622
 6363TIP3    H140580   6.092   2.283   6.237 -3.1748  0.5152  1.3956
 6363TIP3    H240581   6.128   2.137   6.218  0.3142  1.3028  1.5385
 6364TIP3   OH240582   1.393   2.096  13.645 -0.0647  0.0115 -0.7657
 6364TIP3    H140583   1.375   2.179  13.602 -0.0348  0.1343 -0.5426
 6364TIP3    H240584   1.385   2.030  13.576  1.1282  0.3204 -1.2194
 6365TIP3   OH240585   3.960   4.946   3.442 -0.6479  0.1526  1.1679
 6365TIP3    H140586   3.989   4.897   3.365 -1.8827 -1.2460  1.5858
 6365TIP3    H240587   3.935   5.032   3.407  0.4253  0.1224  0.2772
 6366TIP3   OH240588   4.389   3.052   2.106  0.2750  0.0266 -0.2222
 6366TIP3    H140589   4.343   3.009   2.034 -0.1454  0.5880 -0.2915
 6366TIP3    H240590   4.348   3.019   2.185 -0.3433  0.6287 -0.2878
 6367TIP3   OH240591   5.018   3.776  14.448  0.2942  0.3365 -0.4919
 6367TIP3    H140592   5.075   3.850  14.465 -1.6931  1.8485 -0.2504
 6367TIP3    H240593   4.955   3.808  14.384 -0.7781 -1.0447 -0.1514
 6368TIP3   OH240594   4.747   6.794  13.602 -0.0843 -0.3505  0.2102
 6368TIP3    H140595   4.690   6.812  13.676  3.4903  0.7942  2.8264
 6368TIP3    H240596   4.740   6.700  13.589 -2.9146 -0.1718  0.1040
 6369TIP3   OH240597   4.796   4.521  16.941  0.6085  0.2408  0.1945
 6369TIP3    H140598   4.847   4.475  16.874  0.2010  0.0166  0.0359
 6369TIP3    H240599   4.829   4.611  16.939 -0.6358  0.6831 -1.5546
 6370TIP3   OH240600   4.587   3.169  14.023  0.1306 -0.0232 -0.3999
 6370TIP3    H140601   4.516   3.163  14.086  2.2366 -0.0540  2.0719
 6370TIP3    H240602   4.573   3.251  13.976 -1.5810 -0.1142 -0.0500
 6371TIP3   OH240603   1.383   6.810  13.701 -0.0197 -0.0590 -0.6083
 6371TIP3    H140604   1.389   6.831  13.794 -0.1723 -3.0211  0.1181
 6371TIP3    H240605   1.452   6.864  13.660  1.8396 -0.6966  1.5862
 6372TIP3   OH240606   3.360   3.737   0.732 -0.0949 -0.3122 -0.7034
 6372TIP3    H140607   3.340   3.802   0.665  2.3661  1.3961  0.1229
 6372TIP3    H240608   3.440   3.694   0.701  1.5255  1.0441  1.4288
 6373TIP3   OH240609   6.409   1.721   3.367 -0.3880 -0.1790  0.2278
 6373TIP3    H140610   6.456   1.797   3.402 -0.5076 -0.2867  0.6185
 6373TIP3    H240611   6.474   1.673   3.316 -0.3651  0.3100 -0.2173
 6374TIP3   OH240612   0.801   5.203   4.036  0.1290  0.4099 -0.2501
 6374TIP3    H140613   0.812   5.161   4.121 -0.7614  2.7005  1.0569
 6374TIP3    H240614   0.738   5.149   3.989  0.1448 -0.5158  0.7999
 6375TIP3   OH240615   5.677   0.895   6.615  0.6238  0.4888 -0.0397
 6375TIP3    H140616   5.623   0.944   6.676  0.7352 -0.5843  0.9301
 6375TIP3    H240617   5.641   0.916   6.529 -1.0711  0.1165  0.5566
 6376TIP3   OH240618   2.361   2.741   2.130  0.0724  0.2653 -0.0547
 6376TIP3    H140619   2.401   2.821   2.095 -0.8046  1.0726  0.7613
 6376TIP3    H240620   2.436   2.688   2.159  0.5895  1.4931  0.8927
 6377TIP3   OH240621   6.119   4.450  16.732 -0.6891  0.6158  0.6978
 6377TIP3    H140622   6.123   4.540  16.763 -0.5200  0.2922  1.6346
 6377TIP3    H240623   6.175   4.401  16.792 -1.2950 -0.2208  0.5984
 6378TIP3   OH240624   3.508   5.282  14.092  0.2679 -0.2578 -0.2870
 6378TIP3    H140625   3.598   5.254  14.109 -0.2121 -1.1979  0.7996
 6378TIP3    H240626   3.509   5.314  14.002  1.6409 -0.4510 -0.3492
 6379TIP3   OH240627   5.228   4.448  14.474 -0.5961 -0.4692 -0.4152
 6379TIP3    H140628   5.148   4.494  14.498  0.0375  0.0834  0.7326
 6379TIP3    H240629   5.206   4.355  14.480 -1.4013 -0.3282 -1.0444
 6380TIP3   OH240630   5.720   3.900   1.337 -0.2141  0.4243 -0.3314
 6380TIP3    H140631   5.643   3.896   1.392 -1.5581  0.3725 -2.1657
 6380TIP3    H240632   5.714   3.823   1.280  1.4648  0.1220 -0.1393
 6381TIP3   OH240633   1.000   6.305  11.983 -0.1777  0.7573 -0.7742
 6381TIP3    H140634   0.931   6.277  11.922  0.3249 -0.0309 -0.9848
 6381TIP3    H240635   0.953   6.327  12.063 -0.5221 -1.3031 -0.4002
 6382TIP3   OH240636   6.399   0.188   6.206 -0.0688  0.4837 -0.3008
 6382TIP3    H140637   6.354   0.110   6.237 -0.3713  0.4858 -0.7343
 6382TIP3    H240638   6.347   0.218   6.132  1.4411 -0.3235 -1.7202
 6383TIP3   OH240639   2.771   6.766   5.214 -0.1501 -0.1474  0.2287
 6383TIP3    H140640   2.695   6.821   5.231  0.1755  0.2313  0.4807
 6383TIP3    H240641   2.735   6.678   5.203 -0.5609 -0.0905  1.0308
 6384TIP3   OH240642   6.020   5.477  14.497  0.3733 -0.2770 -0.3154
 6384TIP3    H140643   6.018   5.384  14.517  1.6687 -0.3030 -0.2313
 6384TIP3    H240644   6.076   5.484  14.419  1.9244  0.5954  0.8268
 6385TIP3   OH240645   4.267   0.504  15.311  0.3518 -0.5895  0.4257
 6385TIP3    H140646   4.261   0.423  15.259  2.4916  1.4119 -3.0967
 6385TIP3    H240647   4.350   0.497  15.358  1.1436  0.0736 -0.8510
 6386TIP3   OH240648   1.207   3.286   5.373 -0.1425  0.0020 -0.3666
 6386TIP3    H140649   1.241   3.337   5.300 -0.7410 -2.9819 -2.8557
 6386TIP3    H240650   1.130   3.334   5.403  0.5735  1.6675 -1.1664
 6387TIP3   OH240651   5.754   1.733  16.598  0.1440 -0.7462 -0.3278
 6387TIP3    H140652   5.704   1.711  16.676 -0.5459 -0.9216 -0.8105
 6387TIP3    H240653   5.695   1.788  16.546  1.6896  1.9703  0.6815
 6388TIP3   OH240654   2.309   0.503  15.461  0.1748 -0.0457  0.4055
 6388TIP3    H140655   2.223   0.465  15.440 -0.7591  2.2898 -0.1478
 6388TIP3    H240656   2.338   0.455  15.539 -0.4541 -2.6152 -0.8754
 6389TIP3   OH240657   3.581   1.281   4.208  0.3430 -0.1774  0.2085
 6389TIP3    H140658   3.611   1.198   4.171 -0.6695 -0.2359 -0.4891
 6389TIP3    H240659   3.486   1.271   4.216  0.1131  1.2258 -0.6538
 6390TIP3   OH240660   4.599   3.467   1.743 -0.5202  0.3883  0.2249
 6390TIP3    H140661   4.600   3.490   1.651  0.4086 -0.6618 -0.0440
 6390TIP3    H240662   4.517   3.419   1.755  0.3606 -1.3676 -0.5604
 6391TIP3   OH240663   6.772   3.733   1.777 -0.1896 -0.1503 -0.1594
 6391TIP3    H140664   6.729   3.785   1.844  1.1245 -0.3780  0.8929
 6391TIP3    H240665   6.769   3.786   1.698 -0.9757  0.4947  0.3096
 6392TIP3   OH240666   1.826   5.454  16.025 -0.4379 -0.4667 -0.1140
 6392TIP3    H140667   1.806   5.374  16.074 -1.6463 -0.1167 -0.0096
 6392TIP3    H240668   1.798   5.524  16.083 -0.4633 -0.0019 -0.6932
 6393TIP3   OH240669   3.464   4.951   0.677  0.0057  0.4120 -0.2116
 6393TIP3    H140670   3.421   4.984   0.756 -0.6001  0.4666 -0.5603
 6393TIP3    H240671   3.533   5.015   0.660 -0.7052  1.1276 -0.4708
 6394TIP3   OH240672   5.140   1.092   5.485 -0.8327  0.3312 -0.4553
 6394TIP3    H140673   5.118   1.127   5.399  0.1946  3.3083  0.4315
 6394TIP3    H240674   5.214   1.145   5.515  0.3497 -2.1585  1.3083
 6395TIP3   OH240675   4.199   5.262  14.567  0.4831  0.1183 -0.3514
 6395TIP3    H140676   4.228   5.319  14.638 -0.3581  2.0025 -1.4652
 6395TIP3    H240677   4.146   5.319  14.510 -0.2892 -1.7438 -1.5775
 6396TIP3   OH240678   4.656   4.277  12.640  0.2454  0.1038  0.0168
 6396TIP3    H140679   4.580   4.222  12.660 -0.7463  0.7880 -1.7416
 6396TIP3    H240680   4.720   4.216  12.602 -0.0492 -0.1998  0.0108
 6397TIP3   OH240681   4.920   0.580   4.757  1.1135 -0.0535  0.6787
 6397TIP3    H140682   4.881   0.518   4.818 -1.1352 -0.6218 -1.2671
 6397TIP3    H240683   4.968   0.525   4.694  2.2648  0.4345  1.1149
 6398TIP3   OH240684   2.505   5.942   2.612 -0.1219 -0.1127  0.3377
 6398TIP3    H140685   2.432   5.880   2.604 -1.1435  1.1022  0.0693
 6398TIP3    H240686   2.516   5.954   2.706  0.5152 -1.1882  0.4123
 6399TIP3   OH240687   0.675   3.219   1.474 -0.3409  0.0511 -0.2617
 6399TIP3    H140688   0.731   3.273   1.529  0.2269 -0.1393 -0.6473
 6399TIP3    H240689   0.688   3.130   1.505 -0.9398  0.0807  0.0830
 6400TIP3   OH240690   1.065   2.341   4.360  0.7104  0.1858  0.2384
 6400TIP3    H140691   1.058   2.281   4.435  1.4214  0.6536  0.6814
 6400TIP3    H240692   1.082   2.427   4.399 -1.3528  0.8780 -0.3490
 6401TIP3   OH240693   4.072   6.434  16.960  0.2173  0.0161  0.4715
 6401TIP3    H140694   4.005   6.428  16.892 -1.8209  0.3518  2.4000
 6401TIP3    H240695   4.147   6.386  16.925 -0.5412  0.7634 -2.2811
 6402TIP3   OH240696   1.620   1.598  11.486 -0.3067 -0.0119  0.4077
 6402TIP3    H140697   1.683   1.654  11.532  0.4171 -0.4095 -0.0954
 6402TIP3    H240698   1.645   1.604  11.394  0.2389 -1.7490  0.4332
 6403TIP3   OH240699   3.377   6.480  15.965  0.2421 -0.5362 -0.1976
 6403TIP3    H140700   3.391   6.448  15.876 -0.0271 -0.9579 -0.0934
 6403TIP3    H240701   3.355   6.573  15.955 -2.7123 -1.2423 -0.8079
 6404TIP3   OH240702   4.855   5.063  15.919 -0.0870  0.2637  1.2093
 6404TIP3    H140703   4.774   5.022  15.887  0.5445 -0.6277  0.7536
 6404TIP3    H240704   4.845   5.065  16.014 -0.9727  0.8415  1.1137
 6405TIP3   OH240705   3.213   2.245   0.649  0.0475 -0.5553  0.6153
 6405TIP3    H140706   3.302   2.208   0.656  0.0560 -0.9047 -1.1573
 6405TIP3    H240707   3.163   2.199   0.716  0.7285 -1.8144  0.2715
 6406TIP3   OH240708   3.570   5.740  12.999  0.0346 -0.6808 -0.2668
 6406TIP3    H140709   3.624   5.813  12.969 -1.0228  0.2973  0.1696
 6406TIP3    H240710   3.625   5.663  12.987  0.5576 -0.0202 -2.3324
 6407TIP3   OH240711   4.613   6.012   0.455  0.5946  0.4616 -0.1465
 6407TIP3    H140712   4.576   6.041   0.538 -0.6597  1.8471 -1.1670
 6407TIP3    H240713   4.703   6.045   0.455  0.7934 -0.0494  0.8936
 6408TIP3   OH240714   2.080   3.117  10.582 -0.0926  0.6302  0.4133
 6408TIP3    H140715   2.051   3.184  10.520  1.2248  0.5686 -0.2786
 6408TIP3    H240716   2.023   3.129  10.658 -2.1274  0.3404 -1.0079
 6409TIP3   OH240717   5.581   0.152   0.316 -0.2360 -0.5100 -0.6611
 6409TIP3    H140718   5.603   0.245   0.321 -0.2255 -0.5903  0.9274
 6409TIP3    H240719   5.496   0.145   0.360 -0.2779 -1.2528 -0.8510
 6410TIP3   OH240720   4.961   2.483   1.091  0.0265 -0.5906 -0.1143
 6410TIP3    H140721   4.932   2.544   1.022  0.7328 -1.0633 -0.8297
 6410TIP3    H240722   4.966   2.398   1.047  1.4279 -0.7155  0.2868
 6411TIP3   OH240723   3.908   6.646  14.979 -0.3000  0.1769 -0.0384
 6411TIP3    H140724   3.971   6.577  14.955 -1.0144  0.3045 -2.4455
 6411TIP3    H240725   3.947   6.689  15.055  1.8034 -0.7147 -0.5737
 6412TIP3   OH240726   5.551   3.124   2.334  0.1605  0.0092  0.6182
 6412TIP3    H140727   5.596   3.078   2.263  1.1486 -2.7309  2.8995
 6412TIP3    H240728   5.477   3.167   2.292  0.6806 -1.5824 -2.0696
 6413TIP3   OH240729   3.053   2.395  12.594  0.6136 -0.9215  0.7936
 6413TIP3    H140730   3.106   2.386  12.515 -1.1442 -2.4875 -0.2473
 6413TIP3    H240731   3.009   2.310  12.603 -0.6981 -0.1034  2.3417
 6414TIP3   OH240732   3.753   6.292  12.031 -0.5557 -0.0525 -0.0637
 6414TIP3    H140733   3.765   6.286  11.936 -1.0075  0.1992 -0.1425
 6414TIP3    H240734   3.724   6.205  12.057 -1.2834  0.1154 -0.2910
 6415TIP3   OH240735   4.383   6.517  16.723 -0.1406  0.1291 -0.0694
 6415TIP3    H140736   4.435   6.456  16.775 -0.3358  0.3205  0.3496
 6415TIP3    H240737   4.444   6.552  16.658  0.9165  2.3690  2.0860
 6416TIP3   OH240738   2.129   2.394   1.482  0.0562 -0.0062 -0.9109
 6416TIP3    H140739   2.136   2.299   1.472  1.0943 -0.2579  1.8534
 6416TIP3    H240740   2.040   2.414   1.453  0.3508 -1.5630 -3.0721
 6417TIP3   OH240741   0.609   1.640  11.029  0.3028 -0.2522  0.6559
 6417TIP3    H140742   0.677   1.681  11.082  0.7965 -2.0661  1.4470
 6417TIP3    H240743   0.641   1.551  11.013 -1.4511 -0.8368  0.2811
 6418TIP3   OH240744   1.833   3.398   3.484  0.2004 -0.5433  0.4134
 6418TIP3    H140745   1.870   3.484   3.463  1.1371 -1.4092 -1.6738
 6418TIP3    H240746   1.844   3.390   3.579  1.9794  0.7944  0.3586
 6419TIP3   OH240747   5.388   0.162   0.529 -0.6039 -0.4989  0.3392
 6419TIP3    H140748   5.310   0.111   0.504 -0.2155 -0.6466 -0.6137
 6419TIP3    H240749   5.356   0.251   0.541 -0.9819 -0.6270  0.2989
 6420TIP3   OH240750   5.124   4.183  11.349 -0.0227  0.1843  1.4337
 6420TIP3    H140751   5.205   4.226  11.376  1.1513 -1.7403  1.0180
 6420TIP3    H240752   5.119   4.199  11.255  0.8292 -1.2392  1.1356
 6421TIP3   OH240753   6.113   6.284   0.879 -0.0266 -0.9005 -0.0542
 6421TIP3    H140754   6.208   6.276   0.878  0.1130  0.2668  1.7746
 6421TIP3    H240755   6.090   6.297   0.971 -1.9634 -1.1775 -0.4561
 6422TIP3   OH240756   1.111   0.021   0.383 -0.0949  0.5596  0.5294
 6422TIP3    H140757   1.124  -0.070   0.356 -0.0522  1.2312 -1.8081
 6422TIP3    H240758   1.040   0.053   0.326  0.8267  2.3840  0.3735
 6423TIP3   OH240759   4.805   1.587  15.344  0.1118  0.4063 -0.2808
 6423TIP3    H140760   4.887   1.540  15.330  0.6441  1.2057  0.0959
 6423TIP3    H240761   4.740   1.540  15.291  0.5731 -0.8830  0.2811
 6424TIP3   OH240762   2.051   5.937  15.946  0.2764 -0.0030  0.1147
 6424TIP3    H140763   2.142   5.909  15.947  0.8884  1.9589  0.5587
 6424TIP3    H240764   2.053   6.026  15.910 -1.4123  0.1978  0.4719
 6425TIP3   OH240765   1.858   5.504   0.271 -0.3882 -0.3794 -0.1438
 6425TIP3    H140766   1.885   5.518   0.180  0.3065  1.2599  0.2997
 6425TIP3    H240767   1.932   5.459   0.311  0.1910  0.8086  0.1389
 6426TIP3   OH240768   0.997   2.061  13.439 -0.3088  0.6738  0.1269
 6426TIP3    H140769   0.986   2.073  13.534 -0.8133  0.6149  0.0762
 6426TIP3    H240770   1.041   2.141  13.410  0.1122  0.5682  0.4541
 6427TIP3   OH240771   0.744   2.172   2.473  0.0624  0.3400  0.0438
 6427TIP3    H140772   0.781   2.247   2.519 -0.6366  1.2998 -0.9338
 6427TIP3    H240773   0.670   2.144   2.527  1.4417 -0.8373  1.3790
 6428TIP3   OH240774   6.034   3.357  15.663  0.6489 -0.4614  0.4869
 6428TIP3    H140775   6.014   3.310  15.744 -2.5410  1.1870  0.7536
 6428TIP3    H240776   6.077   3.438  15.691  0.7420 -0.5020  0.4609
 6429TIP3   OH240777   5.030   5.716  16.096 -0.2697 -0.1947  1.2324
 6429TIP3    H140778   5.009   5.633  16.054 -0.5787 -0.0813  1.1550
 6429TIP3    H240779   5.119   5.706  16.128 -0.5933 -0.8310  1.9271
 6430TIP3   OH240780   3.179   5.113  15.553 -0.6019 -0.5265  0.3951
 6430TIP3    H140781   3.113   5.104  15.622 -0.5483 -2.2718  0.2500
 6430TIP3    H240782   3.132   5.090  15.473 -0.5872  1.2114 -0.1222
 6431TIP3   OH240783   5.194   6.002   6.067 -0.0003 -0.1367 -0.4491
 6431TIP3    H140784   5.127   5.936   6.049  0.8695 -1.1435 -0.0937
 6431TIP3    H240785   5.264   5.953   6.111 -0.2862  1.4421  1.8691
 6432TIP3   OH240786   5.931   4.742  13.615 -0.0300 -0.3122 -0.0871
 6432TIP3    H140787   6.026   4.739  13.628  0.0988 -2.2020 -1.2455
 6432TIP3    H240788   5.895   4.738  13.704  0.9618 -1.9957  0.2695
 6433TIP3   OH240789   1.636   2.392  11.115 -0.4355  0.4052 -0.6611
 6433TIP3    H140790   1.660   2.450  11.188  0.3406 -2.0266  1.0829
 6433TIP3    H240791   1.541   2.383  11.122 -0.0955 -1.8171  1.6623
 6434TIP3   OH240792   4.054   6.741   0.068 -0.4603 -0.2930 -0.3248
 6434TIP3    H140793   4.122   6.798   0.033 -1.1700  1.1013  0.5255
 6434TIP3    H240794   3.974   6.770   0.025 -0.5590 -1.8296 -1.2082
 6435TIP3   OH240795   6.444   6.648  13.223  0.5496  0.1147 -0.4016
 6435TIP3    H140796   6.536   6.622  13.225  0.2499 -0.8675  1.9755
 6435TIP3    H240797   6.443   6.730  13.174  2.6425 -0.0291 -0.7118
 6436TIP3   OH240798   4.246   2.072   0.701  0.7671  0.3443  0.0635
 6436TIP3    H140799   4.233   2.082   0.795  1.1031  1.1784  0.0261
 6436TIP3    H240800   4.201   2.147   0.662 -0.7443 -0.8721 -0.5448
 6437TIP3   OH240801   0.442   6.451   5.018 -0.7078 -0.4458 -0.1266
 6437TIP3    H140802   0.410   6.517   5.079 -0.9348 -0.9627  0.3232
 6437TIP3    H240803   0.471   6.379   5.074  0.0746 -0.4969 -0.5829
 6438TIP3   OH240804   1.035   6.088   5.526 -0.1167 -0.1424  0.2444
 6438TIP3    H140805   1.089   6.147   5.473 -0.7426  0.5146  0.3209
 6438TIP3    H240806   1.082   6.081   5.610  0.6371 -0.8183 -0.2316
 6439TIP3   OH240807   3.643   0.313  15.153  0.0026  0.1976  0.3643
 6439TIP3    H140808   3.614   0.227  15.184 -0.0555  0.1977  0.3093
 6439TIP3    H240809   3.714   0.337  15.213  0.5399 -0.2323 -0.0816
 6440TIP3   OH240810   3.161   3.019   4.213 -0.0394 -0.1836  0.5281
 6440TIP3    H140811   3.242   2.981   4.248  0.3085 -0.5994 -0.6877
 6440TIP3    H240812   3.188   3.060   4.130 -1.1568 -0.7190 -0.1108
 6441TIP3   OH240813   5.003   3.429  15.241  0.2365  0.5149 -0.4079
 6441TIP3    H140814   5.020   3.501  15.180  0.3385 -1.7406 -3.1246
 6441TIP3    H240815   5.086   3.381  15.245 -0.8804 -1.5761 -1.5523
 6442TIP3   OH240816   0.726   2.647   0.240  0.0081  0.1073  0.1023
 6442TIP3    H140817   0.799   2.632   0.300  0.1479  1.4921  0.2959
 6442TIP3    H240818   0.680   2.723   0.277 -0.2525  0.6089 -1.2261
 6443TIP3   OH240819   1.326   6.591   5.598 -0.3122 -0.4888 -0.0638
 6443TIP3    H140820   1.315   6.577   5.504  0.4820  1.1119 -0.4188
 6443TIP3    H240821   1.398   6.655   5.604 -2.6570  2.1157  1.4566
 6444TIP3   OH240822   1.456   0.054   2.657 -0.1062 -0.2097  0.0892
 6444TIP3    H140823   1.411  -0.003   2.719  2.7192  0.4989  2.9342
 6444TIP3    H240824   1.509  -0.005   2.604 -1.6437 -0.7258 -0.8770
 6445TIP3   OH240825   2.572   6.216  13.283  0.4480 -0.3718 -0.0638
 6445TIP3    H140826   2.536   6.140  13.329  0.3967 -0.4994 -0.3149
 6445TIP3    H240827   2.529   6.216  13.198  2.2378 -1.4949 -0.9918
 6446TIP3   OH240828   5.125   1.217   0.867 -0.2117  0.0413 -0.6357
 6446TIP3    H140829   5.106   1.124   0.877 -0.9010  0.2732  0.3469
 6446TIP3    H240830   5.179   1.239   0.943 -1.7901  0.8820  0.2811
 6447TIP3   OH240831   0.616   2.980   3.674 -0.0940 -0.2017 -0.2542
 6447TIP3    H140832   0.624   3.032   3.594 -0.0682  0.7511  0.3595
 6447TIP3    H240833   0.649   2.893   3.649 -1.5083 -0.3587 -1.6889
 6448TIP3   OH240834   4.704   6.163  15.650  0.0574  0.1161  0.2740
 6448TIP3    H140835   4.794   6.134  15.668  0.7537  2.1516  0.1891
 6448TIP3    H240836   4.714   6.225  15.578 -1.2682  1.3884  1.1885
 6449TIP3   OH240837   2.972   5.669  12.882 -0.5506  0.4727  0.3285
 6449TIP3    H140838   2.999   5.604  12.947  2.0825 -0.0334 -1.1654
 6449TIP3    H240839   2.974   5.752  12.928  0.9574  0.0775  1.0078
 6450TIP3   OH240840   4.319   4.204  15.126  0.6343 -0.0815  0.2467
 6450TIP3    H140841   4.291   4.230  15.039  1.2458  0.6215  0.2553
 6450TIP3    H240842   4.399   4.154  15.111  1.3634  0.9897  0.4718
 6451TIP3   OH240843   6.386   5.588   2.422 -0.0442 -0.1776 -0.0815
 6451TIP3    H140844   6.439   5.582   2.343 -0.9651 -0.5910 -0.6794
 6451TIP3    H240845   6.445   5.565   2.494  0.2147 -2.0061 -0.8746
 6452TIP3   OH240846   4.033   2.038  12.242  0.1715  0.0931  0.4840
 6452TIP3    H140847   4.110   2.082  12.281 -0.9610  1.5823  1.0988
 6452TIP3    H240848   4.015   2.089  12.164 -0.7165  0.2680  0.8045
 6453TIP3   OH240849   3.169   3.813   0.970 -0.3772 -0.1649 -0.5394
 6453TIP3    H140850   3.168   3.806   0.875 -0.4253 -1.8423 -0.4257
 6453TIP3    H240851   3.234   3.749   0.998  1.1153  1.7307  0.4624
 6454TIP3   OH240852   6.740   2.363   4.419 -0.0463  0.0057  0.3652
 6454TIP3    H140853   6.753   2.457   4.411  0.0563 -0.1536 -1.5892
 6454TIP3    H240854   6.751   2.329   4.330 -1.4252 -1.6775  0.7893
 6455TIP3   OH240855   2.007   2.249  11.304  0.0350 -0.6160  0.8355
 6455TIP3    H140856   2.038   2.337  11.325 -0.3878 -0.3854  0.4998
 6455TIP3    H240857   2.045   2.193  11.372 -0.2520 -0.0728  1.4411
 6456TIP3   OH240858   2.738   2.318  11.063 -0.1931 -0.1498  0.1630
 6456TIP3    H140859   2.658   2.369  11.078  0.0703  0.3695 -0.1686
 6456TIP3    H240860   2.722   2.272  10.981 -1.1517 -2.0390  1.3724
 6457TIP3   OH240861   3.348   1.875  12.475 -0.4055 -0.2407 -0.0107
 6457TIP3    H140862   3.303   1.791  12.477 -0.1225 -0.4338 -1.1396
 6457TIP3    H240863   3.297   1.929  12.415  0.3534 -0.1604 -0.5857
 6458TIP3   OH240864   2.522   2.873  16.225  0.1473  0.0722  0.1147
 6458TIP3    H140865   2.552   2.961  16.205  1.8321 -0.2015  1.2960
 6458TIP3    H240866   2.488   2.840  16.142 -1.4763  2.1893 -0.0914
 6459TIP3   OH240867   3.854   3.505  12.843 -0.6517  0.3099 -0.1519
 6459TIP3    H140868   3.799   3.582  12.854  0.5921  0.9870  1.5305
 6459TIP3    H240869   3.920   3.531  12.779  0.3626  1.0121  1.1452
 6460TIP3   OH240870   3.191   1.919  10.449  0.9352  0.2273  0.1050
 6460TIP3    H140871   3.251   1.868  10.396 -0.5753 -2.3104  0.7832
 6460TIP3    H240872   3.203   1.886  10.538 -0.4735  0.6201  0.4597
 6461TIP3   OH240873   2.712   1.787  11.700  0.1716 -0.7018 -0.3601
 6461TIP3    H140874   2.696   1.803  11.607  0.0998 -0.8419 -0.3719
 6461TIP3    H240875   2.652   1.847  11.745  2.0824  1.3302 -0.3890
 6462TIP3   OH240876   1.466   2.847   2.033 -0.4634  0.9023 -0.6720
 6462TIP3    H140877   1.508   2.783   2.091  0.4119  1.7038 -0.4025
 6462TIP3    H240878   1.376   2.853   2.064  0.5317  2.8809  1.9864
 6463TIP3   OH240879   6.147   0.676   2.578 -0.7339 -0.2651 -0.3702
 6463TIP3    H140880   6.111   0.765   2.575  0.4160  0.2471  0.7394
 6463TIP3    H240881   6.100   0.634   2.650  0.8033  0.3757  1.0209
 6464TIP3   OH240882   1.546   6.700  15.143  0.0497  0.2187  0.3350
 6464TIP3    H140883   1.505   6.708  15.229  0.9710  0.3858  0.7631
 6464TIP3    H240884   1.586   6.786  15.128  1.2830 -0.3372  0.4552
 6465TIP3   OH240885   2.946   4.211   2.440 -0.7744 -1.1189 -0.4839
 6465TIP3    H140886   2.922   4.209   2.533  4.4898  0.5358  1.0836
 6465TIP3    H240887   2.950   4.304   2.418 -0.2452 -1.4602 -1.8607
 6466TIP3   OH240888   4.029   2.014  15.320 -0.0788  0.9374  0.5521
 6466TIP3    H140889   3.997   2.104  15.328 -0.8963  0.6374  0.7711
 6466TIP3    H240890   4.006   1.989  15.230 -1.4216  0.3721  1.0341
 6467TIP3   OH240891   6.672   1.808   5.347 -0.0171  0.5324  0.0913
 6467TIP3    H140892   6.656   1.745   5.277  0.3170 -0.2133  0.6864
 6467TIP3    H240893   6.743   1.863   5.315  1.9524 -1.4587  0.9014
 6468TIP3   OH240894   2.446   5.907  15.229  0.3456 -0.0416  0.2684
 6468TIP3    H140895   2.419   5.824  15.267  1.2328 -1.4517 -2.0644
 6468TIP3    H240896   2.451   5.890  15.135  1.8911  2.2577 -0.1131
 6469TIP3   OH240897   5.111   6.504   2.372  0.1989  0.2567  0.0968
 6469TIP3    H140898   5.101   6.553   2.454  0.9829 -0.1410  0.4391
 6469TIP3    H240899   5.155   6.423   2.397 -0.2512 -0.2073 -0.6088
 6470TIP3   OH240900   0.045   5.758   4.387 -0.6516  0.7008  0.3092
 6470TIP3    H140901  -0.035   5.717   4.419 -1.2511  0.0494 -1.9407
 6470TIP3    H240902   0.024   5.786   4.298  2.0346 -0.6883 -0.8152
 6471TIP3   OH240903   2.617   2.619  13.641  0.3070 -0.4146 -0.3451
 6471TIP3    H140904   2.692   2.678  13.641  0.0689 -0.0994 -1.1330
 6471TIP3    H240905   2.611   2.586  13.731  0.2754  0.9680  0.1580
 6472TIP3   OH240906   5.139   3.358  14.532 -0.2968  0.1912 -0.3150
 6472TIP3    H140907   5.064   3.355  14.473  1.6642 -3.3095 -2.8589
 6472TIP3    H240908   5.121   3.290  14.597  0.3234 -0.2286 -0.5699
 6473TIP3   OH240909   2.736   5.384  16.966 -0.1721 -0.2421 -0.5412
 6473TIP3    H140910   2.680   5.345  16.898 -0.2587 -0.5013 -0.3227
 6473TIP3    H240911   2.819   5.337  16.959  0.0637  0.2286 -0.9554
 6474TIP3   OH240912   5.634   1.975   5.962 -0.0589  0.3181  0.0894
 6474TIP3    H140913   5.538   1.974   5.954 -0.1610 -1.8067  1.0614
 6474TIP3    H240914   5.662   1.900   5.909  1.1118  1.2165 -0.5664
 6475TIP3   OH240915   4.164   4.721   5.182 -0.9543 -0.1094 -0.1841
 6475TIP3    H140916   4.098   4.784   5.212  0.6755  2.2125 -1.2915
 6475TIP3    H240917   4.151   4.717   5.087  1.0545  1.0744 -0.5316
 6476TIP3   OH240918   1.592   1.597  14.606  0.1657  0.0810  0.0397
 6476TIP3    H140919   1.518   1.585  14.666 -0.3312  0.9873 -0.3801
 6476TIP3    H240920   1.582   1.687  14.574  0.5648 -0.3147 -1.2065
 6477TIP3   OH240921   0.629   1.595   5.675 -0.2338 -0.2449 -0.2992
 6477TIP3    H140922   0.694   1.555   5.732  0.3869  0.0372 -0.8056
 6477TIP3    H240923   0.645   1.556   5.589 -0.1969  0.4343 -0.6055
 6478TIP3   OH240924   2.567   6.481  11.775  0.0364  0.0836 -0.2911
 6478TIP3    H140925   2.515   6.401  11.769 -0.6851  0.4034  1.4575
 6478TIP3    H240926   2.567   6.503  11.868  2.6636  0.5383 -0.3569
 6479TIP3   OH240927   4.232   2.270  15.518  0.2069 -0.6264  0.1976
 6479TIP3    H140928   4.278   2.344  15.556 -1.1863  0.5397 -0.3466
 6479TIP3    H240929   4.213   2.212  15.592  2.3230 -1.0277  0.4541
 6480TIP3   OH240930   4.566   3.860   6.138  0.1388  0.2753 -0.2436
 6480TIP3    H140931   4.504   3.884   6.069  0.6660 -0.5399 -1.0239
 6480TIP3    H240932   4.541   3.914   6.213  0.2371  1.9922 -1.4118
 6481TIP3   OH240933   3.945   0.582  15.881 -0.3976  0.1351 -0.5834
 6481TIP3    H140934   4.025   0.635  15.886 -0.5942  0.3616  0.3217
 6481TIP3    H240935   3.919   0.586  15.789 -0.7447  2.1152 -0.4175
 6482TIP3   OH240936   4.901   3.548   5.704  0.0572 -0.0291  0.4618
 6482TIP3    H140937   4.894   3.571   5.796 -0.8399  1.8198 -0.0529
 6482TIP3    H240938   4.847   3.470   5.695 -1.6088  1.0378  1.0753
 6483TIP3   OH240939   4.877   1.233  11.551 -0.1620 -0.8387  0.0438
 6483TIP3    H140940   4.785   1.259  11.553  0.0643 -0.0433  0.3046
 6483TIP3    H240941   4.911   1.261  11.636  0.3545 -1.0037 -0.1105
 6484TIP3   OH240942   0.162   0.513   6.011  0.2247  0.3390  0.3330
 6484TIP3    H140943   0.088   0.573   6.005 -0.7840 -0.6143  2.7571
 6484TIP3    H240944   0.125   0.426   5.998  0.8885 -0.1469  1.5992
 6485TIP3   OH240945   0.603   6.771   0.940  0.2554 -0.1637 -0.1688
 6485TIP3    H140946   0.653   6.827   0.881  0.6311 -0.3016  0.0139
 6485TIP3    H240947   0.669   6.718   0.985  0.0004  0.1434  0.5835
 6486TIP3   OH240948   2.279   6.251   4.360 -0.6688  0.1812  0.1125
 6486TIP3    H140949   2.237   6.273   4.443  2.0469  1.7997  1.1560
 6486TIP3    H240950   2.344   6.184   4.383 -2.3746 -2.0649 -1.4005
 6487TIP3   OH240951   5.578   3.047   1.759 -0.3229  0.1481  0.3640
 6487TIP3    H140952   5.585   3.105   1.835 -1.1334 -0.6502  1.0621
 6487TIP3    H240953   5.597   2.960   1.795 -0.3667 -0.1885 -0.4286
 6488TIP3   OH240954   1.956   0.977   2.370  0.3358  0.4654 -0.0714
 6488TIP3    H140955   1.926   1.067   2.379 -0.4796  0.2591 -0.7020
 6488TIP3    H240956   2.049   0.985   2.348  0.2181  1.1579 -0.3312
 6489TIP3   OH240957   0.151   5.226   2.712 -0.0752  0.5389  0.0465
 6489TIP3    H140958   0.140   5.182   2.796 -1.2774  0.9068  0.1020
 6489TIP3    H240959   0.112   5.166   2.648 -1.8254  1.5282  0.1385
 6490TIP3   OH240960   1.662   2.162   3.860  0.3924 -0.3820  0.2007
 6490TIP3    H140961   1.674   2.154   3.766  0.1977 -2.1987  0.3178
 6490TIP3    H240962   1.723   2.098   3.898 -0.6062 -0.7205  1.2514
 6491TIP3   OH240963   6.088   6.646   3.327 -0.4092  1.1068 -0.1295
 6491TIP3    H140964   6.178   6.613   3.323 -0.5405  0.7198  0.0611
 6491TIP3    H240965   6.098   6.741   3.328  0.0293  1.0601  0.5640
 6492TIP3   OH240966   0.884   2.786   3.374 -0.0888 -0.0861 -0.1940
 6492TIP3    H140967   0.934   2.737   3.310  0.4274 -1.5427  1.2929
 6492TIP3    H240968   0.950   2.834   3.424 -0.5144  1.3419 -0.9786
 6493TIP3   OH240969   6.516   5.834  14.449 -0.2122 -0.0214 -0.3413
 6493TIP3    H140970   6.574   5.849  14.523 -2.0790  0.2680  1.0947
 6493TIP3    H240971   6.565   5.866  14.373  2.9213 -3.0290  0.3102
 6494TIP3   OH240972   3.534   5.301   5.627  0.5035  0.0346  0.1848
 6494TIP3    H140973   3.534   5.396   5.636  0.9958 -0.0540  1.1462
 6494TIP3    H240974   3.577   5.269   5.706 -0.0201 -1.0097  0.0597
 6495TIP3   OH240975   6.547   6.373  15.202 -0.2512 -0.2059 -0.0911
 6495TIP3    H140976   6.536   6.397  15.110 -2.8842 -0.0012  0.2495
 6495TIP3    H240977   6.634   6.334  15.206  0.0680  0.1632 -2.5820
 6496TIP3   OH240978   5.129   5.653   4.157  0.4123 -0.3603 -0.1513
 6496TIP3    H140979   5.092   5.601   4.085  0.3219  0.2630 -0.5666
 6496TIP3    H240980   5.101   5.743   4.138 -0.4040 -0.3196  1.1829
 6497TIP3   OH240981   2.090   6.394   0.918 -0.0869 -0.9714  0.2125
 6497TIP3    H140982   2.180   6.361   0.912 -0.2249 -1.1007 -1.5113
 6497TIP3    H240983   2.100   6.484   0.948  0.8196 -0.1285 -2.5001
 6498TIP3   OH240984   5.689   3.973   4.887 -0.0389  0.7220  0.2751
 6498TIP3    H140985   5.625   3.972   4.959 -0.3259 -0.5951  0.0056
 6498TIP3    H240986   5.768   4.010   4.926 -0.2030  0.0342  1.2819
 6499TIP3   OH240987   3.473   4.361  11.403 -0.1156 -0.5722  0.3260
 6499TIP3    H140988   3.413   4.345  11.476  0.7292 -1.8286  0.7604
 6499TIP3    H240989   3.441   4.305  11.332 -0.1876 -0.3048  0.1464
 6500TIP3   OH240990   2.433   4.880  15.440  0.8672  0.0558 -0.4418
 6500TIP3    H140991   2.512   4.831  15.417  0.5313 -1.3897  1.3897
 6500TIP3    H240992   2.464   4.951  15.496  1.0401  0.4824 -1.0621
 6501TIP3   OH240993   5.493   1.418  15.855  0.0144  0.8518 -0.0433
 6501TIP3    H140994   5.467   1.388  15.768  1.2307 -1.8510  0.4609
 6501TIP3    H240995   5.454   1.505  15.863 -1.8046  0.3282 -2.4899
 6502TIP3   OH240996   4.394   5.016  13.776  0.0131 -0.3980  0.6805
 6502TIP3    H140997   4.335   5.089  13.795  1.1792  0.9123 -0.6593
 6502TIP3    H240998   4.340   4.955  13.724 -0.4653  0.2855  0.3715
 6503TIP3   OH240999   5.037   6.759  13.451  0.0817 -0.0909 -0.5043
 6503TIP3    H141000   4.984   6.704  13.393 -1.9800  1.4791 -0.1533
 6503TIP3    H241001   5.127   6.743  13.423 -0.7422 -0.8835 -2.8111
 6504TIP3   OH241002   5.969   4.408   4.865  0.2592  0.4593 -0.1668
 6504TIP3    H141003   5.918   4.458   4.801 -1.3390 -0.6673  0.2135
 6504TIP3    H241004   6.037   4.366   4.812 -0.5718  0.1564 -1.0160
 6505TIP3   OH241005   1.524   5.496  16.442 -0.4484  0.2884 -0.6778
 6505TIP3    H141006   1.433   5.470  16.442 -0.1988 -0.5827 -1.2248
 6505TIP3    H241007   1.522   5.591  16.429 -1.3121  0.4353  0.5018
 6506TIP3   OH241008   1.414   2.910   4.649 -0.3209 -0.0002  0.6937
 6506TIP3    H141009   1.357   2.884   4.577  1.2382 -0.5326 -0.3781
 6506TIP3    H241010   1.502   2.908   4.612  0.3292  1.5934  2.0992
 6507TIP3   OH241011   4.701   2.155  12.054 -0.7886  0.1928  0.0969
 6507TIP3    H141012   4.716   2.128  12.145 -0.5526  1.5641  0.4797
 6507TIP3    H241013   4.625   2.103  12.026 -0.1875 -1.0318  0.7127
 6508TIP3   OH241014   1.408   0.380   4.563 -0.5929  0.3261 -0.1965
 6508TIP3    H141015   1.352   0.404   4.637 -0.7620  0.1039 -0.2504
 6508TIP3    H241016   1.450   0.462   4.538  0.5386  0.1430  1.0433
 6509TIP3   OH241017   4.056   3.098   2.516 -0.8042  0.1119  0.1054
 6509TIP3    H141018   3.975   3.148   2.522 -0.5877  0.2607  2.2242
 6509TIP3    H241019   4.100   3.113   2.600  0.0282 -2.3011  0.1461
 6510TIP3   OH241020   5.050   3.483  15.526 -0.1262 -0.0401 -0.0587
 6510TIP3    H141021   5.018   3.422  15.593 -1.5703 -0.0385 -0.7323
 6510TIP3    H241022   5.006   3.455  15.446 -1.0330  2.0763 -0.3118
 6511TIP3   OH241023   3.428   3.857   2.871  0.0500 -1.0770  0.4707
 6511TIP3    H141024   3.522   3.842   2.867 -0.0168 -1.6100  0.7364
 6511TIP3    H241025   3.394   3.824   2.788  0.5206  2.5230 -1.2276
 6512TIP3   OH241026   3.488   4.150  16.411  0.8654 -0.2104 -0.2774
 6512TIP3    H141027   3.418   4.106  16.460  0.7409 -0.8868 -1.0490
 6512TIP3    H241028   3.455   4.239  16.396  1.3187  0.3197  1.7106
 6513TIP3   OH241029   2.751   1.314   5.516  0.6867 -0.2062  0.0911
 6513TIP3    H141030   2.787   1.245   5.572  2.4790 -0.3117 -1.1174
 6513TIP3    H241031   2.821   1.379   5.510 -0.4688  1.0625  0.0913
 6514TIP3   OH241032   6.631   1.299  12.684 -0.1838 -0.1561 -0.4770
 6514TIP3    H141033   6.707   1.337  12.726 -0.7024  0.4261 -0.0687
 6514TIP3    H241034   6.609   1.223  12.738 -0.7370  0.4830  0.2139
 6515TIP3   OH241035   6.329   5.962   2.863  0.6110 -0.1194  0.6191
 6515TIP3    H141036   6.315   6.042   2.812 -0.2952 -0.6227  0.0558
 6515TIP3    H241037   6.248   5.952   2.913  0.6485 -0.7868  0.5445
 6516TIP3   OH241038   6.010   4.868   2.300  0.5372  0.2852  0.0839
 6516TIP3    H141039   5.948   4.929   2.341  1.1524  1.1141 -0.2228
 6516TIP3    H241040   5.955   4.810   2.247 -0.3045 -0.9012  2.1673
 6517TIP3   OH241041   0.083   0.818   4.578 -0.3571 -0.3748  0.4161
 6517TIP3    H141042   0.137   0.830   4.656 -0.3887  0.7141  0.2826
 6517TIP3    H241043   0.104   0.894   4.523  0.8588 -1.9315 -1.3326
 6518TIP3   OH241044   5.917   5.014   0.029 -0.0477  0.0715 -0.2667
 6518TIP3    H141045   5.942   5.102   0.001 -1.4727  0.5756  0.0090
 6518TIP3    H241046   5.847   5.028   0.093 -1.6309 -1.3207 -1.6581
 6519TIP3   OH241047   1.333   3.484  11.761 -0.2231  0.4188  0.6216
 6519TIP3    H141048   1.349   3.577  11.778 -2.1307  0.5888  1.6496
 6519TIP3    H241049   1.240   3.472  11.780 -0.4348 -1.3112 -1.3631
 6520TIP3   OH241050   6.494   2.438   0.633  0.3663 -0.3359 -0.1961
 6520TIP3    H141051   6.579   2.451   0.590  0.9886 -0.5716  0.9398
 6520TIP3    H241052   6.508   2.362   0.689  0.0655  0.9833  1.6976
 6521TIP3   OH241053   1.139   6.571   4.561 -0.4701  0.4840  0.1847
 6521TIP3    H141054   1.179   6.518   4.630 -1.3474 -1.1347 -0.5411
 6521TIP3    H241055   1.082   6.632   4.609 -1.3700 -0.8792  0.8935
 6522TIP3   OH241056   3.497   6.369  11.803  0.2220  0.4298  0.2617
 6522TIP3    H141057   3.470   6.321  11.881 -1.4433 -1.4084 -1.3801
 6522TIP3    H241058   3.437   6.443  11.798  0.1484  0.3892  0.5602
 6523TIP3   OH241059   3.598   4.729   2.454  0.2375  0.2315 -0.6022
 6523TIP3    H141060   3.571   4.687   2.536 -0.8370 -0.3648 -1.2507
 6523TIP3    H241061   3.685   4.694   2.437  1.2075  1.7255  1.2104
 6524TIP3   OH241062   1.277   3.016  13.275 -0.1490 -0.1632  0.4365
 6524TIP3    H141063   1.216   3.023  13.348  0.7563  0.4972  1.1430
 6524TIP3    H241064   1.223   3.030  13.197 -1.3895 -2.3154  0.8746
 6525TIP3   OH241065   6.327   6.636  12.075  0.3219  0.4731  0.3515
 6525TIP3    H141066   6.341   6.682  11.992  2.9268  0.9752  1.0545
 6525TIP3    H241067   6.346   6.545  12.055  0.3210  0.4926  0.2596
 6526TIP3   OH241068   1.837   2.733  13.154  0.0750 -0.2355 -0.5110
 6526TIP3    H141069   1.782   2.773  13.220 -3.1243 -2.0708 -1.9726
 6526TIP3    H241070   1.849   2.801  13.088 -0.9845 -0.0157 -0.4826
 6527TIP3   OH241071   3.150   4.071  13.849  0.2189 -0.0240 -0.2551
 6527TIP3    H141072   3.203   4.086  13.770 -0.5776  0.1104 -0.7713
 6527TIP3    H241073   3.162   3.978  13.868  0.5340 -0.0231 -0.4464
 6528TIP3   OH241074   5.295   0.487  14.901  0.0187  0.1371  0.4373
 6528TIP3    H141075   5.325   0.575  14.878 -1.3354  0.6176  0.4842
 6528TIP3    H241076   5.298   0.486  14.997 -0.4467  0.3032  0.4534
 6529TIP3   OH241077   3.750   5.236  13.200 -0.3247  0.1569  0.1056
 6529TIP3    H141078   3.815   5.190  13.147 -0.3786  0.3312 -0.1118
 6529TIP3    H241079   3.672   5.181  13.195 -0.2751  0.0826  0.1498
 6530TIP3   OH241080   5.685   6.226   6.482 -0.2212  0.0038 -0.0341
 6530TIP3    H141081   5.651   6.315   6.473 -0.5011  0.0449  1.4170
 6530TIP3    H241082   5.776   6.239   6.511  0.2418 -0.1638 -1.3501
 6531TIP3   OH241083   0.075   5.973   3.616  0.2156 -0.0733  0.2410
 6531TIP3    H141084   0.116   6.040   3.562 -0.3708  0.0874 -0.0071
 6531TIP3    H241085   0.016   5.927   3.557 -2.0670  1.5031  1.2372
 6532TIP3   OH241086   1.028   0.528   5.167 -0.1766  0.3149 -0.2363
 6532TIP3    H141087   0.957   0.478   5.206  0.5445 -1.1704 -0.7938
 6532TIP3    H241088   1.106   0.475   5.184  0.5712  1.1591 -1.0094
 6533TIP3   OH241089   4.901   6.719   6.293 -0.3229 -0.1473  0.4854
 6533TIP3    H141090   4.926   6.627   6.301 -0.2435 -0.2587 -0.9754
 6533TIP3    H241091   4.806   6.717   6.282 -0.2501 -0.0966 -0.1684
 6534TIP3   OH241092   6.800   4.721  16.288  0.1536  0.3511  0.7741
 6534TIP3    H141093   6.738   4.707  16.359  0.5669 -0.5973  0.9635
 6534TIP3    H241094   6.863   4.784  16.323  0.6469 -0.5045  1.4382
 6535TIP3   OH241095   3.127   4.304  14.866  0.5225  0.0205 -0.6985
 6535TIP3    H141096   3.040   4.292  14.828 -0.4025  0.1033  1.3165
 6535TIP3    H241097   3.158   4.387  14.831 -2.1691  2.3183  2.1318
 6536TIP3   OH241098   3.934   5.336  15.633  0.2024  0.6869 -0.0253
 6536TIP3    H141099   3.865   5.395  15.665  2.0388  2.4269  0.8220
 6536TIP3    H241100   3.912   5.251  15.672 -1.3516  1.2562  0.4037
 6537TIP3   OH241101   0.939   4.701  12.361  0.0357 -0.2306  0.2424
 6537TIP3    H141102   0.900   4.696  12.449  0.5906 -1.9156  0.4156
 6537TIP3    H241103   0.886   4.766  12.315  0.2761  1.3543  2.0912
 6538TIP3   OH241104   4.610   5.883  13.467 -0.2635 -0.6120  0.3271
 6538TIP3    H141105   4.536   5.943  13.456 -0.3442 -0.5987  0.9067
 6538TIP3    H241106   4.577   5.799  13.435  0.1370 -0.1546 -1.3059
 6539TIP3   OH241107   1.298   4.147   4.364  0.1774  0.0384  0.3405
 6539TIP3    H141108   1.229   4.136   4.298 -1.2649  1.3574  1.6038
 6539TIP3    H241109   1.272   4.223   4.415  1.3054 -0.8983  2.4066
 6540TIP3   OH241110   4.773   0.036   3.328  0.0304 -0.6057  0.3601
 6540TIP3    H141111   4.864   0.066   3.336  0.1109  0.4841 -3.5319
 6540TIP3    H241112   4.721   0.111   3.357  0.3700 -0.4359  0.5367
 6541TIP3   OH241113   6.288   3.346  13.439  0.1414 -0.9616 -0.1021
 6541TIP3    H141114   6.256   3.383  13.521 -0.8329  0.0537 -0.9193
 6541TIP3    H241115   6.288   3.251  13.454 -0.1899 -0.7940  1.0019
 6542TIP3   OH241116   5.079   0.887  17.020  0.1090 -0.1253  0.0561
 6542TIP3    H141117   5.067   0.917  17.110  1.7439  2.3118 -0.4803
 6542TIP3    H241118   4.994   0.900  16.979 -0.4461 -0.5740  1.0569
 6543TIP3   OH241119   4.694   0.154  10.992 -0.2269  0.6261 -0.3560
 6543TIP3    H141120   4.715   0.201  10.911  0.5026  0.5890 -0.1915
 6543TIP3    H241121   4.741   0.201  11.060  2.1043 -1.4598 -0.4463
 6544TIP3   OH241122   4.847   3.303   5.829  0.1202 -0.0621 -0.1182
 6544TIP3    H141123   4.797   3.225   5.854 -0.6896  0.1585 -1.0245
 6544TIP3    H241124   4.938   3.279   5.845 -0.3665  0.1316  3.1624
 6545TIP3   OH241125   3.622   0.535   4.502 -0.4592 -0.2161 -0.0057
 6545TIP3    H141126   3.690   0.479   4.466  1.5521  3.2504 -1.9155
 6545TIP3    H241127   3.576   0.569   4.425 -1.8800  0.4188  1.1058
 6546TIP3   OH241128   5.199   4.067   0.438  0.0294  0.4996 -0.4022
 6546TIP3    H141129   5.278   4.030   0.477 -0.2005  0.2120 -0.2081
 6546TIP3    H241130   5.211   4.161   0.443  0.5902  0.4523 -0.8413
 6547TIP3   OH241131   3.541   4.598   2.685  0.2849  0.1467  0.0505
 6547TIP3    H141132   3.542   4.654   2.762 -0.9286  0.9558 -0.5199
 6547TIP3    H241133   3.608   4.532   2.703  0.2776  0.5531  1.6232
 6548TIP3   OH241134   1.884   0.819   6.076 -0.2552  0.1818 -0.5776
 6548TIP3    H141135   1.883   0.787   6.166  1.0383 -0.6668 -0.8562
 6548TIP3    H241136   1.792   0.836   6.055 -0.5911  0.0501  0.7793
 6549TIP3   OH241137   6.626   3.807   3.060  1.2076 -0.4755  0.1045
 6549TIP3    H141138   6.708   3.794   3.013  1.7122  2.8665 -0.0978
 6549TIP3    H241139   6.619   3.902   3.070 -1.3806 -0.8292  2.3738
 6550TIP3   OH241140   5.794   1.502  10.988  0.1628 -0.7648  0.1417
 6550TIP3    H141141   5.701   1.512  11.006  0.1423  2.8442 -1.5718
 6550TIP3    H241142   5.797   1.454  10.905 -0.1485 -0.5711  0.0204
 6551TIP3   OH241143   3.830   2.948  13.158 -0.3510  0.0508  0.1021
 6551TIP3    H141144   3.920   2.916  13.155 -0.3731 -0.1926  1.6305
 6551TIP3    H241145   3.837   3.043  13.146  0.0378 -0.0564 -0.5208
 6552TIP3   OH241146   2.838   5.214   3.623 -0.5525 -0.2066 -0.1768
 6552TIP3    H141147   2.889   5.295   3.632 -1.7629  0.6964 -1.4648
 6552TIP3    H241148   2.766   5.225   3.685 -1.9257  0.6501 -1.9011
 6553TIP3   OH241149   6.598   4.965   0.129  0.0475  0.5008 -0.4853
 6553TIP3    H141150   6.550   4.965   0.046  1.6917 -1.9129 -1.4939
 6553TIP3    H241151   6.684   5.000   0.106  0.1367  0.8910  0.4471
 6554TIP3   OH241152   0.323   1.758  16.189 -0.0641 -0.1336  0.1387
 6554TIP3    H141153   0.284   1.678  16.224 -0.0647 -0.3135 -0.2705
 6554TIP3    H241154   0.280   1.828  16.237 -1.1916 -0.3118 -0.5736
 6555TIP3   OH241155   0.424   3.184  11.561 -0.0854  0.1674  0.6702
 6555TIP3    H141156   0.430   3.094  11.529 -0.9198 -0.0733  1.1848
 6555TIP3    H241157   0.419   3.237  11.482 -0.0604 -0.2716  0.3705
 6556TIP3   OH241158   2.507   4.707  15.136 -0.4589 -0.1239 -0.1730
 6556TIP3    H141159   2.441   4.681  15.200 -0.0120 -0.0395  0.3256
 6556TIP3    H241160   2.458   4.726  15.056 -0.8832 -1.6038 -0.2667
 6557TIP3   OH241161   5.989   0.699   5.740 -0.1747  0.1413 -0.1350
 6557TIP3    H141162   6.024   0.730   5.657 -0.7935 -0.3706 -0.5961
 6557TIP3    H241163   5.941   0.774   5.776  0.8453  0.6391  0.1896
 6558TIP3   OH241164   6.637   4.992  14.205 -0.5955 -0.2317 -0.0253
 6558TIP3    H141165   6.613   5.001  14.113  1.6950  0.9940 -0.5348
 6558TIP3    H241166   6.715   4.936  14.203 -1.2575 -1.2249  1.2881
 6559TIP3   OH241167   2.395   5.681   2.167 -0.4122 -0.2783  0.5094
 6559TIP3    H141168   2.406   5.653   2.258 -1.5372  0.7543  0.9709
 6559TIP3    H241169   2.484   5.701   2.138 -0.0751 -0.3128  1.4837
 6560TIP3   OH241170   1.320   5.808  16.053 -0.2687  0.6001  0.4767
 6560TIP3    H141171   1.312   5.881  15.992 -0.7561  0.8883  0.8783
 6560TIP3    H241172   1.335   5.849  16.138  2.1564  0.1570  0.3075
 6561TIP3   OH241173   4.483   5.391   2.397  0.2666 -0.0848 -0.2265
 6561TIP3    H141174   4.459   5.302   2.422  0.3944  0.1403  0.7179
 6561TIP3    H241175   4.492   5.388   2.301  2.2834 -1.5984 -0.0311
 6562TIP3   OH241176   0.878   1.021   4.835  0.0881  0.0034 -0.1123
 6562TIP3    H141177   0.928   0.982   4.764 -0.5388  1.7675 -1.5557
 6562TIP3    H241178   0.914   1.109   4.844 -2.5439  1.2408 -1.0320
 6563TIP3   OH241179   5.410   1.254  13.759 -0.1790 -0.1170 -0.0875
 6563TIP3    H141180   5.432   1.162  13.775 -0.3260  0.0469  1.1560
 6563TIP3    H241181   5.478   1.303  13.806  0.5804  0.4192 -1.7385
 6564TIP3   OH241182   0.309   3.417  14.028 -0.2278  0.0941  0.7810
 6564TIP3    H141183   0.227   3.435  13.981  0.5645  1.8859  0.0386
 6564TIP3    H241184   0.287   3.431  14.120 -0.9998 -0.3280  0.6590
 6565TIP3   OH241185   5.126   0.474   5.175 -0.2889 -0.0753 -0.0725
 6565TIP3    H141186   5.164   0.403   5.227  1.0026  0.9327  0.4060
 6565TIP3    H241187   5.033   0.475   5.198  0.4108  0.8959  2.8983
 6566TIP3   OH241188   1.405   5.225  14.751  0.2659  0.4259 -0.3702
 6566TIP3    H141189   1.440   5.261  14.670  1.5113 -1.2016 -0.5816
 6566TIP3    H241190   1.315   5.257  14.755  1.3139  3.5848 -0.4990
 6567TIP3   OH241191   4.112   0.719   2.915  0.1861 -0.1113 -0.1187
 6567TIP3    H141192   4.079   0.807   2.926 -3.0736 -1.5365  2.1137
 6567TIP3    H241193   4.189   0.714   2.972  0.5294  1.3111 -0.4520
 6568TIP3   OH241194   3.460   1.729   3.687 -0.3659 -0.1011  0.4603
 6568TIP3    H141195   3.415   1.747   3.604  0.2034  0.2820  0.2322
 6568TIP3    H241196   3.391   1.696   3.745 -0.3198 -2.8052 -0.9413
 6569TIP3   OH241197   6.067   0.150  15.706  0.1127 -0.0394 -0.1524
 6569TIP3    H141198   6.056   0.187  15.618  0.7032  0.0402 -0.1918
 6569TIP3    H241199   6.003   0.079  15.709  0.2953 -0.2363 -0.7553
 6570TIP3   OH241200   3.312   5.715  14.374  0.2309 -0.3102  0.0042
 6570TIP3    H141201   3.301   5.775  14.300  0.2296 -2.0857 -1.4575
 6570TIP3    H241202   3.281   5.765  14.450 -0.1882  1.3708 -1.2426
 6571TIP3   OH241203   6.476   5.886  15.902 -0.3637 -0.2986 -0.0666
 6571TIP3    H141204   6.507   5.948  15.969 -1.0488 -0.4012  0.3556
 6571TIP3    H241205   6.556   5.859  15.856 -0.2472  2.2518 -1.4512
 6572TIP3   OH241206   3.966   1.404  15.013 -0.2358  0.5390  0.2385
 6572TIP3    H141207   3.933   1.493  15.009 -0.3914  0.4509 -0.5675
 6572TIP3    H241208   4.054   1.412  15.050 -0.0762  1.0757 -0.2570
 6573TIP3   OH241209   1.427   1.500   0.918 -0.3730  0.4153 -0.1435
 6573TIP3    H141210   1.421   1.433   0.850 -0.2954 -0.0095  0.2617
 6573TIP3    H241211   1.360   1.565   0.895 -0.9988 -0.2084 -0.0953
 6574TIP3   OH241212   4.269   5.592   5.989  0.7355  0.2362 -0.1493
 6574TIP3    H141213   4.329   5.560   6.056 -0.0492  1.0064  0.9426
 6574TIP3    H241214   4.325   5.621   5.918  1.6901  1.3845  1.0409
 6575TIP3   OH241215   0.037   2.461   4.951  0.0326  0.3884 -0.4795
 6575TIP3    H141216   0.036   2.448   4.856  1.4353 -1.1169 -0.3053
 6575TIP3    H241217   0.108   2.523   4.966 -0.2758  0.7296 -0.4151
 6576TIP3   OH241218   5.572   1.616   0.555 -0.5679 -0.4944  0.1562
 6576TIP3    H141219   5.609   1.572   0.632 -1.2883 -0.8035  0.3377
 6576TIP3    H241220   5.489   1.570   0.540 -1.0289  0.4020 -0.0341
 6577TIP3   OH241221   3.236   3.594  14.805  0.0411  0.3398 -0.1850
 6577TIP3    H141222   3.160   3.535  14.809 -0.2120  0.6746  0.0261
 6577TIP3    H241223   3.211   3.668  14.860  0.6613  0.2981  0.1593
 6578TIP3   OH241224   0.095   0.120  14.813 -0.8181  0.2334 -0.0049
 6578TIP3    H141225   0.100   0.044  14.755  1.6844 -0.5580  1.1428
 6578TIP3    H241226   0.114   0.085  14.900 -1.5027  1.8827  0.8301
 6579TIP3   OH241227   0.874   2.282   5.049 -1.1139 -0.4369 -0.3130
 6579TIP3    H141228   0.880   2.244   4.961 -0.8098  2.0080 -1.3908
 6579TIP3    H241229   0.809   2.352   5.040  0.6011  1.3279  0.8303
 6580TIP3   OH241230   1.570   1.311  15.405 -0.0290 -0.1898  0.3248
 6580TIP3    H141231   1.479   1.281  15.398  0.0947 -0.6543  0.7199
 6580TIP3    H241232   1.567   1.383  15.468 -0.1109 -0.2469  0.3856
 6581TIP3   OH241233   5.690   5.860  12.877  0.6212  0.0941 -0.4302
 6581TIP3    H141234   5.651   5.877  12.791 -0.7721 -0.8891  0.0025
 6581TIP3    H241235   5.729   5.944  12.902 -0.9444  1.0084 -1.0001
 6582TIP3   OH241236   1.313   3.777   0.641 -0.1309  0.1046 -0.2010
 6582TIP3    H141237   1.261   3.840   0.690 -0.7339 -0.7032  0.2113
 6582TIP3    H241238   1.277   3.692   0.666  0.6350 -0.3981 -0.7936
 6583TIP3   OH241239   2.656   6.594   5.791  0.2567  0.2372  0.0118
 6583TIP3    H141240   2.661   6.510   5.836  1.3037  1.6311  2.6475
 6583TIP3    H241241   2.720   6.588   5.720 -0.6660 -1.6458 -0.6955
 6584TIP3   OH241242   1.377   0.014   2.955 -0.5423  0.3415 -0.2358
 6584TIP3    H141243   1.282   0.023   2.954 -0.6557 -0.2911  2.2157
 6584TIP3    H241244   1.408   0.089   3.004  0.2380  0.5505 -1.0333
 6585TIP3   OH241245   0.438   3.615   2.576  0.2618  0.3152  0.0165
 6585TIP3    H141246   0.452   3.710   2.585  0.4857  0.3411 -0.6275
 6585TIP3    H241247   0.348   3.602   2.606  0.4960  0.6186  0.8841
 6586TIP3   OH241248   6.810   5.009  15.077 -0.1929 -0.3606 -0.4518
 6586TIP3    H141249   6.772   4.945  15.018  0.8799 -0.0002 -1.5445
 6586TIP3    H241250   6.809   5.091  15.028  1.1645 -0.1563 -0.1586
 6587TIP3   OH241251   0.476   5.270   1.507 -1.0141  0.0104 -0.2011
 6587TIP3    H141252   0.537   5.256   1.434 -0.7401  1.3435 -0.2492
 6587TIP3    H241253   0.515   5.223   1.580  0.5233  1.4920 -0.0215
 6588TIP3   OH241254   6.637   6.206  15.612 -0.0172  0.0810 -0.1707
 6588TIP3    H141255   6.697   6.223  15.539  0.1469  2.1573  0.4356
 6588TIP3    H241256   6.603   6.292  15.636 -1.0932 -0.7472  1.3480
 6589TIP3   OH241257   1.197   1.167  12.671 -0.5400  0.1746 -0.7371
 6589TIP3    H141258   1.137   1.219  12.618  0.3821 -0.2645 -2.2506
 6589TIP3    H241259   1.230   1.100  12.611  1.2486  0.2613  0.1121
 6590TIP3   OH241260   5.978   6.009   4.475 -0.6008  0.0101  0.7592
 6590TIP3    H141261   5.988   5.928   4.425  0.7106  0.5826  0.0764
 6590TIP3    H241262   5.987   6.079   4.410  2.7372  0.8191  1.9510
 6591TIP3   OH241263   3.165   3.071   4.551 -0.0238 -0.0000 -0.3338
 6591TIP3    H141264   3.124   3.120   4.479  1.0479 -1.1197 -1.7358
 6591TIP3    H241265   3.095   3.015   4.585 -0.5542  0.5751 -0.4668
 6592TIP3   OH241266   6.216   1.207  11.917 -0.1390  0.0666  0.1253
 6592TIP3    H141267   6.122   1.211  11.900 -0.0503 -0.5219 -0.5056
 6592TIP3    H241268   6.252   1.283  11.872 -0.2544  0.0256 -0.0367
 6593TIP3   OH241269   0.552   1.493  16.326  0.5116 -0.4665 -0.2883
 6593TIP3    H141270   0.614   1.423  16.303  2.2431  1.0553 -0.3965
 6593TIP3    H241271   0.608   1.564  16.358 -1.2228  0.8477 -0.1299
 6594TIP3   OH241272   6.698   2.449   1.372  0.3978 -0.0066  0.0607
 6594TIP3    H141273   6.719   2.528   1.323 -0.0730  0.6742  0.9441
 6594TIP3    H241274   6.698   2.379   1.307 -1.2679  1.0485 -1.0915
 6595TIP3   OH241275   5.996   5.307   6.701  0.3157 -0.0524  0.4815
 6595TIP3    H141276   5.965   5.282   6.788  0.1200 -1.2313  0.0802
 6595TIP3    H241277   6.081   5.265   6.693 -0.3125 -1.1816 -0.4620
 6596TIP3   OH241278   6.760   1.823  11.739  0.2317  0.5549  0.3818
 6596TIP3    H141279   6.815   1.883  11.790 -0.8172  0.4105  1.7106
 6596TIP3    H241280   6.674   1.827  11.781  0.2433 -2.2272  0.8133
 6597TIP3   OH241281   3.138   2.925  15.596  0.4474  0.1250  0.1089
 6597TIP3    H141282   3.203   2.870  15.553  1.0274  0.7516  0.1677
 6597TIP3    H241283   3.078   2.863  15.638  0.5763 -0.4673 -0.5717
 6598TIP3   OH241284   4.711   1.069  11.211 -0.1805  0.4000  0.2882
 6598TIP3    H141285   4.779   1.002  11.213  1.1000  1.7314  1.6841
 6598TIP3    H241286   4.758   1.151  11.198 -1.6861  1.1216 -0.6919
 6599TIP3   OH241287   4.915   2.006   5.245  0.1479 -0.3101  0.6767
 6599TIP3    H141288   4.987   2.065   5.267 -0.8102  0.5695  1.5443
 6599TIP3    H241289   4.906   1.951   5.323 -0.5180  0.0109  0.8331
 6600TIP3   OH241290   2.204   3.872  15.425 -0.2266  0.0974  0.4140
 6600TIP3    H141291   2.162   3.840  15.505  0.9335  1.1963  1.4778
 6600TIP3    H241292   2.162   3.957  15.408 -0.9075 -0.4105 -0.5047
 6601TIP3   OH241293   5.059   4.653  13.717 -0.0434 -0.1516 -0.9970
 6601TIP3    H141294   5.020   4.656  13.804 -0.3110  3.4255 -1.1501
 6601TIP3    H241295   4.993   4.610  13.662 -0.6904 -0.6323  0.1508
 6602TIP3   OH241296   5.248   1.023   4.573 -0.1678 -0.4047  0.3892
 6602TIP3    H141297   5.240   1.055   4.483  0.4255 -1.9654 -0.2376
 6602TIP3    H241298   5.212   0.934   4.570 -0.8852 -0.1848  1.8768
 6603TIP3   OH241299   6.161   1.351  15.576  0.2184 -0.1683 -0.6628
 6603TIP3    H141300   6.194   1.292  15.509  1.7247 -0.2970  0.1683
 6603TIP3    H241301   6.236   1.366  15.634 -0.8337  0.5579  0.5438
 6604TIP3   OH241302   5.342   3.396  12.908  0.2324 -0.4958 -0.0495
 6604TIP3    H141303   5.302   3.369  12.825 -0.5934  0.8342 -0.1040
 6604TIP3    H241304   5.364   3.314  12.952 -1.6333 -1.2612 -0.4830
 6605TIP3   OH241305   1.183   6.621  13.607  0.3321 -0.3841 -0.2044
 6605TIP3    H141306   1.208   6.571  13.530  0.1562  0.7136 -0.9807
 6605TIP3    H241307   1.255   6.683  13.620  1.4084 -2.0064  1.8145
 6606TIP3   OH241308   3.433   0.895  12.939 -0.3004  0.2076 -0.2644
 6606TIP3    H141309   3.480   0.971  12.905  0.9430 -0.8376 -0.9715
 6606TIP3    H241310   3.397   0.923  13.022 -3.6730  2.9521 -2.5338
 6607TIP3   OH241311   3.796   0.655  16.691 -0.0217 -0.3453 -0.5957
 6607TIP3    H141312   3.818   0.693  16.776  0.1814  1.2179 -1.3171
 6607TIP3    H241313   3.705   0.681  16.676  0.6894  1.4554 -1.9195
 6608TIP3   OH241314   5.488   3.886  12.020  0.4974 -0.6143 -0.3495
 6608TIP3    H141315   5.556   3.953  12.020 -0.3129  0.2325 -0.9493
 6608TIP3    H241316   5.448   3.892  12.107  0.3548 -0.2345 -0.4389
 6609TIP3   OH241317   5.639   3.430  15.502 -0.1385  0.2760  0.2316
 6609TIP3    H141318   5.571   3.370  15.534  0.2883  1.0800  2.7541
 6609TIP3    H241319   5.721   3.380  15.509 -0.0075  0.5482  0.7159
 6610TIP3   OH241320   5.013   1.383  14.348 -0.2240 -0.1984 -0.2054
 6610TIP3    H141321   4.928   1.389  14.392  0.0167  0.3072  0.1971
 6610TIP3    H241322   5.072   1.349  14.415 -0.1086 -0.5376 -0.4815
 6611TIP3   OH241323   1.080   0.484   1.248 -0.2731 -0.2181 -0.5152
 6611TIP3    H141324   1.098   0.390   1.252  1.7545  0.0989 -1.5691
 6611TIP3    H241325   1.118   0.520   1.328  1.1710  0.0422 -1.3114
 6612TIP3   OH241326   2.927   5.092  16.005 -0.2364 -0.6244 -1.0518
 6612TIP3    H141327   2.860   5.037  16.046 -2.1219  2.1263 -0.3684
 6612TIP3    H241328   2.987   5.113  16.077  0.0603 -1.0999 -1.1527
 6613TIP3   OH241329   4.306   4.979   4.248  0.0357 -0.1031 -0.2418
 6613TIP3    H141330   4.228   5.001   4.298  0.3820  1.2500 -0.2715
 6613TIP3    H241331   4.378   4.989   4.310  0.2600 -0.6792 -0.4021
 6614TIP3   OH241332   6.094   1.217   1.585  0.2530 -0.3279 -0.1714
 6614TIP3    H141333   6.164   1.272   1.550 -0.7288  0.5286 -0.8336
 6614TIP3    H241334   6.137   1.161   1.650  1.0552  2.0955  1.4614
 6615TIP3   OH241335   6.001   6.495  13.254 -0.5080  0.4313 -0.7703
 6615TIP3    H141336   6.053   6.527  13.180  0.6745 -0.0302 -0.1503
 6615TIP3    H241337   5.911   6.510  13.228 -0.1632 -0.9958 -2.9052
 6616TIP3   OH241338   0.303   5.145   6.666 -0.1433 -0.2554  0.3354
 6616TIP3    H141339   0.258   5.117   6.746 -1.3712  1.6280  0.3256
 6616TIP3    H241340   0.237   5.191   6.616  0.5880 -1.5183 -1.8618
 6617TIP3   OH241341   4.727   0.647  15.347 -0.3171  0.1827 -0.2547
 6617TIP3    H141342   4.759   0.723  15.299 -2.2040  1.1411 -0.0470
 6617TIP3    H241343   4.637   0.670  15.371 -0.9156 -2.1126 -0.1786
 6618TIP3   OH241344   3.501   2.916  15.485  0.2396  0.0472  0.2663
 6618TIP3    H141345   3.504   3.004  15.449  2.4989 -0.7426 -1.6290
 6618TIP3    H241346   3.544   2.923  15.570  2.2795  0.4634 -0.7438
 6619TIP3   OH241347   2.064   0.934  15.322 -0.6524 -0.0196  0.5950
 6619TIP3    H141348   2.039   0.856  15.372  3.4724 -1.3980  0.7192
 6619TIP3    H241349   2.131   0.976  15.376  0.3510  1.1572 -1.5039
 6620TIP3   OH241350   0.713   5.582  17.069 -0.2082  0.0074 -0.0681
 6620TIP3    H141351   0.669   5.607  16.987  0.9474 -0.0697 -0.7255
 6620TIP3    H241352   0.806   5.575  17.045  0.2529  0.8234  1.4651
 6621TIP3   OH241353   5.305   2.148   1.202  0.0794 -0.4516 -0.7095
 6621TIP3    H141354   5.220   2.178   1.236 -0.7395 -2.2697 -1.0416
 6621TIP3    H241355   5.369   2.181   1.264 -0.8245  1.3326 -0.6848
 6622TIP3   OH241356   0.065   4.455   6.465 -0.8693 -0.1947 -0.1478
 6622TIP3    H141357   0.113   4.507   6.529  0.6862 -1.1382 -0.5277
 6622TIP3    H241358   0.108   4.370   6.465 -1.6624 -0.6237 -1.5114
 6623TIP3   OH241359   4.811   3.012   4.838 -0.2365 -0.1770  0.0517
 6623TIP3    H141360   4.818   3.098   4.881 -0.1118  0.7021 -1.6660
 6623TIP3    H241361   4.757   3.029   4.760 -0.5460 -1.7464 -0.0919
 6624TIP3   OH241362   3.058   4.131  16.847  0.0927 -0.3976 -0.4058
 6624TIP3    H141363   3.066   4.045  16.888  0.6415 -1.2136 -2.1831
 6624TIP3    H241364   2.995   4.117  16.776  2.3554 -0.0545 -2.5372
 6625TIP3   OH241365   3.608   3.862   2.069  0.2864  0.3565  0.3801
 6625TIP3    H141366   3.554   3.929   2.112 -1.7347 -0.5102 -0.7395
 6625TIP3    H241367   3.619   3.794   2.135 -0.3638  0.3361  0.4666
 6626TIP3   OH241368   1.701   0.531  12.202 -0.0133 -0.0325  0.7557
 6626TIP3    H141369   1.756   0.602  12.169 -0.9119  0.4424  0.2530
 6626TIP3    H241370   1.612   0.554  12.174 -0.9334  0.7288  4.0859
 6627TIP3   OH241371   0.550   5.857  16.517 -0.2934  0.0466 -0.7769
 6627TIP3    H141372   0.553   5.949  16.541  1.6846 -0.0815 -0.5053
 6627TIP3    H241373   0.541   5.857  16.422 -0.6829  0.5144 -0.7422
 6628TIP3   OH241374   6.397   3.871   6.295 -0.3860  0.2398 -0.4074
 6628TIP3    H141375   6.304   3.857   6.311 -0.3946  0.8340  0.0852
 6628TIP3    H241376   6.440   3.837   6.374 -0.1461 -0.5060 -0.8501
 6629TIP3   OH241377   0.529   5.370   4.132 -0.3119 -0.1050  0.2464
 6629TIP3    H141378   0.557   5.350   4.042  2.2104 -1.0679  1.1937
 6629TIP3    H241379   0.573   5.304   4.186 -0.1518  1.7169  2.4073
 6630TIP3   OH241380   1.087   1.935  11.413 -0.4728 -0.0017 -0.4120
 6630TIP3    H141381   1.075   1.903  11.324  0.2354 -0.7397 -0.2455
 6630TIP3    H241382   1.162   1.993  11.408  0.8374 -1.6153  0.0788
 6631TIP3   OH241383   2.631   2.474  16.775 -0.7380  0.2430  0.1458
 6631TIP3    H141384   2.706   2.449  16.829 -1.3609 -4.8865 -1.1132
 6631TIP3    H241385   2.669   2.495  16.689 -0.5442  0.0005  0.1736
 6632TIP3   OH241386   4.576   2.286  16.308  0.1721 -0.2571  0.3542
 6632TIP3    H141387   4.592   2.247  16.394 -1.8281 -2.1391 -0.0916
 6632TIP3    H241388   4.564   2.211  16.250  0.5324  1.0162 -1.3856
 6633TIP3   OH241389   6.034   1.587  16.973  0.8189  0.3678 -0.0280
 6633TIP3    H141390   6.051   1.502  16.933 -2.0883 -0.2086 -0.1647
 6633TIP3    H241391   6.063   1.651  16.907 -0.3890 -0.5620 -1.4895
 6634TIP3   OH241392   3.103   6.451  11.253  0.2252 -0.4929 -0.1620
 6634TIP3    H141393   3.138   6.369  11.219  0.4800 -0.3033 -0.3564
 6634TIP3    H241394   3.058   6.426  11.334 -0.2054 -0.9130 -0.5287
 6635TIP3   OH241395   4.270   2.129   2.706  0.0356 -0.6138 -0.4513
 6635TIP3    H141396   4.230   2.166   2.628 -1.4145 -1.0847  0.0537
 6635TIP3    H241397   4.199   2.082   2.750  0.4698  0.8397  1.9051
 6636TIP3   OH241398   0.185   2.195   2.231 -0.1471  0.2754 -0.0515
 6636TIP3    H141399   0.278   2.215   2.218 -0.4261  1.5426 -0.1762
 6636TIP3    H241400   0.165   2.129   2.165  1.0757 -1.2661  1.0890
 6637TIP3   OH241401   6.462   1.306  13.821 -0.2044  0.1904  0.2342
 6637TIP3    H141402   6.397   1.344  13.762  0.0347  1.1756  0.5830
 6637TIP3    H241403   6.433   1.216  13.835 -0.7195  0.2069 -0.7162
 6638TIP3   OH241404   0.426   0.057  12.092 -0.2138  0.1903  0.1644
 6638TIP3    H141405   0.462   0.090  12.010  2.1696 -1.5792  0.4474
 6638TIP3    H241406   0.415  -0.037  12.078 -1.1077  0.0877  1.4154
 6639TIP3   OH241407   3.660   2.071  15.502 -0.9060  0.1093  0.6289
 6639TIP3    H141408   3.688   2.077  15.593  0.4553  2.2604  0.1046
 6639TIP3    H241409   3.698   1.989  15.470 -0.4035 -0.0639  1.6620
 6640TIP3   OH241410   5.060   5.987   5.246  0.3580  0.3097  0.3702
 6640TIP3    H141411   5.087   5.924   5.179 -1.6030 -0.5654  0.3750
 6640TIP3    H241412   5.125   6.057   5.241  0.3392  0.1781 -2.3246
 6641TIP3   OH241413   2.347   1.759  14.808 -0.3630 -0.3183 -0.3862
 6641TIP3    H141414   2.427   1.716  14.777  0.0444 -0.4641  0.8381
 6641TIP3    H241415   2.319   1.706  14.882 -1.2401  0.1117 -0.4087
 6642TIP3   OH241416   0.420   1.661   3.495 -0.0904 -0.3391 -0.4032
 6642TIP3    H141417   0.514   1.653   3.510 -0.2736 -1.1860  0.3223
 6642TIP3    H241418   0.393   1.734   3.551  0.0438 -0.4678 -0.1677
 6643TIP3   OH241419   5.192   3.070   2.000  0.2301 -0.1770  0.0740
 6643TIP3    H141420   5.203   3.134   2.071 -0.8550 -0.6250  0.6615
 6643TIP3    H241421   5.175   3.122   1.922  2.9504  0.3887 -0.1834
 6644TIP3   OH241422   1.582   4.699   2.978  0.5879  0.1247 -0.0998
 6644TIP3    H141423   1.587   4.634   2.908 -0.4069  0.6068 -0.6255
 6644TIP3    H241424   1.580   4.784   2.933  0.9268  0.4820  0.5442
 6645TIP3   OH241425   2.893   2.135  12.590  0.5395 -0.4123  0.5620
 6645TIP3    H141426   2.960   2.114  12.655  2.9258  1.2645 -1.2889
 6645TIP3    H241427   2.898   2.065  12.526  0.5344 -0.2659  0.4009
 6646TIP3   OH241428   4.296   4.620   4.425 -0.1751 -0.7776  0.0447
 6646TIP3    H141429   4.327   4.531   4.439  0.1051 -0.8275 -0.8780
 6646TIP3    H241430   4.232   4.612   4.354 -0.4497 -0.3009  0.2349
 6647TIP3   OH241431   5.777   5.571  13.373  0.2935  0.8673  0.0052
 6647TIP3    H141432   5.686   5.541  13.365  0.3524  0.6170  0.2337
 6647TIP3    H241433   5.791   5.577  13.468  0.7266  0.2465 -0.0175
 6648TIP3   OH241434   5.860   3.496   3.883  0.0855  0.4836  0.2748
 6648TIP3    H141435   5.820   3.555   3.947  1.1650  0.2843  1.1498
 6648TIP3    H241436   5.798   3.424   3.875  0.2907  0.1210  1.7054
 6649TIP3   OH241437   5.763   4.607   4.811  0.4089 -0.2852  0.0960
 6649TIP3    H141438   5.784   4.607   4.718 -0.2813  0.6756 -0.0654
 6649TIP3    H241439   5.674   4.573   4.816  0.3768 -0.1625  0.3924
 6650TIP3   OH241440   2.477   1.637  11.236  0.4401 -0.0505  0.2260
 6650TIP3    H141441   2.558   1.614  11.282  0.8426  0.9940  0.0577
 6650TIP3    H241442   2.488   1.600  11.149  0.6075 -0.1766  0.2998
 6651TIP3   OH241443   5.106   1.344   4.059  0.1032  0.5802  0.0495
 6651TIP3    H141444   5.076   1.300   3.980 -0.1872  1.5177 -0.3736
 6651TIP3    H241445   5.109   1.275   4.125  3.5919 -0.9227 -1.5690
 6652TIP3   OH241446   2.172   4.585  14.944 -0.2004 -0.0909 -0.4809
 6652TIP3    H141447   2.241   4.522  14.923  0.2593  0.3389 -0.2695
 6652TIP3    H241448   2.104   4.532  14.987 -0.2116 -0.5944 -1.0992
 6653TIP3   OH241449   5.364   3.778   3.522 -0.2936  0.0046 -0.0045
 6653TIP3    H141450   5.404   3.707   3.573 -0.2183  0.0995  0.0665
 6653TIP3    H241451   5.430   3.801   3.457  0.0369  0.6485  0.5667
 6654TIP3   OH241452   5.077   3.882   3.012  0.3562 -0.1948  0.0592
 6654TIP3    H141453   5.067   3.904   2.919 -2.1030 -3.8497 -0.6196
 6654TIP3    H241454   5.165   3.911   3.033  1.1260  0.3763 -3.5292
 6655TIP3   OH241455   3.322   6.281  13.339  0.3091 -0.5206 -0.0443
 6655TIP3    H141456   3.313   6.284  13.434  2.7923 -0.6878  0.2457
 6655TIP3    H241457   3.264   6.211  13.311 -1.9419  0.8244  1.1172
 6656TIP3   OH241458   3.371   1.699   4.986 -0.2579 -0.2250 -0.4027
 6656TIP3    H141459   3.454   1.656   4.965  0.1171  1.0749 -1.6801
 6656TIP3    H241460   3.354   1.756   4.911 -2.3063 -0.4566 -0.1403
 6657TIP3   OH241461   2.451   2.718   0.565  0.4510 -0.0414 -0.3461
 6657TIP3    H141462   2.434   2.807   0.536  0.2656  0.4030  1.1222
 6657TIP3    H241463   2.531   2.723   0.617 -0.1395 -0.5546  0.6162
 6658TIP3   OH241464   0.441   3.198  16.837  0.2862 -0.4319  0.8562
 6658TIP3    H141465   0.390   3.189  16.917  1.7124 -1.1466  1.6967
 6658TIP3    H241466   0.487   3.115  16.828  1.0039  0.0572 -0.0993
 6659TIP3   OH241467   4.128   3.159   4.325 -0.2596  0.3242  0.1777
 6659TIP3    H141468   4.080   3.202   4.397 -0.7522  0.0336  0.0273
 6659TIP3    H241469   4.217   3.195   4.331 -0.4010  0.6067  0.6816
 6660TIP3   OH241470   1.584   1.451   0.624 -0.2298 -0.2448 -0.4494
 6660TIP3    H141471   1.613   1.497   0.703 -0.9662 -0.3104 -0.1360
 6660TIP3    H241472   1.505   1.405   0.651  0.2603 -1.3624 -0.8699
 6661TIP3   OH241473   2.864   3.064  11.812 -0.1814 -0.5953  0.1505
 6661TIP3    H141474   2.937   3.086  11.870  0.4807 -3.0523  0.3329
 6661TIP3    H241475   2.855   3.140  11.755  2.6014 -0.2648  0.0506
 6662TIP3   OH241476   1.646   3.830   0.732  0.7505  0.3439  0.5191
 6662TIP3    H141477   1.723   3.780   0.758  0.7627  1.2102  2.2094
 6662TIP3    H241478   1.677   3.887   0.661  1.6714  0.6997  1.2026
 6663TIP3   OH241479   5.125   4.869   4.974 -0.5459  0.3018  0.1949
 6663TIP3    H141480   5.058   4.840   5.036 -1.8354  2.8227  0.0528
 6663TIP3    H241481   5.099   4.830   4.890 -0.6545 -0.4184  0.5597
 6664TIP3   OH241482   2.397   6.238   4.705 -0.0460 -0.1779  0.1880
 6664TIP3    H141483   2.463   6.269   4.642  1.0062 -0.3082  1.2057
 6664TIP3    H241484   2.329   6.305   4.703 -0.0443 -0.2021 -1.1145
 6665TIP3   OH241485   0.969   0.897  14.247  0.2608  0.1733  0.7310
 6665TIP3    H141486   1.033   0.875  14.314  0.2172  1.9433  1.3925
 6665TIP3    H241487   1.020   0.940  14.177 -0.0659  0.8526  0.8998
 6666TIP3   OH241488   3.000   1.819   5.993  0.4904 -0.0973 -0.5034
 6666TIP3    H141489   2.992   1.799   5.899  1.4829  1.3064 -0.9138
 6666TIP3    H241490   3.083   1.868   5.999 -0.2718  1.0397  0.8994
 6667TIP3   OH241491   3.727   1.870   2.069  0.3534  0.4709 -0.0909
 6667TIP3    H141492   3.662   1.899   2.133  0.5250  0.5954  0.0250
 6667TIP3    H241493   3.794   1.938   2.070  1.0526 -0.2240  0.6118
 6668TIP3   OH241494   4.084   4.599   4.267 -0.0862 -0.0315 -0.3271
 6668TIP3    H141495   4.078   4.677   4.211 -0.1369 -0.1563 -0.4954
 6668TIP3    H241496   3.994   4.587   4.299 -0.1416 -0.2050 -0.5496
 6669TIP3   OH241497   1.441   1.848  17.119 -0.1395  0.0218  0.5178
 6669TIP3    H141498   1.476   1.794  17.049 -0.8183  0.8916 -0.5016
 6669TIP3    H241499   1.366   1.800  17.152 -0.4884  0.1358 -0.1036
 6670TIP3   OH241500   2.887   6.723   4.112  0.0562 -0.4012 -0.2148
 6670TIP3    H141501   2.800   6.705   4.078 -0.3267  0.6137  0.2025
 6670TIP3    H241502   2.943   6.729   4.034 -0.4405 -0.0688 -0.5492
 6671TIP3   OH241503   5.849   3.209  15.532  0.1616 -0.3306 -0.5442
 6671TIP3    H141504   5.858   3.236  15.624  0.5048 -0.3899 -0.5603
 6671TIP3    H241505   5.939   3.201  15.501  0.0371  1.6579 -1.4740
 6672TIP3   OH241506   3.244   4.982   2.049  0.0278  0.6421  0.1596
 6672TIP3    H141507   3.195   4.984   2.131  0.1737  2.0294  0.2184
 6672TIP3    H241508   3.177   4.963   1.983  0.2976 -3.0285  0.8482
 6673TIP3   OH241509   6.083   3.959  13.174 -0.1823 -0.0373  0.5843
 6673TIP3    H141510   5.996   3.991  13.198 -0.4168 -1.0253  1.1083
 6673TIP3    H241511   6.068   3.910  13.093  0.3817  2.1764 -0.9025
 6674TIP3   OH241512   3.883   2.096   2.081 -0.3437 -0.2330  0.8675
 6674TIP3    H141513   3.816   2.165   2.086  1.3915  1.3500  3.1229
 6674TIP3    H241514   3.909   2.081   2.172  3.8530  0.7125 -0.0702
 6675TIP3   OH241515   6.213   1.534   5.103 -0.1032 -0.5580  0.0072
 6675TIP3    H141516   6.203   1.620   5.064 -1.9452 -1.1574 -0.8948
 6675TIP3    H241517   6.221   1.474   5.028  0.4457 -1.2492  0.6056
 6676TIP3   OH241518   5.433   3.383  16.942 -0.4704  0.5729 -0.0061
 6676TIP3    H141519   5.373   3.354  16.874 -0.5410  0.1173  0.2443
 6676TIP3    H241520   5.516   3.397  16.896 -0.7009  0.9490 -0.3049
 6677TIP3   OH241521   5.901   4.934   3.993 -0.4664 -0.2342  0.2559
 6677TIP3    H141522   5.926   4.985   4.070 -0.3211 -0.2737  0.2350
 6677TIP3    H241523   5.821   4.976   3.961  0.8380  1.3271 -1.0366
 6678TIP3   OH241524   4.381   1.570  15.046 -0.1043  0.1011 -0.2349
 6678TIP3    H141525   4.468   1.534  15.066 -0.0194 -0.0023 -0.7792
 6678TIP3    H241526   4.321   1.508  15.086  0.0589 -0.2494 -0.5278
 6679TIP3   OH241527   1.934   2.804   3.260  0.0706 -0.5092 -0.4658
 6679TIP3    H141528   1.960   2.712   3.267 -1.4726 -0.8418  1.3246
 6679TIP3    H241529   2.016   2.851   3.243  1.1357 -2.0088  0.3762
 6680TIP3   OH241530   1.455   1.533  16.083  0.2903 -0.1067  0.6422
 6680TIP3    H141531   1.380   1.582  16.051 -0.0154 -0.4121  0.8886
 6680TIP3    H241532   1.421   1.445  16.101  0.4008  0.1318  2.0473
 6681TIP3   OH241533   0.668   6.586   2.135  0.1378  0.3049  0.7980
 6681TIP3    H141534   0.587   6.568   2.089 -0.0421  1.1583  0.7662
 6681TIP3    H241535   0.736   6.579   2.067 -0.0611  0.9536  0.5241
 6682TIP3   OH241536   6.625   2.934   3.071  0.6869  0.6659 -0.2895
 6682TIP3    H141537   6.636   2.839   3.080  1.7550  0.8214  0.1766
 6682TIP3    H241538   6.689   2.958   3.004  0.1686  1.0187 -0.6633
 6683TIP3   OH241539   0.508   0.938   0.564 -0.0539  0.0430  0.1618
 6683TIP3    H141540   0.498   1.024   0.523 -0.1552 -0.2650 -0.4547
 6683TIP3    H241541   0.603   0.925   0.569 -0.0462 -0.2146 -0.5916
 6684TIP3   OH241542   3.274   2.994  14.765  0.2263 -0.3457 -0.3713
 6684TIP3    H141543   3.292   2.908  14.804 -1.5081 -0.0987  1.0496
 6684TIP3    H241544   3.198   2.980  14.709 -0.7704  0.4843  0.7569
 6685TIP3   OH241545   3.179   4.436   0.844  0.5004  0.3338 -0.2656
 6685TIP3    H141546   3.189   4.341   0.845  0.8152  0.3720  1.0950
 6685TIP3    H241547   3.145   4.458   0.930  1.2014  1.5335 -0.2794
 6686TIP3   OH241548   2.366   3.228  14.549 -0.4086 -0.4005 -0.3533
 6686TIP3    H141549   2.360   3.320  14.524  1.5728 -0.6132 -1.6867
 6686TIP3    H241550   2.304   3.219  14.622 -1.5895  1.6649 -1.0594
 6687TIP3   OH241551   5.167   5.530   2.176  0.6094 -0.1715 -0.0943
 6687TIP3    H141552   5.148   5.464   2.110  0.5637  1.0721 -1.3321
 6687TIP3    H241553   5.261   5.525   2.190  0.7300  0.0803 -0.8105
 6688TIP3   OH241554   2.778   4.894  13.534 -0.0874  0.5387  0.3610
 6688TIP3    H141555   2.704   4.956  13.535  0.7581  1.5891 -0.4472
 6688TIP3    H241556   2.809   4.892  13.625 -1.4747 -0.3616  0.8243
 6689TIP3   OH241557   0.600   5.223   5.378 -0.4093 -0.1414 -0.1846
 6689TIP3    H141558   0.678   5.257   5.423  0.5154 -1.0866 -1.0663
 6689TIP3    H241559   0.530   5.283   5.405  0.2711 -0.2154  1.8967
 6690TIP3   OH241560   1.642   1.236   5.929 -0.0862 -0.7507 -0.0871
 6690TIP3    H141561   1.718   1.253   5.985 -2.1803  0.3793  2.5555
 6690TIP3    H241562   1.582   1.185   5.984 -1.0841 -2.0012 -2.2585
 6691TIP3   OH241563   1.542   5.898  15.593  0.0187  0.6473 -0.2264
 6691TIP3    H141564   1.509   5.926  15.679  0.5053  0.4119  0.0417
 6691TIP3    H241565   1.557   5.804  15.603  0.4508  0.6905 -0.4437
 6692TIP3   OH241566   3.624   2.720  16.012 -0.8991  0.3824  0.1655
 6692TIP3    H141567   3.698   2.660  16.028 -0.6176  0.7857  0.4138
 6692TIP3    H241568   3.664   2.807  16.015 -1.5859  0.6727  1.5482
 6693TIP3   OH241569   0.885   4.394   0.035  0.2885  0.3628  0.4336
 6693TIP3    H141570   0.818   4.328   0.019 -0.4651  1.0088  0.9116
 6693TIP3    H241571   0.882   4.409   0.129  0.9173  0.5894  0.4184
 6694TIP3   OH241572   5.947   1.827   6.094  0.6898  0.7129  0.3256
 6694TIP3    H141573   6.036   1.838   6.061  0.0187  0.7532 -1.5346
 6694TIP3    H241574   5.901   1.781   6.024 -1.5455  3.3471 -0.0506
 6695TIP3   OH241575   4.040   0.610  14.393  0.2219  0.0539 -0.0360
 6695TIP3    H141576   4.043   0.674  14.322  0.5233 -0.0202 -0.0916
 6695TIP3    H241577   4.109   0.638  14.453 -0.2062  0.2642  0.3549
 6696TIP3   OH241578   6.718   6.592   4.723 -0.3346  0.0059 -0.3599
 6696TIP3    H141579   6.669   6.661   4.768  0.3267  0.1995  0.0680
 6696TIP3    H241580   6.679   6.589   4.636 -2.7358 -1.5084  0.7274
 6697TIP3   OH241581   5.652   6.379  15.716 -0.0480 -0.3814 -0.2582
 6697TIP3    H141582   5.625   6.289  15.699 -0.7774 -0.2469  0.1596
 6697TIP3    H241583   5.694   6.375  15.802  1.0733 -0.5485 -0.8055
 6698TIP3   OH241584   0.290   2.983  16.036  0.0899  0.3808  0.4351
 6698TIP3    H141585   0.240   2.909  16.071 -0.0737  0.4382  0.3202
 6698TIP3    H241586   0.294   3.045  16.108  0.0652  0.3421  0.4690
 6699TIP3   OH241587   3.077   6.212  12.468 -1.1666  0.4037  0.0205
 6699TIP3    H141588   3.151   6.202  12.528 -1.0344  0.0641 -0.1995
 6699TIP3    H241589   3.015   6.268  12.515 -1.1230  0.0227  0.5295
 6700TIP3   OH241590   1.311   6.135   3.777 -0.3174  0.0166 -0.6025
 6700TIP3    H141591   1.315   6.190   3.856  1.6792  1.0709 -1.3821
 6700TIP3    H241592   1.228   6.158   3.737 -1.6269 -0.9499  1.4763
 6701TIP3   OH241593   3.682   4.508   1.497 -0.2065 -0.1472  0.5777
 6701TIP3    H141594   3.627   4.434   1.523  0.0855 -0.6004 -0.0722
 6701TIP3    H241595   3.660   4.523   1.405  1.7674 -1.2416 -0.1039
 6702TIP3   OH241596   0.584   2.990  14.897 -0.2978  0.6604 -0.0247
 6702TIP3    H141597   0.536   2.908  14.910  1.8394 -0.5069  0.8324
 6702TIP3    H241598   0.548   3.050  14.963  0.7534 -0.8325  1.9613
 6703TIP3   OH241599   3.635   0.358  11.074  0.0402 -0.1959 -0.3335
 6703TIP3    H141600   3.684   0.300  11.016 -0.1691  0.6679 -1.3926
 6703TIP3    H241601   3.585   0.415  11.015 -0.7049  0.2487  0.7012
 6704TIP3   OH241602   5.875   4.633  16.374  0.2667 -0.1999  0.4046
 6704TIP3    H141603   5.910   4.668  16.456 -0.9164 -1.0269  1.2759
 6704TIP3    H241604   5.862   4.540  16.391  0.5044 -0.4836 -0.8997
 6705TIP3   OH241605   5.551   5.093  12.948  0.5994  0.1434 -0.0759
 6705TIP3    H141606   5.587   5.115  13.034  1.7509  1.6785 -0.9190
 6705TIP3    H241607   5.612   5.029  12.912  1.7994  1.7508 -0.9589
 6706TIP3   OH241608   2.764   2.758  15.535 -0.3055  0.4899 -0.0956
 6706TIP3    H141609   2.830   2.720  15.593 -0.2549 -0.2373 -0.6281
 6706TIP3    H241610   2.717   2.821  15.590  1.7570  2.0589 -0.0719
 6707TIP3   OH241611   6.291   0.266   3.458 -0.0056 -0.3546 -1.0950
 6707TIP3    H141612   6.366   0.323   3.444 -1.3811  1.4268 -1.4079
 6707TIP3    H241613   6.313   0.215   3.536  1.2606  0.5930 -0.8214
 6708TIP3   OH241614   6.554   4.829   5.236 -0.4213  0.2239 -0.8493
 6708TIP3    H141615   6.575   4.797   5.325  1.0880  0.5456 -1.0739
 6708TIP3    H241616   6.594   4.916   5.232 -1.0949  0.4980 -1.6141
 6709TIP3   OH241617   1.100   1.723  16.946  0.5759  0.0268 -0.2909
 6709TIP3    H141618   1.155   1.718  16.868 -1.5530  0.0339 -1.8441
 6709TIP3    H241619   1.042   1.797  16.929 -0.0338 -0.0896  1.2334
 6710TIP3   OH241620   2.200   5.009  10.532  0.0337  0.0383 -0.5529
 6710TIP3    H141621   2.253   5.071  10.582 -0.7527  1.1398 -1.0468
 6710TIP3    H241622   2.262   4.962  10.477  0.4555  1.7521 -1.5890
 6711TIP3   OH241623   0.477   4.869   3.802 -0.0738 -0.5391 -0.3018
 6711TIP3    H141624   0.406   4.831   3.854  0.7520 -2.0778 -0.2474
 6711TIP3    H241625   0.532   4.793   3.779  2.0474  0.7329  0.4457
 6712TIP3   OH241626   0.830   0.392   5.341  0.3854  0.2611 -0.4687
 6712TIP3    H141627   0.807   0.302   5.361 -1.1281  0.9346  0.9042
 6712TIP3    H241628   0.861   0.429   5.423 -1.3759  1.6785 -0.3853
 6713TIP3   OH241629   6.702   2.931   2.414  0.1823 -0.0922  0.5069
 6713TIP3    H141630   6.737   2.843   2.403 -0.0687 -0.2120  0.6499
 6713TIP3    H241631   6.611   2.924   2.383 -0.0799 -0.0799  1.2708
 6714TIP3   OH241632   0.812   4.412   5.883  0.4298  0.1289  0.2255
 6714TIP3    H141633   0.817   4.393   5.976  1.3104 -0.2977  0.0968
 6714TIP3    H241634   0.809   4.326   5.841 -1.1162  0.3298 -0.0829
 6715TIP3   OH241635   4.836   2.716   2.874  0.0768  0.1663 -0.2534
 6715TIP3    H141636   4.899   2.745   2.940  0.0432 -2.3318  0.9271
 6715TIP3    H241637   4.750   2.733   2.913  0.0520 -2.6317  1.0122
 6716TIP3   OH241638   5.786   3.480  12.963 -0.0412  0.2790  0.0951
 6716TIP3    H141639   5.744   3.551  13.012  0.2770  1.1030 -0.7946
 6716TIP3    H241640   5.754   3.400  13.004  0.0163  0.9503  1.4643
 6717TIP3   OH241641   1.852   2.476  16.776  0.4503 -0.4020 -0.2385
 6717TIP3    H141642   1.884   2.487  16.865  2.2114 -1.2578 -0.7395
 6717TIP3    H241643   1.783   2.410  16.783  0.7880 -0.6862  0.4646
 6718TIP3   OH241644   0.179   1.787  13.553  0.1878  0.2981  0.2767
 6718TIP3    H141645   0.189   1.698  13.587  0.4459 -0.7253 -2.3579
 6718TIP3    H241646   0.090   1.813  13.577 -0.0972 -0.9076  0.5228
 6719TIP3   OH241647   3.130   6.082   2.500 -0.2616  0.1219  0.0617
 6719TIP3    H141648   3.073   6.091   2.577  0.8630 -1.0465  1.0368
 6719TIP3    H241649   3.218   6.095   2.533  0.3444 -1.6620 -0.7798
 6720TIP3   OH241650   6.045   6.233  15.390  0.2982  0.0221 -0.6092
 6720TIP3    H141651   6.043   6.152  15.339  1.1598  0.2849 -1.0629
 6720TIP3    H241652   6.077   6.299  15.329  0.0896  0.6034 -0.0909
 6721TIP3   OH241653   1.301   3.868   1.169  0.0268  0.1441 -0.1941
 6721TIP3    H141654   1.234   3.887   1.103  0.9885 -1.4810 -1.6846
 6721TIP3    H241655   1.382   3.861   1.119  1.1605  1.0805  1.4726
 6722TIP3   OH241656   2.335   4.108  11.787  0.0586  0.0128 -0.4216
 6722TIP3    H141657   2.425   4.086  11.811 -0.2173 -0.0022  0.6334
 6722TIP3    H241658   2.342   4.147  11.700  1.0864 -0.0010 -0.3478
 6723TIP3   OH241659   2.980   1.913   0.246 -0.2358  0.3744  0.4434
 6723TIP3    H141660   2.984   1.987   0.186 -0.4032  0.6431  0.7657
 6723TIP3    H241661   3.031   1.941   0.323  3.7224 -1.5662 -1.3121
 6724TIP3   OH241662   4.307   4.850  12.782  0.1482  0.0367  0.1765
 6724TIP3    H141663   4.258   4.897  12.849  1.0234  2.6047 -0.9049
 6724TIP3    H241664   4.397   4.851  12.813 -0.0038 -2.1246  0.7598
 6725TIP3   OH241665   4.618   6.269  12.247  0.2420  0.5901  0.3157
 6725TIP3    H141666   4.560   6.245  12.176 -0.5823 -0.9733  1.4863
 6725TIP3    H241667   4.671   6.191  12.263 -0.2002  0.6098  2.0003
 6726TIP3   OH241668   2.017   5.796  12.933 -0.2483 -0.0880 -0.7216
 6726TIP3    H141669   1.997   5.804  13.027  0.0798  0.4171 -0.6871
 6726TIP3    H241670   2.041   5.704  12.921 -1.1247 -0.3499 -0.4773
 6727TIP3   OH241671   0.443   6.737  15.608  0.3585  0.0022 -0.2232
 6727TIP3    H141672   0.400   6.692  15.680 -0.7189  0.5212 -0.5234
 6727TIP3    H241673   0.527   6.767  15.643  0.3763 -0.8272  0.4378
 6728TIP3   OH241674   5.776   4.672   2.438  0.1871 -0.2940  0.1900
 6728TIP3    H141675   5.735   4.717   2.364 -0.9651 -0.2697  0.8347
 6728TIP3    H241676   5.851   4.726   2.460  0.0187  0.1855 -0.3843
 6729TIP3   OH241677   4.410   0.656  16.268 -0.2839 -0.7670  0.1430
 6729TIP3    H141678   4.461   0.713  16.324  1.2220  0.4009 -2.3158
 6729TIP3    H241679   4.426   0.568  16.302  1.8587 -0.2331  0.5988
 6730TIP3   OH241680   6.720   6.450   0.858 -0.6384 -0.0293  0.4828
 6730TIP3    H141681   6.815   6.446   0.872 -0.9402  0.5445  2.8798
 6730TIP3    H241682   6.710   6.500   0.776  1.1050  0.1877  0.3822
 6731TIP3   OH241683   0.368   0.059   4.747  0.0144 -0.4654  0.0253
 6731TIP3    H141684   0.318   0.129   4.789  0.3056  0.7536 -1.5897
 6731TIP3    H241685   0.306  -0.012   4.735 -0.7291  0.1603  0.1426
 6732TIP3   OH241686   5.828   5.917   5.444  0.1819 -0.6509 -0.6176
 6732TIP3    H141687   5.810   5.992   5.389 -0.4479  0.7099  1.3956
 6732TIP3    H241688   5.756   5.856   5.427 -0.8564  0.4314 -0.1411
 6733TIP3   OH241689   5.293   2.637  13.779  0.3038  0.1718  0.5409
 6733TIP3    H141690   5.291   2.578  13.854  0.6143 -0.7970 -0.2090
 6733TIP3    H241691   5.301   2.724  13.818 -0.3148 -0.2571  1.6568
 6734TIP3   OH241692   0.716   4.591  12.629 -0.4619 -0.2732 -0.4045
 6734TIP3    H141693   0.734   4.685  12.639  2.6852 -0.7845 -0.5553
 6734TIP3    H241694   0.624   4.581  12.653 -1.1642  3.0094 -1.4355
 6735TIP3   OH241695   6.599   4.193  15.520  0.4565 -0.6498  0.3042
 6735TIP3    H141696   6.674   4.234  15.478  0.1866 -0.4301  0.0386
 6735TIP3    H241697   6.578   4.251  15.593 -1.0074  0.6163 -1.0945
 6736TIP3   OH241698   3.135   1.686  16.123  0.0538  0.2900 -0.3290
 6736TIP3    H141699   3.204   1.673  16.188 -0.6823 -1.8969  0.0764
 6736TIP3    H241700   3.075   1.612  16.137  0.0897 -0.4735 -3.7853
 6737TIP3   OH241701   1.621   5.538  15.320  0.0502 -0.1270 -0.2407
 6737TIP3    H141702   1.568   5.542  15.240 -0.8522  0.1329  0.3573
 6737TIP3    H241703   1.619   5.446  15.346  1.3215 -0.4218 -1.1550
 6738TIP3   OH241704   4.302   5.848  17.026 -0.0709  0.0169 -0.0041
 6738TIP3    H141705   4.327   5.757  17.035 -0.2645  0.0501  0.9289
 6738TIP3    H241706   4.358   5.895  17.088 -1.4184  0.2667  1.0425
 6739TIP3   OH241707   6.215   0.713   1.464 -0.0811 -0.3243 -0.8643
 6739TIP3    H141708   6.147   0.686   1.527  0.0166 -0.7730 -0.9511
 6739TIP3    H241709   6.286   0.745   1.519  0.5613 -1.9930 -0.6788
 6740TIP3   OH241710   1.185   1.140  12.074  0.1104 -0.3411  0.5512
 6740TIP3    H141711   1.134   1.106  12.148  0.3270  0.9767  1.3299
 6740TIP3    H241712   1.133   1.213  12.041 -1.3816 -2.6479 -2.4344
 6741TIP3   OH241713   0.787   6.323  14.958 -0.5661  0.4283 -0.1084
 6741TIP3    H141714   0.735   6.254  15.000 -0.2460  0.1356 -0.1871
 6741TIP3    H241715   0.832   6.367  15.030 -0.4234  0.2632 -0.0964
 6742TIP3   OH241716   1.953   3.684   2.433 -0.6323 -0.1475 -0.6962
 6742TIP3    H141717   1.951   3.743   2.358  1.0670 -0.5992 -1.1320
 6742TIP3    H241718   1.948   3.741   2.509  0.5052  0.5455 -1.1189
 6743TIP3   OH241719   1.685   5.989   0.813 -0.0982  0.3814  0.3753
 6743TIP3    H141720   1.643   6.054   0.870  1.1483 -0.1065  1.8915
 6743TIP3    H241721   1.778   5.995   0.834  0.7566  1.8480 -3.3322
 6744TIP3   OH241722   0.523   2.620   2.333 -0.0057 -0.5954  0.2117
 6744TIP3    H141723   0.498   2.660   2.250 -0.2285  1.1289  1.1004
 6744TIP3    H241724   0.480   2.673   2.399  1.7670 -0.7673  1.5318
 6745TIP3   OH241725   5.537   4.025  16.841  0.1225 -0.1789  0.6180
 6745TIP3    H141726   5.509   4.093  16.903 -1.0910 -0.4421  0.3671
 6745TIP3    H241727   5.466   3.961  16.841 -0.6718  0.5988 -2.2150
 6746TIP3   OH241728   4.799   5.532   3.538 -0.5201  0.2272  0.5240
 6746TIP3    H141729   4.828   5.481   3.614 -3.1961  1.3625  2.4033
 6746TIP3    H241730   4.824   5.622   3.559 -0.8815  0.4873 -0.1513
 6747TIP3   OH241731   4.030   4.696   5.506 -0.9564 -0.2012  0.8417
 6747TIP3    H141732   4.017   4.747   5.426  1.9154 -1.2189 -0.3424
 6747TIP3    H241733   4.015   4.605   5.480 -2.8406 -0.2860  2.1599
 6748TIP3   OH241734   4.423   2.837  16.603 -0.1943 -0.2829 -0.2522
 6748TIP3    H141735   4.363   2.899  16.562 -0.7029 -0.0291  0.8469
 6748TIP3    H241736   4.377   2.809  16.683  1.5110  0.5555  1.0459
 6749TIP3   OH241737   3.201   2.409  16.355  0.2416  0.1396  0.3517
 6749TIP3    H141738   3.192   2.342  16.422 -1.4029 -0.4677 -0.4563
 6749TIP3    H241739   3.290   2.396  16.321 -0.0574 -1.6621  0.1812
 6750TIP3   OH241740   3.561   4.369  10.676  0.3396  0.1820 -0.1379
 6750TIP3    H141741   3.574   4.353  10.582 -1.1126  2.0568 -0.6912
 6750TIP3    H241742   3.489   4.312  10.700  0.9379 -0.5573 -0.0620
 6751TIP3   OH241743   6.512   2.884  13.946 -0.0357  0.1210  0.3817
 6751TIP3    H141744   6.582   2.875  13.882  0.8526  0.2612  1.3198
 6751TIP3    H241745   6.501   2.978  13.957  0.2034  0.0942  0.8548
 6752TIP3   OH241746   5.812   6.630   3.568 -0.1640 -0.0571  0.1886
 6752TIP3    H141747   5.810   6.725   3.556 -0.6138 -0.0093  0.6701
 6752TIP3    H241748   5.754   6.597   3.499 -0.5130  0.0557  0.4256
 6753TIP3   OH241749   5.123   0.329  16.161  0.7096 -0.1075 -0.1663
 6753TIP3    H141750   5.142   0.239  16.186 -1.8400 -0.3394  0.9856
 6753TIP3    H241751   5.065   0.322  16.085 -1.2673  0.5154  1.2458
 6754TIP3   OH241752   4.802   6.178   1.546 -0.7294  0.0530  0.5345
 6754TIP3    H141753   4.827   6.152   1.635 -1.2927  0.2483  0.7528
 6754TIP3    H241754   4.882   6.169   1.495  0.0537  1.6697  1.4426
 6755TIP3   OH241755   0.812   3.165  16.290 -0.7984  0.0111 -0.3041
 6755TIP3    H141756   0.734   3.210  16.321 -0.6713  0.4265 -0.5812
 6755TIP3    H241757   0.833   3.207  16.207 -0.3802 -0.2137 -0.3190
 6756TIP3   OH241758   2.897   6.637  16.011  0.3628  0.0112  0.4358
 6756TIP3    H141759   2.842   6.662  16.086 -0.3000  0.5160 -0.2089
 6756TIP3    H241760   2.859   6.555  15.980 -0.7801  0.9444 -0.7229
 6757TIP3   OH241761   2.148   6.383  11.778  0.4121 -0.4481  0.1959
 6757TIP3    H141762   2.083   6.326  11.737  0.6813 -2.4094  2.3591
 6757TIP3    H241763   2.100   6.462  11.801 -0.5501 -0.7566 -0.7059
 6758TIP3   OH241764   1.245   2.128  15.396  0.7720 -0.1055 -0.3364
 6758TIP3    H141765   1.313   2.145  15.462  1.1313  0.8993 -0.9499
 6758TIP3    H241766   1.163   2.134  15.444  0.9766  1.7443 -0.1827
 6759TIP3   OH241767   5.697   6.365  15.989 -0.6370 -0.1866  0.1938
 6759TIP3    H141768   5.722   6.273  15.981 -1.2524 -0.2952 -0.4377
 6759TIP3    H241769   5.601   6.364  15.989 -0.6542  0.5880 -1.3141
 6760TIP3   OH241770   6.466   5.946   4.254  0.3017 -0.1282  0.0146
 6760TIP3    H141771   6.402   6.000   4.301 -0.4211 -0.2566 -0.8049
 6760TIP3    H241772   6.443   5.856   4.277  0.0204 -0.1865 -0.4842
 6761TIP3   OH241773   5.707   1.354   4.150 -0.0394 -0.1483  0.3715
 6761TIP3    H141774   5.723   1.425   4.211 -0.5125 -0.2690  0.6366
 6761TIP3    H241775   5.716   1.274   4.202  2.8578 -0.4037 -0.4173
 6762TIP3   OH241776   2.535   0.815   5.443 -0.2156  0.0256 -0.1826
 6762TIP3    H141777   2.468   0.782   5.504  0.9675  0.6219  1.4693
 6762TIP3    H241778   2.592   0.869   5.497  2.1397 -1.1812 -1.3783
 6763TIP3   OH241779   6.079   5.047  11.108 -0.4080  0.5114  0.0642
 6763TIP3    H141780   6.044   5.104  11.176 -1.1595 -0.2924  0.3673
 6763TIP3    H241781   6.127   5.105  11.049 -1.0210  1.4247  0.4620
 6764TIP3   OH241782   1.895   3.473   2.778 -0.6197 -0.3128  0.3227
 6764TIP3    H141783   1.864   3.438   2.862 -1.7316  0.1810  0.1311
 6764TIP3    H241784   1.823   3.456   2.718 -0.3659  0.5329 -0.2259
 6765TIP3   OH241785   3.674   6.311  14.721  0.3590  0.5549  0.2710
 6765TIP3    H141786   3.689   6.222  14.752  2.5248  0.6822 -0.3196
 6765TIP3    H241787   3.672   6.365  14.800 -1.8656 -0.1084  0.6976
 6766TIP3   OH241788   6.152   3.754  16.741  0.1632  0.4780  0.3542
 6766TIP3    H141789   6.119   3.765  16.830  0.7758  1.2446  0.4970
 6766TIP3    H241790   6.078   3.777  16.685  0.0865  1.0068  0.6675
 6767TIP3   OH241791   1.795   5.310  12.884  0.3430 -0.6696 -0.4069
 6767TIP3    H141792   1.719   5.298  12.941  0.1384  2.2497  0.0240
 6767TIP3    H241793   1.866   5.336  12.944  0.4156  1.3251 -1.3303
 6768TIP3   OH241794   2.247   3.964  16.139 -0.9279  0.2410 -0.6336
 6768TIP3    H141795   2.157   3.961  16.172 -0.2908 -1.6087  1.0039
 6768TIP3    H241796   2.260   3.879  16.097  1.1990 -0.9393  2.2947
 6769TIP3   OH241797   5.235   3.233  11.630 -0.1100 -0.0465 -0.0786
 6769TIP3    H141798   5.222   3.144  11.662 -0.9555 -0.1534 -0.7075
 6769TIP3    H241799   5.146   3.269  11.622  0.2866  1.3139  1.4634
 6770TIP3   OH241800   4.171   1.580  14.603  0.5998 -0.5412 -1.0060
 6770TIP3    H141801   4.115   1.593  14.527  2.1430 -0.0997 -2.1077
 6770TIP3    H241802   4.260   1.575  14.567  1.1382 -2.8696  0.5188
 6771TIP3   OH241803   1.543   5.182   2.964  0.5167 -0.0523 -0.5845
 6771TIP3    H141804   1.501   5.160   3.048 -0.1757  0.2360 -0.8462
 6771TIP3    H241805   1.553   5.277   2.967 -0.9076  0.1406 -1.4555
 6772TIP3   OH241806   0.751   0.471  11.353  0.3965 -0.5507  1.3822
 6772TIP3    H141807   0.802   0.551  11.345  2.0016 -1.5328  1.4903
 6772TIP3    H241808   0.696   0.469  11.274  0.3671  0.6199  1.3634
 6773TIP3   OH241809   3.343   3.118   5.165  0.2949 -0.0191 -0.5189
 6773TIP3    H141810   3.435   3.129   5.142  0.0741 -0.2218 -1.5038
 6773TIP3    H241811   3.336   3.027   5.194  0.2535 -0.2382 -1.2011
 6774TIP3   OH241812   2.786   3.546  12.956 -0.0615  0.0948  0.3788
 6774TIP3    H141813   2.727   3.619  12.939  0.3044  0.3287  0.1153
 6774TIP3    H241814   2.793   3.500  12.873 -2.5054 -1.8971  1.1881
 6775TIP3   OH241815   4.186   4.938  13.359  0.6395 -0.1646  0.3764
 6775TIP3    H141816   4.212   4.934  13.451  2.2323  1.6693  0.0197
 6775TIP3    H241817   4.139   5.020  13.351  1.7580  0.3812 -0.7477
 6776TIP3   OH241818   4.796   5.350  15.178 -0.2166 -0.2261 -0.5145
 6776TIP3    H141819   4.759   5.331  15.264 -1.7811  0.0125 -1.1216
 6776TIP3    H241820   4.802   5.445  15.175 -0.2960 -0.2273 -0.7234
 6777TIP3   OH241821   4.269   2.933   3.784 -0.4329 -0.5777 -0.8204
 6777TIP3    H141822   4.335   2.930   3.715  1.3129  2.1131  0.6654
 6777TIP3    H241823   4.318   2.954   3.863 -2.4997 -2.8396  1.1588
 6778TIP3   OH241824   2.566   0.164  15.424 -0.6492  0.3856 -0.3015
 6778TIP3    H141825   2.626   0.232  15.454 -0.3677  0.0845 -0.1800
 6778TIP3    H241826   2.584   0.157  15.330  0.4369 -0.6197 -0.0336
 6779TIP3   OH241827   5.042   5.503   3.955 -0.2552 -0.0170  0.2422
 6779TIP3    H141828   5.014   5.434   4.014  0.3647  1.3305  2.1474
 6779TIP3    H241829   5.130   5.477   3.927 -0.4425 -0.5145  0.1139
 6780TIP3   OH241830   5.172   6.313  16.695 -0.4972 -0.1040 -0.4348
 6780TIP3    H141831   5.142   6.223  16.683  0.7900 -0.7878  1.3349
 6780TIP3    H241832   5.139   6.338  16.781  0.3256  0.6537 -0.3362
 6781TIP3   OH241833   6.002   5.284   6.204  0.4846 -0.1966  0.5101
 6781TIP3    H141834   5.917   5.248   6.179 -0.7707  0.3864  3.6303
 6781TIP3    H241835   6.063   5.212   6.189 -1.2055 -1.9889  1.8618
 6782TIP3   OH241836   6.809   1.749   4.133  0.0613 -0.0335 -0.1120
 6782TIP3    H141837   6.754   1.734   4.057 -1.4145 -0.5427  1.0344
 6782TIP3    H241838   6.792   1.674   4.191  2.1830 -0.3642  0.1393
 6783TIP3   OH241839   0.721   3.523  13.799  0.1126 -0.4232  0.0029
 6783TIP3    H141840   0.710   3.477  13.882  0.8563 -1.0000 -0.2159
 6783TIP3    H241841   0.716   3.454  13.733 -1.2763  0.1393 -0.4858
 6784TIP3   OH241842   3.972   5.825   2.307  0.6624  0.0928  0.2914
 6784TIP3    H141843   3.975   5.839   2.402  0.5778 -1.3461  0.5221
 6784TIP3    H241844   4.064   5.821   2.280  0.6865  0.9089  0.2447
 6785TIP3   OH241845   1.171   4.859   3.555 -0.2537  0.2098 -0.1875
 6785TIP3    H141846   1.254   4.888   3.592 -0.9018  0.2892  1.2579
 6785TIP3    H241847   1.194   4.820   3.471  1.1109  1.2401 -0.3146
 6786TIP3   OH241848   1.304   4.493  12.711 -0.2590 -0.3282  0.0837
 6786TIP3    H141849   1.290   4.421  12.649 -1.8309 -0.5210  0.6526
 6786TIP3    H241850   1.356   4.556  12.662  0.7183 -1.6179 -0.5978
 6787TIP3   OH241851   1.835   2.167   4.251 -0.0175 -0.0695  0.3011
 6787TIP3    H141852   1.796   2.177   4.338  0.2802  1.4231  0.2595
 6787TIP3    H241853   1.921   2.208   4.259 -0.8566  2.0674 -1.3116
 6788TIP3   OH241854   6.547   3.515   2.787  0.5065 -0.3466 -0.1848
 6788TIP3    H141855   6.565   3.421   2.785  0.7113 -0.3368  1.0427
 6788TIP3    H241856   6.575   3.546   2.700  2.3914 -1.0667  0.1276
 6789TIP3   OH241857   6.789   1.610  12.540 -0.3485  0.0504  0.4622
 6789TIP3    H141858   6.834   1.692  12.523 -0.3148 -0.2489 -0.8886
 6789TIP3    H241859   6.699   1.636  12.560  0.0796  0.5386  1.7858
 6790TIP3   OH241860   2.307   2.412   1.946  0.3047  0.1885  0.5625
 6790TIP3    H141861   2.215   2.397   1.925  0.3924 -0.7503  0.8349
 6790TIP3    H241862   2.322   2.504   1.922 -0.4266  0.0573 -0.4410
 6791TIP3   OH241863   0.888   3.466   5.382 -0.0512  0.4301 -0.0713
 6791TIP3    H141864   0.984   3.471   5.379  0.0559 -1.3989 -0.0847
 6791TIP3    H241865   0.865   3.399   5.318 -1.3375  0.7260  0.0668
 6792TIP3   OH241866   3.058   0.803  16.205 -0.5022 -0.1632 -0.2383
 6792TIP3    H141867   3.100   0.772  16.285 -1.4220  1.0100  0.7228
 6792TIP3    H241868   3.105   0.759  16.134  0.9142 -0.5089  0.9005
 6793TIP3   OH241869   4.714   1.995   5.089 -0.0548  0.1784  0.2122
 6793TIP3    H141870   4.797   2.001   5.136 -0.1275 -1.2912  0.5689
 6793TIP3    H241871   4.710   1.903   5.061 -1.4959  0.2674  0.1070
 6794TIP3   OH241872   6.813   0.512   4.107 -0.4390  0.9377 -0.2968
 6794TIP3    H141873   6.886   0.495   4.048 -0.4528 -0.0223 -0.0501
 6794TIP3    H241874   6.852   0.560   4.180  0.2780 -0.9355  0.5924
 6795TIP3   OH241875   0.495   4.874  15.330  0.2764  0.6764  0.5677
 6795TIP3    H141876   0.418   4.895  15.277 -1.5644 -2.0731  2.0661
 6795TIP3    H241877   0.471   4.900  15.419 -0.6651 -3.9488  1.8120
 6796TIP3   OH241878   1.574   4.124   5.285  0.0652  0.1552  0.1120
 6796TIP3    H141879   1.611   4.162   5.365  0.7140  1.7251 -0.8851
 6796TIP3    H241880   1.512   4.190   5.254 -0.0452 -0.3484 -0.7570
 6797TIP3   OH241881   6.650   3.640   3.491  0.0533 -0.4648 -0.3591
 6797TIP3    H141882   6.597   3.710   3.530  0.9278 -0.0645  0.1159
 6797TIP3    H241883   6.605   3.620   3.408 -1.2390 -0.6218  0.3549
 6798TIP3   OH241884   5.012   2.008   1.944 -0.0934  0.0541 -0.6674
 6798TIP3    H141885   5.019   2.102   1.961 -2.3603  0.1423 -0.0271
 6798TIP3    H241886   5.089   1.988   1.891  1.2222  1.9719  0.4278
 6799TIP3   OH241887   1.546   0.323   5.549  0.7664  0.0846 -0.2265
 6799TIP3    H141888   1.617   0.370   5.505  0.3821  0.0632 -0.8800
 6799TIP3    H241889   1.589   0.277   5.621  1.3565  0.3696 -0.3917
 6800TIP3   OH241890   3.626   1.439   3.338 -0.1339 -0.8135  0.6189
 6800TIP3    H141891   3.609   1.431   3.432 -0.7909  2.7421  0.8968
 6800TIP3    H241892   3.714   1.477   3.333 -0.4655 -0.1248 -0.1499
 6801TIP3   OH241893   1.779   3.521   0.110 -0.0015  0.2063 -0.5087
 6801TIP3    H141894   1.829   3.601   0.125 -0.0141  0.0903  0.1485
 6801TIP3    H241895   1.688   3.550   0.109 -0.0488  0.0954  0.4345
 6802TIP3   OH241896   3.995   5.367   4.932  0.0608  0.4425  0.0480
 6802TIP3    H141897   3.990   5.429   4.859 -0.0021  0.3370 -0.0381
 6802TIP3    H241898   3.930   5.399   4.995 -1.1936 -0.4949 -0.7410
 6803TIP3   OH241899   0.962   3.143  17.156 -0.5677 -0.0967 -0.2932
 6803TIP3    H141900   1.002   3.180  17.077  1.5138 -0.8417  0.3824
 6803TIP3    H241901   1.035   3.100  17.201 -2.5816 -3.5862 -0.2180
 6804TIP3   OH241902   1.782   2.446   0.463  0.2734 -0.7858  0.0570
 6804TIP3    H141903   1.802   2.443   0.557 -1.3356 -0.3133  0.4396
 6804TIP3    H241904   1.704   2.502   0.458  0.9925  0.0864 -1.6786
 6805TIP3   OH241905   2.381   1.545  12.284 -0.3075  0.3484  0.4905
 6805TIP3    H141906   2.363   1.473  12.222  2.1723 -0.4851  0.6929
 6805TIP3    H241907   2.419   1.614  12.229  1.5503 -0.2499  1.0113
 6806TIP3   OH241908   4.468   1.571   0.173  0.6510  0.0562  0.5322
 6806TIP3    H141909   4.469   1.605   0.262 -0.5581 -0.6411  0.8123
 6806TIP3    H241910   4.391   1.611   0.133  0.9227 -0.0035 -0.0639
 6807TIP3   OH241911   2.796   2.876  14.423 -0.5248 -0.4379  0.0997
 6807TIP3    H141912   2.761   2.963  14.443 -0.8524 -0.4476 -0.4372
 6807TIP3    H241913   2.889   2.890  14.405 -0.4657 -0.2741  0.5141
 6808TIP3   OH241914   5.537   0.561   5.818  0.2891 -0.4361  0.6782
 6808TIP3    H141915   5.594   0.521   5.883  0.5662 -0.4607  0.4215
 6808TIP3    H241916   5.488   0.627   5.867 -0.4635 -1.3542  1.1825
 6809TIP3   OH241917   1.734   3.884   1.442 -0.4595 -0.0836  0.0428
 6809TIP3    H141918   1.640   3.884   1.423 -0.2275 -1.3937 -1.1950
 6809TIP3    H241919   1.776   3.865   1.358  0.7782 -2.1228  1.0764
 6810TIP3   OH241920   0.886   6.071  14.807 -0.3373  0.0408 -0.3683
 6810TIP3    H141921   0.887   5.995  14.866  3.0004 -0.1392 -0.5703
 6810TIP3    H241922   0.919   6.143  14.861 -1.3498  0.8338 -0.8134
 6811TIP3   OH241923   5.087   0.226   4.702 -0.3468  0.2472 -0.0858
 6811TIP3    H141924   5.132   0.278   4.635 -0.6973 -0.8507 -1.1985
 6811TIP3    H241925   5.158   0.187   4.753  0.0278 -1.5565 -1.8975
 6812TIP3   OH241926   5.057   3.371   5.428 -0.0659 -0.4823 -0.2640
 6812TIP3    H141927   5.028   3.280   5.438  1.2604 -1.0151 -1.0057
 6812TIP3    H241928   5.073   3.402   5.517 -0.5378 -0.9680 -0.0087
 6813TIP3   OH241929   6.164   0.778  12.290  0.0156 -0.5239  0.4405
 6813TIP3    H141930   6.126   0.699  12.252 -0.6992 -0.6278  1.3504
 6813TIP3    H241931   6.161   0.842  12.219  1.2280 -1.4990 -0.5203
 6814TIP3   OH241932   2.428   6.323   5.692 -0.0149 -0.1778  0.0059
 6814TIP3    H141933   2.451   6.412   5.665 -0.8374 -0.0195 -0.1996
 6814TIP3    H241934   2.348   6.333   5.744  0.0758 -0.7594  0.2630
 6815TIP3   OH241935   4.298   4.077  15.488 -0.4564  0.2144  0.7217
 6815TIP3    H141936   4.389   4.049  15.483 -0.2417  1.1816 -1.3783
 6815TIP3    H241937   4.301   4.172  15.477 -1.8709  0.0113 -2.1848
 6816TIP3   OH241938   0.178   4.072   3.319  0.0665 -0.2501 -0.5285
 6816TIP3    H141939   0.244   4.053   3.386  0.7415  0.2222 -1.0427
 6816TIP3    H241940   0.177   3.994   3.264 -0.8661 -0.8454  0.3363
 6817TIP3   OH241941   1.062   4.468   6.615  0.0481 -0.5835 -0.6157
 6817TIP3    H141942   1.072   4.524   6.692  1.7430 -1.1021 -0.4487
 6817TIP3    H241943   1.003   4.398   6.644  0.9756 -0.9806  0.3368
 6818TIP3   OH241944   6.532   2.083  13.575 -0.3039 -0.2552 -0.4446
 6818TIP3    H141945   6.519   2.175  13.551  2.3890  0.0853 -0.7404
 6818TIP3    H241946   6.525   2.082  13.671 -0.5691  0.2114 -0.4581
 6819TIP3   OH241947   1.880   0.412  13.605 -0.5360 -0.0667 -0.3826
 6819TIP3    H141948   1.901   0.326  13.567  0.3197  0.5011 -1.2017
 6819TIP3    H241949   1.937   0.420  13.681 -0.8282 -0.3428 -0.1305
 6820TIP3   OH241950   2.533   5.480  15.499 -0.0539 -0.2812 -0.4066
 6820TIP3    H141951   2.503   5.564  15.535 -1.2946 -0.2643 -1.4521
 6820TIP3    H241952   2.626   5.477  15.522 -0.0794  1.2061 -0.0105
 6821TIP3   OH241953   0.679   4.208   4.711 -0.9187 -0.3102  0.5029
 6821TIP3    H141954   0.685   4.249   4.625  2.4384 -0.0706  0.7891
 6821TIP3    H241955   0.655   4.279   4.770  0.3919  0.3253  0.2942
 6822TIP3   OH241956   3.209   3.618   0.304  0.3067 -0.1315  0.0390
 6822TIP3    H141957   3.176   3.538   0.262 -1.4045  0.4913  0.1515
 6822TIP3    H241958   3.303   3.617   0.287  0.2861 -2.1150 -0.0532
 6823TIP3   OH241959   6.698   6.034   4.367  0.1425 -0.5210  0.2662
 6823TIP3    H141960   6.759   5.965   4.339 -0.1796 -1.1974  1.1922
 6823TIP3    H241961   6.622   6.024   4.311  1.4452  1.2838 -1.9189
 6824TIP3   OH241962   5.193   3.101  13.326  0.4813  0.3114 -0.2080
 6824TIP3    H141963   5.282   3.136  13.327  0.7324 -0.2217 -2.2349
 6824TIP3    H241964   5.175   3.078  13.417  3.2790 -1.7214 -0.1057
 6825TIP3   OH241965   4.080   2.755  12.851 -0.7656  0.6818 -0.1915
 6825TIP3    H141966   4.054   2.667  12.822  0.2355 -0.0633  1.0762
 6825TIP3    H241967   4.020   2.814  12.807 -1.6815 -0.6788 -0.7974
 6826TIP3   OH241968   5.328   4.086   4.897  0.0294 -0.3027 -0.0719
 6826TIP3    H141969   5.350   4.176   4.919  0.6575 -0.6983  0.9445
 6826TIP3    H241970   5.388   4.033   4.949 -1.3028 -1.3322  0.4398
 6827TIP3   OH241971   3.180   0.650  16.416  0.0408  0.0059  0.4390
 6827TIP3    H141972   3.214   0.583  16.356 -0.5213  0.2707 -0.1767
 6827TIP3    H241973   3.136   0.600  16.485  0.3816 -0.2863  0.4521
 6828TIP3   OH241974   1.689   0.601  16.695  0.4493 -0.5139 -0.2712
 6828TIP3    H141975   1.634   0.523  16.700 -0.1958 -0.0344  0.1455
 6828TIP3    H241976   1.755   0.579  16.629 -1.7938 -0.1431 -2.7306
 6829TIP3   OH241977   6.350   3.544   0.250 -0.0428  0.4483 -0.0825
 6829TIP3    H141978   6.330   3.476   0.314  0.4002 -0.0062 -0.4231
 6829TIP3    H241979   6.357   3.624   0.302  0.5514  0.0411  0.4710
 6830TIP3   OH241980   3.630   2.585   2.656 -0.7657 -0.0531 -0.1885
 6830TIP3    H141981   3.713   2.631   2.658 -0.5894 -0.4315  1.3323
 6830TIP3    H241982   3.615   2.568   2.563 -0.0262  1.5763 -0.6273
 6831TIP3   OH241983   5.491   0.625  11.830 -0.7613 -0.5215  0.3764
 6831TIP3    H141984   5.541   0.545  11.813  0.7215  0.2045  1.1919
 6831TIP3    H241985   5.400   0.600  11.816 -0.1473 -1.7212 -1.7453
 6832TIP3   OH241986   0.097   2.671   6.296 -0.6307 -0.2118  0.4491
 6832TIP3    H141987   0.062   2.594   6.251 -0.0936  0.1351 -0.5739
 6832TIP3    H241988   0.029   2.738   6.285 -0.0847  0.1630 -0.6854
 6833TIP3   OH241989   4.218   3.241  16.837 -0.1572  0.8367 -0.2634
 6833TIP3    H141990   4.136   3.276  16.802  0.3858  0.7528 -1.6487
 6833TIP3    H241991   4.287   3.291  16.793  0.5647 -0.1267 -0.2505
 6834TIP3   OH241992   0.777   1.539  16.772  0.1553  0.1609  0.0837
 6834TIP3    H141993   0.784   1.518  16.866  1.0465  0.3978  0.0746
 6834TIP3    H241994   0.863   1.515  16.736  0.6376  2.2618 -0.2340
 6835TIP3   OH241995   3.003   2.920  12.880  0.1241 -0.5413  0.0566
 6835TIP3    H141996   3.076   2.916  12.941 -0.8266 -0.7646  1.1886
 6835TIP3    H241997   3.012   2.841  12.827 -0.0146 -1.2234  1.0322
 6836TIP3   OH241998   0.050   5.141   4.619  0.1184  0.5228 -0.0090
 6836TIP3    H141999   0.005   5.225   4.621 -0.0334  0.4226  1.2038
 6836TIP3    H242000  -0.013   5.081   4.580  0.1695  0.9356 -0.7290
 6837TIP3   OH242001   3.589   0.757  12.175 -0.3565 -0.1272 -0.0785
 6837TIP3    H142002   3.509   0.808  12.176 -0.3059 -0.0313 -0.7868
 6837TIP3    H242003   3.656   0.818  12.142  0.0502 -0.1461  0.6856
 6838TIP3   OH242004   3.607   5.708  16.756  0.1750  0.1711  0.2943
 6838TIP3    H142005   3.584   5.674  16.669  1.7212  1.3945 -0.6137
 6838TIP3    H242006   3.702   5.716  16.754  0.5302 -2.3782  3.0940
 6839TIP3   OH242007   5.143   2.315   1.604 -0.1988  0.3017 -0.4626
 6839TIP3    H142008   5.231   2.280   1.611 -0.6561 -0.6786  0.5092
 6839TIP3    H242009   5.147   2.401   1.646  0.4211  0.5181 -0.9566
 6840TIP3   OH242010   2.285   3.465   4.991  0.2053  0.5111  0.0645
 6840TIP3    H142011   2.324   3.405   5.055 -0.3419  0.2164  0.1233
 6840TIP3    H242012   2.285   3.416   4.909 -1.9417 -0.2669  0.5070
 6841TIP3   OH242013   0.179   6.801  12.319  0.1620 -0.7407 -0.0068
 6841TIP3    H142014   0.176   6.770  12.229 -0.6179  1.0254 -0.6164
 6841TIP3    H242015   0.243   6.744  12.362  3.2109  0.5739 -2.5415
 6842TIP3   OH242016   3.272   0.635   6.377 -0.0451  0.1773 -0.0930
 6842TIP3    H142017   3.342   0.699   6.365 -0.6522  0.6665 -1.1985
 6842TIP3    H242018   3.317   0.551   6.387  0.6959  0.3937 -1.4272
 6843TIP3   OH242019   1.021   2.375   3.364 -0.3837  0.0906  0.3450
 6843TIP3    H142020   0.985   2.301   3.316 -0.6977  0.5791 -0.1721
 6843TIP3    H242021   0.947   2.433   3.379 -0.2406  0.0552  1.2077
 6844TIP3   OH242022   3.012   1.692  16.507  0.4743  0.0837  0.5942
 6844TIP3    H142023   3.032   1.599  16.512 -0.2019 -0.5317 -4.7540
 6844TIP3    H242024   3.087   1.730  16.462 -1.3150  1.1640 -1.6272
 6845TIP3   OH242025   0.726   1.969  11.413 -0.0742  0.5265 -0.3023
 6845TIP3    H142026   0.677   2.051  11.413  0.0427  0.6117  0.9293
 6845TIP3    H242027   0.748   1.954  11.505  1.2767 -0.0698 -0.6992
 6846TIP3   OH242028   3.275   6.323  13.950  0.2151  0.3441  0.1821
 6846TIP3    H142029   3.358   6.295  13.911 -0.3265 -0.2140 -0.5704
 6846TIP3    H242030   3.209   6.304  13.883 -0.4363  1.3962  0.5207
 6847TIP3   OH242031   4.875   6.226   1.127  0.3641  0.7955  0.0226
 6847TIP3    H142032   4.941   6.195   1.189  0.3428 -1.3227 -0.9580
 6847TIP3    H242033   4.800   6.167   1.140 -1.0150  2.6272  0.5134
 6848TIP3   OH242034   0.038   2.088  14.221  0.0264  0.3135 -0.6843
 6848TIP3    H142035   0.014   2.179  14.207 -0.1200  0.7022  1.9051
 6848TIP3    H242036   0.129   2.082  14.192  0.8985  1.9450  1.5718
 6849TIP3   OH242037   3.434   0.847   2.824  0.9997 -0.2301  0.0215
 6849TIP3    H142038   3.508   0.901   2.797  1.2277 -0.6102 -0.1146
 6849TIP3    H242039   3.363   0.910   2.839  0.0438 -0.1680 -4.0907
 6850TIP3   OH242040   1.289   4.840  10.515  0.3938  0.2145 -0.4525
 6850TIP3    H142041   1.253   4.752  10.502  0.5433  0.2906 -1.4046
 6850TIP3    H242042   1.384   4.826  10.522  0.5847  0.4789 -2.3640
 6851TIP3   OH242043   4.260   4.937  13.052  0.7208  0.0706  0.3796
 6851TIP3    H142044   4.312   4.959  13.130  1.0744 -3.1712  1.1334
 6851TIP3    H242045   4.171   4.928  13.086  0.6220  0.0912  0.1223
 6852TIP3   OH242046   0.149   3.171   3.888  0.3299  0.3345  0.1571
 6852TIP3    H142047   0.168   3.105   3.821  2.7717  0.1723  0.9709
 6852TIP3    H242048   0.069   3.213   3.857  0.2738 -1.1202 -1.8099
 6853TIP3   OH242049   0.068   5.805  10.417  0.0878 -0.5364 -0.1003
 6853TIP3    H142050   0.085   5.718  10.379 -0.0038  0.4419 -2.4550
 6853TIP3    H242051  -0.014   5.794  10.464 -0.7442 -1.3817 -1.6809
 6854TIP3   OH242052   2.682   5.322   0.847 -0.2103 -0.3912  0.7223
 6854TIP3    H142053   2.613   5.386   0.864 -0.6230 -0.6734  0.1084
 6854TIP3    H242054   2.761   5.362   0.884 -0.3264  0.7913 -0.2951
 6855TIP3   OH242055   0.359   1.383  15.693  0.0547  0.6784 -0.3179
 6855TIP3    H142056   0.274   1.346  15.666  0.3827 -1.4910  1.4452
 6855TIP3    H242057   0.419   1.309  15.690  1.5200  1.8345  0.1084
 6856TIP3   OH242058   4.671   0.186  15.494  0.4423 -0.1768 -0.1979
 6856TIP3    H142059   4.750   0.200  15.547  0.4409  0.8311 -0.4628
 6856TIP3    H242060   4.697   0.118  15.431  1.5956  1.2147 -1.2762
 6857TIP3   OH242061   2.619   4.623   4.426  0.2495  0.3183  0.6443
 6857TIP3    H142062   2.531   4.604   4.458 -0.2319  1.2002 -0.1340
 6857TIP3    H242063   2.668   4.542   4.443 -0.3650  0.2486  2.2307
 6858TIP3   OH242064   3.245   2.468   3.893 -0.1460  0.5426  0.0914
 6858TIP3    H142065   3.321   2.513   3.929 -0.2487 -1.2406  2.6725
 6858TIP3    H242066   3.196   2.437   3.969 -2.2114 -0.3926 -1.5481
 6859TIP3   OH242067   4.852   2.819  13.766  0.4403  0.2507  0.0421
 6859TIP3    H142068   4.878   2.905  13.798  1.1569 -0.4282  1.3028
 6859TIP3    H242069   4.888   2.757  13.829 -0.3287 -0.9691 -0.6847
 6860TIP3   OH242070   0.384   1.133  11.479  0.5074 -0.2333  0.2346
 6860TIP3    H142071   0.308   1.096  11.435  0.3677  1.4504 -1.0244
 6860TIP3    H242072   0.455   1.127  11.415  0.6297  1.0604  0.2248
 6861TIP3   OH242073   6.799   2.227   1.946 -0.0116 -0.0555  0.0145
 6861TIP3    H142074   6.814   2.308   1.994  3.2826 -0.7768  0.2950
 6861TIP3    H242075   6.878   2.215   1.894 -1.4017 -1.9375 -1.7432
 6862TIP3   OH242076   0.182   6.090  15.501 -0.0737  0.1411 -0.3982
 6862TIP3    H142077   0.228   6.048  15.574  1.5257  1.5950 -0.5433
 6862TIP3    H242078   0.237   6.070  15.425 -0.8262  0.0847 -0.9196
 6863TIP3   OH242079   4.269   3.153   6.267  0.4542 -0.0549  0.3892
 6863TIP3    H142080   4.351   3.144   6.317  1.0441  1.7371 -0.2239
 6863TIP3    H242081   4.280   3.234   6.217 -1.3665 -0.2403 -0.3501
 6864TIP3   OH242082   3.067   0.902   3.952  0.2192  0.3572  0.4092
 6864TIP3    H142083   2.985   0.923   3.907 -0.6937 -0.3903  1.6884
 6864TIP3    H242084   3.103   0.987   3.977 -0.6487  0.6437  0.6764
 6865TIP3   OH242085   1.066   1.691   4.013  0.1892 -0.2178  0.5527
 6865TIP3    H142086   1.118   1.768   3.991 -0.3391 -0.6097 -2.1714
 6865TIP3    H242087   1.128   1.618   4.007 -0.5264 -0.6451 -2.3731
 6866TIP3   OH242088   3.420   1.414   2.763  0.0811  0.6287  0.4091
 6866TIP3    H142089   3.460   1.491   2.804  0.4977  0.6889 -0.0972
 6866TIP3    H242090   3.393   1.358   2.837 -0.8602  1.5744  0.7888
 6867TIP3   OH242091   2.458   6.721   2.758 -0.2202 -0.0691  0.1382
 6867TIP3    H142092   2.390   6.655   2.744 -0.0114 -0.3844  0.6215
 6867TIP3    H242093   2.511   6.717   2.679 -1.5439  1.1088 -0.8412
 6868TIP3   OH242094   5.359   5.717  14.663  0.4856  0.2638  0.3504
 6868TIP3    H142095   5.354   5.633  14.709 -0.4287  0.4447  0.5817
 6868TIP3    H242096   5.381   5.693  14.573 -0.1380 -0.2482  0.3308
 6869TIP3   OH242097   5.692   0.019   4.855 -0.1900 -0.0952 -0.7030
 6869TIP3    H142098   5.646   0.084   4.909  0.1271  0.4880 -1.1263
 6869TIP3    H242099   5.657   0.032   4.767  1.3458  0.8835 -1.1801
 6870TIP3   OH242100   6.649   4.185   0.372  0.2893 -0.4449 -0.2415
 6870TIP3    H142101   6.563   4.229   0.368  0.0458 -0.9223 -0.3052
 6870TIP3    H242102   6.640   4.111   0.312  0.8367 -0.3428 -0.4489
 6871TIP3   OH242103   0.906   2.079   5.238 -0.4794 -0.0371 -0.1335
 6871TIP3    H142104   0.912   2.145   5.170  1.1676 -0.5988 -0.5488
 6871TIP3    H242105   0.834   2.022   5.210 -0.2376  0.1202 -1.0779
 6872TIP3   OH242106   3.925   5.885   0.774  0.2271 -0.1770  0.1279
 6872TIP3    H142107   3.997   5.917   0.829  0.6850 -0.3510 -0.3729
 6872TIP3    H242108   3.929   5.790   0.783  0.6829 -0.2381 -0.6865
 6873TIP3   OH242109   0.792   5.718  13.610  0.2847  0.5839  0.0923
 6873TIP3    H142110   0.719   5.714  13.548  0.1699  1.9174  0.1257
 6873TIP3    H242111   0.750   5.718  13.696  0.3617  0.5531  0.1302
 6874TIP3   OH242112   0.654   3.646   4.040  0.4707 -0.2292  0.0437
 6874TIP3    H142113   0.584   3.646   3.975  0.1051 -0.8681  0.4312
 6874TIP3    H242114   0.609   3.635   4.123  0.8567  1.5875  0.5162
 6875TIP3   OH242115   1.302   0.630  15.545  0.3136  0.3928  0.4218
 6875TIP3    H142116   1.309   0.638  15.640 -0.0648 -0.8576  0.5543
 6875TIP3    H242117   1.219   0.585  15.530 -0.0300  1.3117 -0.5435
 6876TIP3   OH242118   4.783   5.484  11.918 -0.1523  0.3930  0.2393
 6876TIP3    H142119   4.780   5.476  11.823 -0.4782  0.6904  0.2249
 6876TIP3    H242120   4.817   5.573  11.934 -0.3877  0.4574  0.3967
 6877TIP3   OH242121   1.655   5.215   2.709  0.0155 -0.3715 -0.4050
 6877TIP3    H142122   1.682   5.302   2.677 -2.6297 -0.0413 -1.9178
 6877TIP3    H242123   1.649   5.226   2.804 -0.1926  1.1007 -0.5644
 6878TIP3   OH242124   2.568   4.511  15.997  0.1289 -0.1811  0.1886
 6878TIP3    H142125   2.515   4.468  16.064  0.0889  0.9967  0.9128
 6878TIP3    H242126   2.627   4.569  16.045  2.8925 -2.2987 -0.5115
 6879TIP3   OH242127   5.547   5.348  16.338  0.7376  0.4644  0.2032
 6879TIP3    H142128   5.494   5.380  16.265  0.1286  0.4805  0.6473
 6879TIP3    H242129   5.518   5.399  16.413  1.0302  0.1184  0.5559
 6880TIP3   OH242130   6.571   0.429  12.377  0.2477 -0.2316  0.4363
 6880TIP3    H142131   6.498   0.445  12.436 -0.8378 -1.4442 -0.5510
 6880TIP3    H242132   6.645   0.412  12.435 -0.6757 -0.8494  1.4617
 6881TIP3   OH242133   1.112   2.135   1.272 -0.1064 -0.5665 -0.3913
 6881TIP3    H142134   1.042   2.199   1.283  2.0390  1.6780  0.5346
 6881TIP3    H242135   1.076   2.054   1.309 -2.0571  0.6526  0.4409
 6882TIP3   OH242136   4.791   4.355  17.154 -0.6621  0.0404  0.2014
 6882TIP3    H142137   4.821   4.409  17.227  0.0340  0.0752 -0.1089
 6882TIP3    H242138   4.796   4.412  17.077  0.4918 -0.5776 -0.2008
 6883TIP3   OH242139   2.992   5.939  15.709  0.0155 -0.3466 -0.2328
 6883TIP3    H142140   2.922   5.989  15.667 -0.6692 -1.5241 -0.5058
 6883TIP3    H242141   2.959   5.920  15.797  1.1443  1.4800  0.6028
 6884TIP3   OH242142   3.361   4.729  12.375  0.4915 -0.1249  0.5659
 6884TIP3    H142143   3.316   4.720  12.459 -1.1272  1.0366 -0.1661
 6884TIP3    H242144   3.298   4.698  12.310  1.0918  0.6025 -0.3802
 6885TIP3   OH242145   2.625   0.772   5.067  0.2900 -0.1424  0.2917
 6885TIP3    H142146   2.678   0.719   5.126  0.3258  0.9875  1.2903
 6885TIP3    H242147   2.684   0.793   4.994 -0.0733 -2.4226 -0.6946
 6886TIP3   OH242148   6.393   6.172   4.647 -0.1993 -0.8508  0.4313
 6886TIP3    H142149   6.335   6.140   4.577  0.7494  0.4828 -1.0114
 6886TIP3    H242150   6.369   6.265   4.657  1.8073 -0.2179 -0.3444
 6887TIP3   OH242151   5.799   3.599  16.635  0.6852 -0.0453  0.4223
 6887TIP3    H142152   5.740   3.663  16.595  1.2438  0.8800  1.0735
 6887TIP3    H242153   5.877   3.599  16.580  0.9789  0.3677  0.8349
 6888TIP3   OH242154   1.357   5.684   0.792  0.0720  0.1218  0.0312
 6888TIP3    H142155   1.452   5.692   0.802 -0.1689  0.1205  2.5484
 6888TIP3    H242156   1.343   5.692   0.697  2.5456  0.3398 -0.3667
 6889TIP3   OH242157   2.232   0.016   1.124 -0.0206 -0.0278  0.2136
 6889TIP3    H142158   2.316  -0.021   1.152 -0.7521 -1.4255  0.6026
 6889TIP3    H242159   2.228   0.101   1.168  1.0035 -0.1215  0.5128
 6890TIP3   OH242160   0.274   4.311   4.412 -0.2098  0.0956 -0.4703
 6890TIP3    H142161   0.351   4.262   4.383 -1.1341 -0.0957 -2.7380
 6890TIP3    H242162   0.294   4.336   4.502  1.3526 -2.2739 -0.1073
 6891TIP3   OH242163   2.100   5.012   3.155  0.0695  0.3598  0.4517
 6891TIP3    H142164   2.093   5.047   3.066  1.9888 -1.9610 -0.6802
 6891TIP3    H242165   2.027   4.951   3.163 -0.0341  0.4799  0.4134
 6892TIP3   OH242166   6.811   0.871  16.241  0.0212 -0.1595  0.9898
 6892TIP3    H142167   6.730   0.844  16.284 -0.8855  0.1603 -0.5131
 6892TIP3    H242168   6.813   0.966  16.250 -1.1081  0.1017 -1.2797
 6893TIP3   OH242169   6.789   2.677   5.620  0.1309 -0.4420 -0.0734
 6893TIP3    H142170   6.706   2.713   5.587  0.5518 -0.1292 -0.8048
 6893TIP3    H242171   6.764   2.596   5.665 -1.0229  1.4228  2.7973
 6894TIP3   OH242172   4.412   2.924   4.911  0.1667  0.6129  0.0260
 6894TIP3    H142173   4.484   2.970   4.953  0.4722  1.3307 -1.2631
 6894TIP3    H242174   4.453   2.872   4.842 -0.1740 -1.6514  1.5009
 6895TIP3   OH242175   1.925   2.257   4.912 -0.2038  0.5152  0.0705
 6895TIP3    H142176   1.960   2.168   4.901  1.0192  1.0355 -0.2467
 6895TIP3    H242177   1.961   2.306   4.839 -0.5614  1.3778  0.4739
 6896TIP3   OH242178   6.387   5.074  11.786 -0.4597 -0.3319  0.4069
 6896TIP3    H142179   6.425   5.090  11.872  3.1813 -1.1836 -0.9788
 6896TIP3    H242180   6.451   5.019  11.741 -2.1282  0.3834 -2.9977
 6897TIP3   OH242181   2.018   3.824  13.052  0.1076  0.0762  0.0751
 6897TIP3    H142182   1.987   3.911  13.024 -0.1451  0.6216  1.9480
 6897TIP3    H242183   1.982   3.764  12.987 -1.2496  1.1794 -0.2288
 6898TIP3   OH242184   6.793   1.952   2.153 -0.4522  0.0321  0.1162
 6898TIP3    H142185   6.756   2.040   2.162  1.3119  0.6620  1.6919
 6898TIP3    H242186   6.782   1.912   2.240 -1.2460 -1.3167 -0.5877
 6899TIP3   OH242187   0.282   5.311   2.479 -0.4758 -0.1535 -0.0428
 6899TIP3    H142188   0.240   5.353   2.404 -1.0418  0.5373  0.6521
 6899TIP3    H242189   0.210   5.274   2.530 -0.0570 -1.0521 -0.0945
 6900TIP3   OH242190   2.393   4.456   5.425 -0.4750 -0.0164 -0.1762
 6900TIP3    H142191   2.395   4.535   5.479 -1.7503  0.6980 -1.1627
 6900TIP3    H242192   2.303   4.424   5.431  0.4631 -2.4632  1.7019
 6901TIP3   OH242193   3.487   3.286  12.522 -0.5484 -0.7951  0.5962
 6901TIP3    H142194   3.427   3.348  12.563 -0.8867  0.5583 -1.8194
 6901TIP3    H242195   3.571   3.331  12.518  0.1907 -1.9923  2.3289
 6902TIP3   OH242196   3.229   2.962   2.749  0.1902  0.1749 -0.1793
 6902TIP3    H142197   3.308   2.950   2.695 -0.6813 -1.1346 -1.2027
 6902TIP3    H242198   3.242   3.046   2.792  1.8230  0.3147 -0.9087
 6903TIP3   OH242199   6.602   1.301  13.495  0.2783 -0.9364  0.1336
 6903TIP3    H142200   6.657   1.351  13.435  0.6174 -2.1665 -0.5920
 6903TIP3    H242201   6.646   1.307  13.580  1.4262 -1.7246 -0.3974
 6904TIP3   OH242202   4.766   2.606   4.740  0.5176  0.1722 -0.2066
 6904TIP3    H142203   4.775   2.511   4.749 -0.3163 -0.0248 -1.3702
 6904TIP3    H242204   4.735   2.634   4.826  0.7682 -0.6108  0.1494
 6905TIP3   OH242205   2.417   3.385   0.222  0.0625 -0.3506 -0.3398
 6905TIP3    H142206   2.406   3.291   0.206  0.5386 -0.7739  1.6677
 6905TIP3    H242207   2.331   3.423   0.205 -0.0714 -1.1163 -1.4069
 6906TIP3   OH242208   0.288   1.409   1.870 -0.8512  0.0372  0.6527
 6906TIP3    H142209   0.250   1.322   1.855  0.3861 -0.4033 -0.0170
 6906TIP3    H242210   0.356   1.395   1.936 -1.4573  0.7152  1.4246
 6907TIP3   OH242211   0.684   3.982  12.283 -0.0303  0.1651  0.6696
 6907TIP3    H142212   0.650   4.052  12.339  1.9823  1.5153  0.2843
 6907TIP3    H242213   0.737   4.029  12.218 -0.2644 -1.5814 -0.7999
 6908TIP3   OH242214   0.628   5.399  14.370 -0.2977 -0.4530  0.1231
 6908TIP3    H142215   0.674   5.468  14.321  1.3764 -1.8299 -0.2915
 6908TIP3    H242216   0.538   5.431  14.377 -0.1550  0.6242 -2.2776
 6909TIP3   OH242217   1.229   2.791  16.893  0.6126  0.1926 -0.0734
 6909TIP3    H142218   1.211   2.839  16.812  0.0415  0.2344  0.0730
 6909TIP3    H242219   1.294   2.844  16.938 -0.4512  1.1442  0.3603
 6910TIP3   OH242220   6.300   2.873   2.038  0.2607 -0.1219  0.0490
 6910TIP3    H142221   6.273   2.782   2.051 -0.2813  0.2131  1.3699
 6910TIP3    H242222   6.222   2.924   2.060  0.0732  0.6193 -2.1679
 6911TIP3   OH242223   3.897   3.278  15.880 -0.5455  0.2161 -0.5337
 6911TIP3    H142224   3.992   3.287  15.893 -0.4286 -1.3824 -0.1693
 6911TIP3    H242225   3.873   3.355  15.828  0.7082  1.3763  0.5714
 6912TIP3   OH242226   0.103   3.815  12.924 -0.2514  0.1857 -0.4207
 6912TIP3    H142227   0.033   3.752  12.940 -1.5921  1.8178  0.3088
 6912TIP3    H242228   0.161   3.805  12.999 -0.4324 -0.2223 -0.3310
 6913TIP3   OH242229   4.440   6.801  15.441 -0.6907  0.0099  0.4306
 6913TIP3    H142230   4.496   6.830  15.369 -1.4286 -2.4784 -1.2338
 6913TIP3    H242231   4.501   6.771  15.509  0.0682 -2.2084 -1.1642
 6914TIP3   OH242232   1.665   6.254  15.891 -0.1708  0.2551 -0.2542
 6914TIP3    H142233   1.605   6.212  15.831 -0.7590 -2.0299  1.8562
 6914TIP3    H242234   1.745   6.267  15.840 -0.8935 -0.9363 -1.7230
 6915TIP3   OH242235   3.795   6.601  10.717  0.0897  0.0348  0.5620
 6915TIP3    H142236   3.746   6.543  10.775 -2.1663  2.1252  0.8032
 6915TIP3    H242237   3.775   6.689  10.748 -0.8462  1.1929 -3.0854
 6916TIP3   OH242238   0.552   6.302   2.880  0.0197 -0.2068  0.2945
 6916TIP3    H142239   0.525   6.393   2.862  3.9861  0.8409 -0.8374
 6916TIP3    H242240   0.561   6.262   2.794  2.9824 -0.1556  0.5161
 6917TIP3   OH242241   4.052   3.492  13.062 -0.6061 -0.2193 -0.1079
 6917TIP3    H142242   4.105   3.542  13.000  0.5820 -0.4775  0.6665
 6917TIP3    H242243   3.971   3.474  13.015 -1.1489  2.5876 -0.3354
 6918TIP3   OH242244   5.137   6.527   6.073 -0.1412 -0.0115  0.4757
 6918TIP3    H142245   5.126   6.459   6.006 -1.0155  1.8194 -1.3199
 6918TIP3    H242246   5.075   6.502   6.142  0.1840 -1.4900  0.2626
 6919TIP3   OH242247   3.250   1.217  15.613  0.0222  0.4936  0.5273
 6919TIP3    H142248   3.318   1.163  15.653 -0.3631 -0.1775  0.2840
 6919TIP3    H242249   3.176   1.210  15.673  0.2901  1.5635  1.0111
 6920TIP3   OH242250   1.961   1.351   4.355  0.0970 -0.2848 -0.1134
 6920TIP3    H142251   1.873   1.340   4.319 -0.5101  0.8223  0.9749
 6920TIP3    H242252   2.020   1.319   4.287 -1.1462 -0.9741 -0.8763
 6921TIP3   OH242253   2.233   3.770   3.521  0.2156  0.2314 -0.7313
 6921TIP3    H142254   2.216   3.864   3.510  0.0665  0.2098 -0.6892
 6921TIP3    H242255   2.147   3.732   3.534  0.3027  0.1314 -0.4352
 6922TIP3   OH242256   4.035   5.717  13.546 -0.2939 -0.6927  0.2398
 6922TIP3    H142257   4.115   5.679  13.583 -0.9093 -2.0824  0.1869
 6922TIP3    H242258   3.969   5.650  13.560 -1.0572 -0.2818 -1.3166
 6923TIP3   OH242259   0.375   0.203   3.276 -0.2020 -0.3034 -0.3713
 6923TIP3    H142260   0.376   0.298   3.267 -1.0530 -0.2900 -0.3929
 6923TIP3    H242261   0.424   0.171   3.200  1.5511  0.1687  0.5441
 6924TIP3   OH242262   3.397   6.469   0.447  0.6986  0.0158 -0.3639
 6924TIP3    H142263   3.365   6.383   0.421 -1.6037  1.0965 -1.3498
 6924TIP3    H242264   3.394   6.469   0.542 -1.6679 -0.2165 -0.3931
 6925TIP3   OH242265   3.971   3.185  13.114  0.0096 -0.4893 -0.4589
 6925TIP3    H142266   3.917   3.241  13.058 -0.0013  0.9208  0.9319
 6925TIP3    H242267   4.038   3.243  13.149 -0.6679 -1.0810  1.9091
 6926TIP3   OH242268   1.216   6.488  15.253  0.6793 -0.4690  0.5918
 6926TIP3    H142269   1.158   6.495  15.177  0.2569  0.0460  0.9616
 6926TIP3    H242270   1.195   6.402  15.291  1.7636 -1.2704 -0.5778
 6927TIP3   OH242271   0.482   2.247  16.258 -0.3939 -0.0434 -0.2420
 6927TIP3    H142272   0.496   2.155  16.280 -0.0802  0.1194  0.2743
 6927TIP3    H242273   0.417   2.246  16.189  0.0523 -0.6864 -0.6637
 6928TIP3   OH242274   5.738   5.704  12.517 -0.1495 -0.0959  0.4376
 6928TIP3    H142275   5.758   5.616  12.486 -2.1108 -0.2885 -0.3560
 6928TIP3    H242276   5.780   5.763  12.454  0.7780 -0.4658  0.7106
 6929TIP3   OH242277   5.736   3.503   2.257  0.5514 -0.0071  0.1746
 6929TIP3    H142278   5.788   3.550   2.322  1.1180 -0.0347 -0.2604
 6929TIP3    H242279   5.797   3.442   2.216  0.1419 -0.1416 -0.2405
 6930TIP3   OH242280   0.294   1.754   5.295 -0.0397 -0.0422 -0.3575
 6930TIP3    H142281   0.232   1.683   5.281 -0.5397  0.0978  1.0927
 6930TIP3    H242282   0.379   1.710   5.302 -0.2412 -0.4202 -0.2867
 6931TIP3   OH242283   6.039   5.019  15.070  0.2705  0.0693 -0.3317
 6931TIP3    H142284   5.994   4.936  15.055  0.5048 -0.3293  1.1264
 6931TIP3    H242285   6.130   4.995  15.084  0.5990  0.7056 -1.3214
 6932TIP3   OH242286   3.138   3.827   3.822  0.5528 -0.5432  0.1489
 6932TIP3    H142287   3.092   3.799   3.902 -0.9970 -0.9174 -0.8574
 6932TIP3    H242288   3.084   3.794   3.750  2.6473 -1.4108 -1.0826
 6933TIP3   OH242289   0.909   4.300   5.329  0.9633  0.3538 -0.3343
 6933TIP3    H142290   0.990   4.350   5.323 -0.9034  3.4499 -1.3727
 6933TIP3    H242291   0.852   4.339   5.262 -1.9553 -0.5773  1.4895
 6934TIP3   OH242292   4.858   6.188  12.459 -0.0019 -0.3449  0.2116
 6934TIP3    H142293   4.891   6.126  12.393  1.4415  1.1112 -0.4787
 6934TIP3    H242294   4.888   6.151  12.542 -2.3439 -2.5078  0.1354
 6935TIP3   OH242295   1.676   1.137   2.297 -0.4807  0.4979  0.0408
 6935TIP3    H142296   1.581   1.125   2.303 -0.5464  1.1124  0.3281
 6935TIP3    H242297   1.703   1.152   2.388 -0.1192  0.4185 -0.0540
 6936TIP3   OH242298   6.185   2.386  13.487  0.0926  0.0899  0.4967
 6936TIP3    H142299   6.200   2.479  13.471 -0.4970 -0.2599 -2.5004
 6936TIP3    H242300   6.106   2.384  13.541  0.6000  1.3563  1.3011
 6937TIP3   OH242301   6.055   1.592  16.012 -0.7091  0.2501  0.1227
 6937TIP3    H142302   5.994   1.626  16.078  0.6146  0.9557  0.9935
 6937TIP3    H242303   6.037   1.646  15.935  0.4538  2.1014  1.1022
 6938TIP3   OH242304   5.719   0.157   1.382 -0.3427  0.8951  0.0565
 6938TIP3    H142305   5.814   0.149   1.387 -0.3746 -0.2534 -1.0090
 6938TIP3    H242306   5.701   0.247   1.411  0.8983  0.4979  2.1065
 6939TIP3   OH242307   0.729   5.075  12.465  0.6780 -0.1130  0.4721
 6939TIP3    H142308   0.795   5.137  12.496  0.0184 -0.0928  1.8665
 6939TIP3    H242309   0.711   5.103  12.375  2.1289  0.2416  0.2755
 6940TIP3   OH242310   5.941   3.026  13.510  0.1392 -0.2725 -0.8236
 6940TIP3    H142311   5.962   3.119  13.499 -2.0598  0.3654  0.2542
 6940TIP3    H242312   5.883   3.023  13.586 -1.4427 -2.3068 -2.0654
 6941TIP3   OH242313   1.158   1.570   1.140 -0.6084  0.2740  0.7387
 6941TIP3    H142314   1.131   1.490   1.185  0.8583  0.0604  1.2427
 6941TIP3    H242315   1.148   1.550   1.047  2.4125 -1.4692  0.7514
 6942TIP3   OH242316   1.462   6.757  11.554 -0.1036  0.0370 -0.3535
 6942TIP3    H142317   1.438   6.668  11.581  0.4241  0.0473  0.1719
 6942TIP3    H242318   1.414   6.814  11.614  1.2004  0.0574  0.7011
 6943TIP3   OH242319   4.292   0.191  16.475  0.2655  0.1851  0.1802
 6943TIP3    H142320   4.202   0.188  16.507  0.2215  1.2090  0.1761
 6943TIP3    H242321   4.285   0.170  16.382  0.3631 -2.5184  0.7413
 6944TIP3   OH242322   1.224   4.614  15.350 -0.5147  0.3683  0.5842
 6944TIP3    H142323   1.297   4.652  15.301 -0.1111  0.9079  1.5971
 6944TIP3    H242324   1.259   4.600  15.438 -1.7929  1.1088  1.2092
 6945TIP3   OH242325   6.595   5.355   4.191  0.1675  0.0005 -0.1256
 6945TIP3    H142326   6.558   5.278   4.148 -0.0291 -0.3274  0.6279
 6945TIP3    H242327   6.532   5.424   4.175  1.4503  0.6398 -2.8561
 6946TIP3   OH242328   1.431   0.640  12.150 -0.5036 -0.5863 -0.2250
 6946TIP3    H142329   1.384   0.705  12.098 -0.5892 -0.9907 -0.6636
 6946TIP3    H242330   1.364   0.604  12.209 -0.4809 -0.3509 -0.0564
 6947TIP3   OH242331   2.327   6.169   2.582  0.0410  0.2968 -0.5768
 6947TIP3    H142332   2.397   6.186   2.518 -1.0860 -0.2811 -1.9903
 6947TIP3    H242333   2.330   6.075   2.597  1.9882  0.7711  2.2308
 6948TIP3   OH242334   2.037   3.083  13.044  0.1884 -0.6323 -0.2249
 6948TIP3    H142335   2.091   3.148  12.998 -0.4435 -1.4528 -2.1823
 6948TIP3    H242336   2.094   3.007  13.055  0.2906 -0.4925  0.2391
 6949TIP3   OH242337   1.766   6.105  16.112 -0.2651  0.2316  0.3428
 6949TIP3    H142338   1.685   6.107  16.163 -0.6722 -2.1773 -0.1435
 6949TIP3    H242339   1.741   6.136  16.025 -0.1069  1.9092  0.8777
 6950TIP3   OH242340   0.188   2.617  12.633  0.0554  0.7007 -0.0891
 6950TIP3    H142341   0.190   2.544  12.695 -0.4603  0.9770  0.2525
 6950TIP3    H242342   0.280   2.629  12.609  0.1683  0.0652  0.0003
 6951TIP3   OH242343   3.210   2.869  12.573 -0.3881 -0.0564 -0.2773
 6951TIP3    H142344   3.220   2.819  12.654  0.3179  0.3757 -0.0921
 6951TIP3    H242345   3.121   2.850  12.543  0.1544 -2.0955 -0.6541
 6952TIP3   OH242346   3.376   0.440  15.638  0.1149  0.3104 -0.3610
 6952TIP3    H142347   3.385   0.515  15.580  2.5843  0.0187 -0.4087
 6952TIP3    H242348   3.375   0.364  15.581 -0.4281  0.1788 -0.1858
 6953TIP3   OH242349   1.945   3.797  12.131  0.1612  0.0316 -0.0858
 6953TIP3    H142350   1.896   3.773  12.053  0.1058  1.1520 -0.3991
 6953TIP3    H242351   1.936   3.721  12.189 -0.7276 -0.3487 -0.7141
 6954TIP3   OH242352   2.046   3.051   5.933  0.2040  0.1342 -0.0976
 6954TIP3    H142353   1.996   2.980   5.974 -0.4361  0.7410  0.1691
 6954TIP3    H242354   2.077   3.013   5.851 -1.3372 -0.0111 -0.6251
 6955TIP3   OH242355   3.276   1.769   2.622  0.7778 -0.5493 -0.0646
 6955TIP3    H142356   3.289   1.825   2.699 -0.6839  0.6731 -0.6954
 6955TIP3    H242357   3.190   1.730   2.635  0.6010 -0.4800 -1.0063
 6956TIP3   OH242358   6.727   0.336  11.148  0.2780  0.0403  0.0812
 6956TIP3    H142359   6.663   0.322  11.079  2.3085  1.4981 -2.2097
 6956TIP3    H242360   6.801   0.280  11.124  0.9462  0.4233  1.1930
 6957TIP3   OH242361   1.098   2.983   0.651  0.1658 -0.1519 -0.0883
 6957TIP3    H142362   1.038   3.058   0.651 -0.5719 -0.7403 -0.3758
 6957TIP3    H242363   1.148   2.993   0.732 -1.4559 -0.5551  0.9944
 6958TIP3   OH242364   3.256   2.449  15.217  0.0688 -0.0970  0.0689
 6958TIP3    H142365   3.334   2.402  15.187  1.7342  1.0517  2.3729
 6958TIP3    H242366   3.245   2.520  15.154  1.8786  0.6577  0.5487
 6959TIP3   OH242367   2.352   0.362   3.176 -0.5656 -0.4282  0.0132
 6959TIP3    H142368   2.282   0.385   3.114 -0.9102  1.0886  0.9498
 6959TIP3    H242369   2.432   0.378   3.127 -0.8188  1.8299  0.2899
 6960TIP3   OH242370   5.252   5.260   2.273  0.0442  0.4607  0.5335
 6960TIP3    H142371   5.213   5.177   2.245  1.3594  0.4839 -1.4731
 6960TIP3    H242372   5.207   5.281   2.355  1.2528 -3.3608  2.3237
 6961TIP3   OH242373   3.502   5.531  14.548  0.0893 -0.3024 -0.3606
 6961TIP3    H142374   3.455   5.498  14.624  1.6192  1.8794  1.6021
 6961TIP3    H242375   3.443   5.595  14.509  0.7783  1.3025  1.1912
 6962TIP3   OH242376   3.861   3.018  16.734 -0.0779  0.1023 -0.3235
 6962TIP3    H142377   3.934   3.051  16.787 -0.9876  0.4059  0.7467
 6962TIP3    H242378   3.873   2.923  16.732  0.7033  0.2018 -0.6962
 6963TIP3   OH242379   0.676   6.360   1.392  0.1777 -0.0957 -0.3830
 6963TIP3    H142380   0.763   6.390   1.368  0.1022 -0.1494 -0.7166
 6963TIP3    H242381   0.641   6.318   1.314  0.7182 -2.0836  0.4189
 6964TIP3   OH242382   5.439   2.646  11.777 -0.4879 -0.0012  0.6282
 6964TIP3    H142383   5.427   2.696  11.858 -0.4091 -1.2283  1.3973
 6964TIP3    H242384   5.355   2.655  11.731 -0.5296  0.7036  0.8354
 6965TIP3   OH242385   0.049   6.675  12.745  0.2680  0.5247  0.0255
 6965TIP3    H142386   0.087   6.738  12.685  3.5854 -1.3457  0.0655
 6965TIP3    H242387   0.108   6.673  12.820 -2.1130  0.5069  1.9900
 6966TIP3   OH242388   0.734   0.523   2.060  0.3335 -0.8034 -0.3569
 6966TIP3    H142389   0.758   0.510   1.968  1.1835 -0.5310 -0.1717
 6966TIP3    H242390   0.674   0.451   2.079 -1.6308  0.3847 -1.7646
 6967TIP3   OH242391   2.485   6.670  12.124 -0.2431  0.1263 -0.3579
 6967TIP3    H142392   2.550   6.606  12.093  0.8010  1.0625 -0.1262
 6967TIP3    H242393   2.485   6.660  12.219  0.4569  0.9759 -0.2671
 6968TIP3   OH242394   5.602   6.121   0.016 -0.0778 -0.0875 -0.0575
 6968TIP3    H142395   5.565   6.034   0.006 -0.1894  0.0249 -0.6534
 6968TIP3    H242396   5.595   6.140   0.110  0.4548 -0.9360  0.1504
 6969TIP3   OH242397   0.590   2.622  11.253 -0.1934 -0.1577 -0.4331
 6969TIP3    H142398   0.626   2.698  11.208  2.4545 -0.1761  1.5341
 6969TIP3    H242399   0.616   2.548  11.199  5.5346 -0.4650  2.3884
 6970TIP3   OH242400   4.620   0.232   1.433 -0.6036  0.0051 -0.3194
 6970TIP3    H142401   4.700   0.228   1.380  0.3588  1.3280  0.9948
 6970TIP3    H242402   4.606   0.142   1.462  0.0557 -0.3489 -1.0622
 6971TIP3   OH242403   4.119   2.587  10.891 -0.0002 -0.0678  0.5216
 6971TIP3    H142404   4.095   2.515  10.833 -0.4334  0.8359 -0.4443
 6971TIP3    H242405   4.195   2.627  10.849  1.3575 -1.0546  1.9904
 6972TIP3   OH242406   0.914   3.985  16.180  0.7171 -0.1843  0.0284
 6972TIP3    H142407   0.957   4.044  16.118  0.1401 -0.4680 -0.6460
 6972TIP3    H242408   0.860   3.928  16.126 -1.5124  0.9848  0.9388
 6973TIP3   OH242409   2.491   2.381  14.419 -0.1322 -0.3027  0.3263
 6973TIP3    H142410   2.493   2.409  14.328 -1.0498 -0.6734  0.1827
 6973TIP3    H242411   2.421   2.433  14.458 -0.8860 -1.3717  0.4019
 6974TIP3   OH242412   0.425   2.825   4.331 -0.2434  0.6483 -0.4144
 6974TIP3    H142413   0.349   2.792   4.380  0.1146 -0.2110 -0.4406
 6974TIP3    H242414   0.495   2.763   4.351  0.3365  1.1916 -0.7517
 6975TIP3   OH242415   4.162   6.220   0.143  0.0657 -0.3519  0.2059
 6975TIP3    H142416   4.078   6.186   0.175  0.1584 -1.9773 -1.1663
 6975TIP3    H242417   4.138   6.292   0.084 -0.2735  0.3562  1.2123
 6976TIP3   OH242418   1.915   1.371   1.294  0.1895  0.5414  0.1483
 6976TIP3    H142419   1.884   1.364   1.384 -2.0187  3.9959 -0.2732
 6976TIP3    H242420   1.989   1.311   1.290 -1.5188 -1.9675  3.4117
 6977TIP3   OH242421   5.839   5.857   3.125 -0.5011 -0.1010  0.1899
 6977TIP3    H142422   5.925   5.872   3.086 -0.2509  2.9831  1.8037
 6977TIP3    H242423   5.777   5.865   3.052  0.1445  3.2308 -0.0484
 6978TIP3   OH242424   5.531   2.592  13.685 -0.4214 -0.0048  0.0914
 6978TIP3    H142425   5.440   2.598  13.714 -0.2598  3.1086  0.1337
 6978TIP3    H242426   5.582   2.584  13.766 -0.6155 -1.2084  0.0966
 6979TIP3   OH242427   2.722   1.305   2.429 -0.0648 -0.0399 -0.3652
 6979TIP3    H142428   2.739   1.321   2.336  0.2015  1.2925 -0.0963
 6979TIP3    H242429   2.654   1.369   2.452 -0.8846 -1.0719  0.1052
 6980TIP3   OH242430   2.321   2.152   2.097 -0.0596 -0.3739 -0.3861
 6980TIP3    H142431   2.234   2.172   2.129  0.3397 -0.4229  0.7367
 6980TIP3    H242432   2.338   2.220   2.031 -1.8238 -1.7008 -2.2354
 6981TIP3   OH242433   6.529   3.043  11.356  0.0388  0.2172 -0.3637
 6981TIP3    H142434   6.602   3.023  11.415 -0.3242 -1.9248 -0.5889
 6981TIP3    H242435   6.542   3.134  11.332  3.4433 -0.4493 -1.4513
 6982TIP3   OH242436   5.174   2.631  11.677  0.0290 -0.5746 -0.2330
 6982TIP3    H142437   5.124   2.550  11.689 -0.3858 -0.5881 -1.8837
 6982TIP3    H242438   5.122   2.681  11.614  0.5570  0.7463  0.3687
 6983TIP3   OH242439   5.358   2.052   6.204  0.0800  0.5798 -0.0360
 6983TIP3    H142440   5.287   2.117   6.200  0.1583  0.6801  0.1563
 6983TIP3    H242441   5.438   2.104   6.189  0.2534  0.7448  1.4037
 6984TIP3   OH242442   1.348   6.291  16.544  0.2856  0.2165 -0.7713
 6984TIP3    H142443   1.435   6.263  16.517 -0.2062  1.2733 -3.6214
 6984TIP3    H242444   1.328   6.365  16.486 -1.0958  2.2049  2.1552
 6985TIP3   OH242445   2.345   2.413  16.411 -0.6257 -0.0663 -0.3079
 6985TIP3    H142446   2.282   2.449  16.348 -0.4490  1.3782  0.3289
 6985TIP3    H242447   2.377   2.489  16.459  2.2300 -0.6841 -1.1700
 6986TIP3   OH242448   4.971   2.427   3.400  0.3126  0.4156 -0.1698
 6986TIP3    H142449   4.942   2.453   3.487 -0.5792 -1.4454  0.1169
 6986TIP3    H242450   4.910   2.471   3.340 -1.8285 -1.7430  0.3453
 6987TIP3   OH242451   3.382   4.412  10.426 -0.4303  0.2719  0.3236
 6987TIP3    H142452   3.335   4.370  10.497  0.0978 -1.9536 -0.5968
 6987TIP3    H242453   3.429   4.340  10.382  0.9837  1.9047 -0.9231
 6988TIP3   OH242454   6.339   5.393  13.452  0.2775 -0.1486  1.0478
 6988TIP3    H142455   6.368   5.425  13.537  0.7490 -0.4488  1.0056
 6988TIP3    H242456   6.329   5.299  13.463  0.6112 -0.2300  0.7045
 6989TIP3   OH242457   2.102   6.313   2.500  0.6983 -0.5474 -0.0491
 6989TIP3    H142458   2.182   6.275   2.536  0.9975  0.2590  0.1442
 6989TIP3    H242459   2.050   6.338   2.577 -2.2168 -5.9981  0.0130
 6990TIP3   OH242460   2.107   0.269   0.617 -0.1822 -0.4922 -0.3231
 6990TIP3    H142461   2.048   0.329   0.572  0.7996  1.4932  0.9510
 6990TIP3    H242462   2.182   0.259   0.558 -0.2966 -0.3856 -0.4851
 6991TIP3   OH242463   6.452   0.540  13.484 -0.2571 -0.6699  0.3685
 6991TIP3    H142464   6.371   0.586  13.508  0.4963 -0.0662  1.7947
 6991TIP3    H242465   6.493   0.596  13.417  0.2681  0.3465  1.5293
 6992TIP3   OH242466   2.708   0.274   4.209 -0.8567  0.1675  0.1517
 6992TIP3    H142467   2.625   0.227   4.203 -0.1953 -0.8106 -1.7436
 6992TIP3    H242468   2.761   0.221   4.268 -0.6278 -0.6986 -0.8176
 6993TIP3   OH242469   5.911   4.592   3.849  0.2831 -0.0671  0.1024
 6993TIP3    H142470   5.997   4.553   3.866 -0.8198 -2.8464 -0.3588
 6993TIP3    H242471   5.882   4.550   3.767 -1.9615  0.0094  0.8371
 6994TIP3   OH242472   3.594   4.298  12.854  0.0627 -0.0655  0.0711
 6994TIP3    H142473   3.625   4.215  12.891  0.9837  0.0178 -0.4853
 6994TIP3    H242474   3.533   4.273  12.785 -0.1524 -0.2670  0.3367
 6995TIP3   OH242475   4.294   6.347   1.528  0.4249 -0.0395  0.0764
 6995TIP3    H142476   4.297   6.414   1.459  0.5234  0.4597  0.5645
 6995TIP3    H242477   4.330   6.269   1.487  3.1813  1.0198  0.4203
 6996TIP3   OH242478   0.182   1.011   4.412 -0.2556  0.3533  0.5758
 6996TIP3    H142479   0.120   1.070   4.370 -0.5977  0.1731  0.8251
 6996TIP3    H242480   0.203   0.947   4.343  0.1816  0.8128  0.2820
 6997TIP3   OH242481   3.662   2.050   3.231  0.2205 -0.7150 -0.1123
 6997TIP3    H142482   3.750   2.039   3.266 -0.1489 -0.9376  0.7744
 6997TIP3    H242483   3.663   2.135   3.188  0.3234  0.1720  1.6076
 6998TIP3   OH242484   1.786   0.974  11.834  0.2049 -0.1368 -0.3187
 6998TIP3    H142485   1.798   0.935  11.747  0.9204 -2.8573  0.9474
 6998TIP3    H242486   1.740   0.906  11.884  2.0226  0.4004  2.1415
 6999TIP3   OH242487   6.003   0.292  14.449  0.2391  0.4483  0.5230
 6999TIP3    H142488   6.048   0.216  14.412  0.1116  0.6945 -0.1456
 6999TIP3    H242489   6.074   0.351  14.476  0.3283  0.5639  0.0432
 7000TIP3   OH242490   1.784   3.710  13.770  0.2556  0.1544 -0.4951
 7000TIP3    H142491   1.836   3.790  13.769  1.4324 -0.4899  2.7862
 7000TIP3    H242492   1.701   3.736  13.812  0.4892 -0.2456  0.2228
 7001TIP3   OH242493   5.480   6.355   4.325 -0.3278  0.2965 -0.4161
 7001TIP3    H142494   5.461   6.270   4.365 -0.8969  1.6487  2.3065
 7001TIP3    H242495   5.396   6.385   4.291 -0.9065  1.3347  1.8246
 7002TIP3   OH242496   5.971   5.155   3.381  0.0397  0.1563  0.2043
 7002TIP3    H142497   5.979   5.134   3.474  0.7975  1.8294  0.5434
 7002TIP3    H242498   6.057   5.190   3.356 -1.3536  3.5582 -0.0784
 7003TIP3   OH242499   2.813   1.649   6.411  0.3026 -0.4863  0.3695
 7003TIP3    H142500   2.888   1.647   6.351 -1.2291  1.6438 -1.6961
 7003TIP3    H242501   2.742   1.609   6.361 -0.0986 -2.1169  2.1804
 7004TIP3   OH242502   1.984   5.776  11.508  0.1746 -0.4466  0.3569
 7004TIP3    H142503   1.998   5.765  11.414 -0.0137 -2.2710  0.5221
 7004TIP3    H242504   1.891   5.761  11.521  0.1601  0.0089  0.8102
 7005TIP3   OH242505   2.167   2.118  16.357 -0.0185  0.0134  0.0456
 7005TIP3    H142506   2.256   2.088  16.373 -0.0606 -0.4860 -0.6319
 7005TIP3    H242507   2.111   2.051  16.395 -0.1182 -1.1472 -2.0379
 7006TIP3   OH242508   4.398   2.920   0.418  0.4985  0.3850  0.2499
 7006TIP3    H142509   4.385   2.939   0.325 -1.0286  2.3532  0.8328
 7006TIP3    H242510   4.487   2.948   0.436 -0.4820  3.6621  0.2271
 7007TIP3   OH242511   1.194   4.295   4.571 -0.0755 -0.2944 -0.9758
 7007TIP3    H142512   1.115   4.332   4.609  0.1920  0.1145 -0.8066
 7007TIP3    H242513   1.257   4.292   4.643  0.2891  0.0571 -1.2719
 7008TIP3   OH242514   5.677   3.673   5.391 -0.1906  0.0481  0.3438
 7008TIP3    H142515   5.707   3.762   5.376  1.6384 -0.6874 -0.5092
 7008TIP3    H242516   5.585   3.673   5.363  0.3027  1.2331 -1.3113
 7009TIP3   OH242517   5.677   0.151   3.509 -0.3641 -1.2515 -0.0033
 7009TIP3    H142518   5.760   0.145   3.557 -0.4125  1.0557  0.4260
 7009TIP3    H242519   5.610   0.136   3.575 -0.4131  1.3868  0.5908
 7010TIP3   OH242520   5.630   2.418   0.209  0.0371 -0.1520  0.2474
 7010TIP3    H142521   5.710   2.448   0.167  0.6420  1.4364  2.4620
 7010TIP3    H242522   5.564   2.482   0.185  0.1708  0.2534  0.9410
 7011TIP3   OH242523   6.802   2.672  15.496  0.2331  0.3642 -0.3074
 7011TIP3    H142524   6.768   2.677  15.586  0.5545  0.7104 -0.2058
 7011TIP3    H242525   6.756   2.741  15.449 -1.6546 -1.2833 -0.9805
 7012TIP3   OH242526   0.429   4.433   3.694  0.0696 -0.1817 -0.2098
 7012TIP3    H142527   0.382   4.493   3.636  0.3374  0.0720 -0.1686
 7012TIP3    H242528   0.520   4.440   3.666  0.4308  1.0510  1.1937
 7013TIP3   OH242529   4.660   5.410  16.274 -0.4916 -0.3462 -0.3019
 7013TIP3    H142530   4.740   5.358  16.284  0.1306  0.8158  0.8211
 7013TIP3    H242531   4.656   5.464  16.352 -1.1294  1.3091 -1.4447
 7014TIP3   OH242532   3.886   5.434   2.644  0.0521 -0.3260  0.8012
 7014TIP3    H142533   3.877   5.433   2.739 -1.3604 -2.9309  0.6997
 7014TIP3    H242534   3.817   5.374   2.613  0.0261  1.0287 -1.8930
 7015TIP3   OH242535   3.190   2.150   5.504  0.1370  0.5029 -0.2534
 7015TIP3    H142536   3.125   2.087   5.473  0.6366  0.0912 -0.4601
 7015TIP3    H242537   3.274   2.113   5.479  0.3830  1.9035 -1.5881
 7016TIP3   OH242538   2.115   1.182   5.309  0.3037 -0.4442 -0.1465
 7016TIP3    H142539   2.188   1.177   5.248 -0.4145  0.3252 -1.0638
 7016TIP3    H242540   2.072   1.265   5.290 -0.2694 -0.4641  1.0072
 7017TIP3   OH242541   0.282   4.973  16.890 -0.0612 -0.1065  0.3477
 7017TIP3    H142542   0.296   4.915  16.815  1.2644  0.0061  0.4955
 7017TIP3    H242543   0.333   4.933  16.960 -1.5587 -0.3892  1.2909
 7018TIP3   OH242544   5.867   3.227   4.164  0.6719  0.0775 -0.6921
 7018TIP3    H142545   5.874   3.316   4.198  0.4477 -0.2772  0.3071
 7018TIP3    H242546   5.774   3.205   4.173  0.6633 -0.1323 -1.2625
 7019TIP3   OH242547   6.007   3.952   6.052  0.5573 -0.3811 -0.6645
 7019TIP3    H142548   5.944   3.886   6.024 -0.0666  1.0853 -2.8622
 7019TIP3    H242549   5.993   3.961   6.146 -0.6127 -2.0202 -0.6608
 7020TIP3   OH242550   5.088   0.312   5.610 -0.3948 -0.0545  0.4542
 7020TIP3    H142551   5.167   0.360   5.636  0.5926 -1.5781  0.3411
 7020TIP3    H242552   5.095   0.304   5.515 -0.2901 -0.8354  0.5214
 7021TIP3   OH242553   4.209   5.822   2.105 -0.5634  0.1357  0.2775
 7021TIP3    H142554   4.254   5.800   2.187 -0.8394  1.7885  0.8982
 7021TIP3    H242555   4.203   5.739   2.058  1.4079 -0.4729  1.0323
 7022TIP3   OH242556   0.687   1.997   5.821 -0.1301  0.2612  0.8652
 7022TIP3    H142557   0.687   1.969   5.729  1.0779 -1.7070  1.4348
 7022TIP3    H242558   0.660   1.920   5.869  0.4362  0.9324  2.2782
 7023TIP3   OH242559   4.533   1.621   3.914  0.6595 -0.0314 -0.4681
 7023TIP3    H142560   4.523   1.535   3.872  0.9832  0.5407 -1.7427
 7023TIP3    H242561   4.515   1.605   4.007  1.4429 -1.6202 -0.5757
 7024TIP3   OH242562   6.427   3.625  11.760 -0.1243  0.8973  0.1148
 7024TIP3    H142563   6.497   3.632  11.825  0.4786 -0.5809 -0.3660
 7024TIP3    H242564   6.467   3.652  11.678 -0.8361  2.5772  0.2878
 7025TIP3   OH242565   4.030   1.008   1.278 -0.2653 -0.0448  0.0364
 7025TIP3    H142566   3.998   1.078   1.221  0.6444 -1.4965 -2.3320
 7025TIP3    H242567   4.103   1.047   1.326 -1.6549  1.4776  0.9480
 7026TIP3   OH242568   3.805   2.989  14.217  0.0631  0.1361 -0.0591
 7026TIP3    H142569   3.792   3.081  14.238  0.2011  0.1907 -0.2107
 7026TIP3    H242570   3.852   2.953  14.293 -0.9868 -0.0682  0.4976
 7027TIP3   OH242571   5.166   6.694   2.140 -0.4080  0.0479 -0.2993
 7027TIP3    H142572   5.194   6.693   2.231  0.2230  0.0875 -0.4911
 7027TIP3    H242573   5.071   6.681   2.144 -0.3508 -0.1849  0.3476
 7028TIP3   OH242574   2.957   4.017   3.694 -0.3630 -0.3111 -0.1283
 7028TIP3    H142575   2.977   4.056   3.780  1.6339  1.4824 -1.3574
 7028TIP3    H242576   3.020   3.946   3.684  1.0923  1.0852 -1.1469
 7029TIP3   OH242577   5.281   5.454  16.639  0.5177  0.2726 -0.1429
 7029TIP3    H142578   5.231   5.535  16.646 -0.7040 -0.5742  1.5249
 7029TIP3    H242579   5.238   5.394  16.701  0.3415 -2.1891 -2.5286
 7030TIP3   OH242580   4.029   2.460   0.092 -0.6099 -0.7447  0.1662
 7030TIP3    H142581   4.107   2.503   0.127 -1.3723  1.5140 -0.7896
 7030TIP3    H242582   3.962   2.472   0.160 -0.8162 -0.3913 -0.0922
 7031TIP3   OH242583   1.034   1.610  13.773 -0.5319 -0.0475  0.0514
 7031TIP3    H142584   1.070   1.631  13.686  1.5640 -0.7537  0.7230
 7031TIP3    H242585   1.002   1.694  13.806 -1.2881  0.2434 -1.3622
 7032TIP3   OH242586   4.288   3.011   1.831  0.6138 -0.2066  0.4845
 7032TIP3    H142587   4.208   3.051   1.798  1.2466  0.8688  0.2481
 7032TIP3    H242588   4.302   2.935   1.774 -1.3294 -1.5910  1.7951
 7033TIP3   OH242589   6.530   4.443  16.015 -0.5261 -0.6380 -0.1793
 7033TIP3    H142590   6.441   4.479  16.011 -0.4739  0.1103  3.8002
 7033TIP3    H242591   6.586   4.517  15.990 -0.8475 -0.1073  0.6465
 7034TIP3   OH242592   5.431   0.071   3.619 -0.3648 -0.0395 -0.5430
 7034TIP3    H142593   5.411   0.065   3.526 -0.9706 -0.0605 -0.4109
 7034TIP3    H242594   5.440  -0.020   3.647 -0.4823 -0.0422 -0.5151
 7035TIP3   OH242595   2.039   0.831   2.080  0.5844  0.3972  0.5702
 7035TIP3    H142596   1.949   0.835   2.111 -0.3227  0.8636 -2.0343
 7035TIP3    H242597   2.081   0.909   2.117 -0.4802  0.9686  0.5939
 7036TIP3   OH242598   2.408   0.070  14.579  0.4606  0.6491  0.3067
 7036TIP3    H142599   2.432   0.094  14.489  2.0582 -1.6878  0.0651
 7036TIP3    H242600   2.340   0.002  14.568  2.7045 -1.7415  0.7556
 7037TIP3   OH242601   1.194   5.121  15.549  0.2366  0.5656  0.1873
 7037TIP3    H142602   1.273   5.164  15.517  1.5041 -0.4694  1.8703
 7037TIP3    H242603   1.133   5.127  15.475  1.7270  1.7298 -0.9929
 7038TIP3   OH242604   3.048   3.654  12.747 -0.4262 -0.0188  0.3393
 7038TIP3    H142605   3.036   3.655  12.842 -0.1261  1.7016  0.3684
 7038TIP3    H242606   2.960   3.650  12.711 -0.6173  1.1135  0.6771
 7039TIP3   OH242607   0.906   2.583   0.415  0.1574 -0.0411 -0.5362
 7039TIP3    H142608   0.984   2.632   0.390 -0.5650  0.3144 -2.1776
 7039TIP3    H242609   0.906   2.586   0.511  1.2916  1.3114 -0.5494
 7040TIP3   OH242610   4.026   5.529   5.565  0.4685  0.2204  0.5726
 7040TIP3    H142611   3.976   5.454   5.599 -0.4114 -0.0877 -1.3300
 7040TIP3    H242612   4.116   5.513   5.593  0.1987 -1.3144  0.6045
 7041TIP3   OH242613   0.537   3.527  12.891  0.4128  0.5688  1.1354
 7041TIP3    H142614   0.591   3.520  12.813  0.4472  0.0023  1.2103
 7041TIP3    H242615   0.536   3.621  12.911  0.6324  0.6830  0.6201
 7042TIP3   OH242616   6.125   0.118  13.238  0.2457 -0.1645  0.1805
 7042TIP3    H142617   6.174   0.189  13.280 -3.6833  1.3396  2.5262
 7042TIP3    H242618   6.130   0.045  13.299  0.0593 -0.1835  0.1748
 7043TIP3   OH242619   4.320   5.765  10.475  0.4594 -0.3550 -0.0865
 7043TIP3    H142620   4.317   5.861  10.473  1.2801 -0.3458 -3.1065
 7043TIP3    H242621   4.230   5.739  10.493 -0.2280  0.9587 -1.5084
 7044TIP3   OH242622   4.076   2.729  12.441 -0.5455 -0.1242 -0.7629
 7044TIP3    H142623   4.170   2.749  12.440 -0.6081  0.1554 -2.7489
 7044TIP3    H242624   4.061   2.686  12.525  0.6700  3.1428  1.2560
 7045TIP3   OH242625   4.323   1.638  13.130  0.1553  0.1389  0.8375
 7045TIP3    H142626   4.348   1.723  13.165  1.4854  0.4738 -0.8331
 7045TIP3    H242627   4.309   1.583  13.207  0.6527  1.4914  1.9073
 7046TIP3   OH242628   0.528   0.022  16.485  0.5170  0.5215  0.3318
 7046TIP3    H142629   0.550  -0.049  16.424  0.2831  2.1920 -1.7678
 7046TIP3    H242630   0.510  -0.023  16.568  2.3861 -1.6841 -0.3887
 7047TIP3   OH242631   6.636   1.517  15.736  0.6674  0.1949  0.4428
 7047TIP3    H142632   6.721   1.509  15.779  1.1864  0.8735 -0.4404
 7047TIP3    H242633   6.642   1.598  15.684 -0.2340 -0.1556 -0.2343
 7048TIP3   OH242634   6.439   2.461  12.708  0.0254  0.2873 -0.1485
 7048TIP3    H142635   6.518   2.473  12.655  0.1204  1.2623  0.2076
 7048TIP3    H242636   6.451   2.375  12.750  0.3199 -0.1218 -1.0481
 7049TIP3   OH242637   5.084   4.492   2.352  0.1448  0.1939 -0.0210
 7049TIP3    H142638   5.180   4.490   2.354  0.1638 -0.1951 -1.2822
 7049TIP3    H242639   5.060   4.536   2.434  1.4082  0.6201  0.1338
 7050TIP3   OH242640   1.243   1.580  11.256 -0.1893  0.4437 -0.0857
 7050TIP3    H142641   1.256   1.585  11.162 -0.3721  1.8723 -0.0562
 7050TIP3    H242642   1.170   1.639  11.273 -1.8877 -1.8174  0.6430
 7051TIP3   OH242643   0.552   4.321  17.135 -0.3475  0.2339  0.6799
 7051TIP3    H142644   0.583   4.276  17.214 -0.2460  0.1742  0.6087
 7051TIP3    H242645   0.467   4.281  17.117 -0.4967  0.4434  0.9181
 7052TIP3   OH242646   2.146   5.155  16.474 -0.2929  0.2465  0.0227
 7052TIP3    H142647   2.061   5.117  16.452 -0.4099  0.1061  0.7045
 7052TIP3    H242648   2.176   5.104  16.549 -0.2858  1.2617  0.7117
 7053TIP3   OH242649   5.741   3.847   0.511 -0.0787  0.9327  0.7653
 7053TIP3    H142650   5.654   3.824   0.480  0.3337 -0.1488  0.4145
 7053TIP3    H242651   5.766   3.924   0.459  0.1901 -0.2538 -0.8865
 7054TIP3   OH242652   4.206   5.387   2.784 -0.5215  0.4228  0.6819
 7054TIP3    H142653   4.147   5.320   2.749  0.4421  0.2137 -0.5687
 7054TIP3    H242654   4.237   5.434   2.707  1.3194  0.2140  1.2733
 7055TIP3   OH242655   1.131   4.362   2.142 -0.1513  0.5188 -0.2800
 7055TIP3    H142656   1.176   4.280   2.163 -2.4890 -1.4562 -2.6391
 7055TIP3    H242657   1.181   4.399   2.070  0.4564  0.7551  0.2651
 7056TIP3   OH242658   5.114   4.104   1.157 -0.4364 -0.0059 -0.1589
 7056TIP3    H142659   5.197   4.138   1.123 -0.1600 -1.0982 -0.5872
 7056TIP3    H242660   5.071   4.181   1.195  0.2638  0.7849 -0.9401
 7057TIP3   OH242661   4.974   2.048   4.292 -0.3449  0.3493  0.0201
 7057TIP3    H142662   5.017   1.989   4.230 -0.1512  1.9939 -1.4426
 7057TIP3    H242663   4.892   2.071   4.250 -1.5829 -0.8537  1.7266
 7058TIP3   OH242664   5.037   1.825  14.836 -0.0530  0.3011  0.5618
 7058TIP3    H142665   5.049   1.842  14.930 -0.4806 -0.9678  0.8546
 7058TIP3    H242666   4.949   1.787  14.830  0.8003 -1.5888 -0.0831
 7059TIP3   OH242667   1.568   2.929  12.697 -0.3648  0.2618  0.5139
 7059TIP3    H142668   1.584   2.838  12.720 -0.0091 -0.0133 -0.8085
 7059TIP3    H242669   1.655   2.967  12.687 -0.4751 -0.2109 -2.6392
 7060TIP3   OH242670   5.582   1.139  15.306 -0.4249  0.1207  0.0151
 7060TIP3    H142671   5.600   1.217  15.359  0.5907 -0.3293  0.3342
 7060TIP3    H242672   5.586   1.066  15.368  0.7742 -0.4083 -0.6631
 7061TIP3   OH242673   0.871   1.335  13.721  0.0394 -0.1081  0.2656
 7061TIP3    H142674   0.776   1.346  13.727  0.2762  1.3402  1.7546
 7061TIP3    H242675   0.902   1.420  13.688  0.8851 -0.2975  0.5679
 7062TIP3   OH242676   4.599   5.699   3.226 -0.3952 -0.2014 -0.0679
 7062TIP3    H142677   4.644   5.676   3.306 -0.7893 -1.5497 -0.2220
 7062TIP3    H242678   4.591   5.795   3.229  2.1271  0.0290  0.1129
 7063TIP3   OH242679   0.686   0.474  13.959  0.4967  0.3020  0.3235
 7063TIP3    H142680   0.770   0.440  13.991  0.2407  0.5383  1.2793
 7063TIP3    H242681   0.656   0.531  14.030 -1.4042 -1.2865  0.8234
 7064TIP3   OH242682   6.708   1.630   4.346  0.3742 -0.5042 -0.0569
 7064TIP3    H142683   6.647   1.570   4.389  0.9561 -1.4197 -0.5107
 7064TIP3    H242684   6.674   1.717   4.367 -0.8761 -1.0002  0.0129
 7065TIP3   OH242685   0.035   5.447  12.658  0.0847 -0.1930  0.3468
 7065TIP3    H142686   0.052   5.438  12.751  1.6063  0.8172  0.1917
 7065TIP3    H242687  -0.056   5.477  12.652 -1.0832 -3.3903  1.3292
 7066TIP3   OH242688   1.991   0.568  12.268  0.0657  0.4247  0.3730
 7066TIP3    H142689   2.082   0.572  12.240  0.0003  2.0165  0.3368
 7066TIP3    H242690   1.946   0.634  12.215 -0.6883  1.1450  1.8663
 7067TIP3   OH242691   5.987   0.140   6.486  0.4701 -0.4939 -0.1542
 7067TIP3    H142692   6.066   0.086   6.480  0.4980 -0.7437  2.0071
 7067TIP3    H242693   5.935   0.099   6.554 -0.5313  0.9311 -0.0391
 7068TIP3   OH242694   2.776   4.858   3.650  0.5156 -0.5820  0.1881
 7068TIP3    H142695   2.866   4.891   3.648 -0.0535  1.0243  0.4164
 7068TIP3    H242696   2.740   4.878   3.564  0.1258 -0.4835  0.3690
 7069TIP3   OH242697   2.499   1.796   3.838 -0.0027 -0.1322 -0.0122
 7069TIP3    H142698   2.509   1.702   3.825 -1.2601  0.0683 -2.7070
 7069TIP3    H242699   2.579   1.834   3.799  0.0279 -0.0163  0.1622
 7070TIP3   OH242700   4.103   6.219  11.418  0.3154  0.1909 -0.0173
 7070TIP3    H142701   4.103   6.311  11.443 -2.6551  0.5294 -1.0285
 7070TIP3    H242702   4.141   6.218  11.330 -2.0642  0.8469 -1.0940
 7071TIP3   OH242703   2.354   4.455   4.195 -0.1750  0.3180 -0.8130
 7071TIP3    H142704   2.387   4.441   4.284 -1.1107 -2.3924 -0.8413
 7071TIP3    H242705   2.259   4.440   4.202 -0.0919 -1.1785 -2.4632
 7072TIP3   OH242706   1.311   1.971  12.278  0.1561  0.1754 -0.2578
 7072TIP3    H142707   1.364   2.050  12.290  1.3781 -0.7232  0.4245
 7072TIP3    H242708   1.373   1.904  12.249 -0.4944 -1.0283  1.0210
 7073TIP3   OH242709   1.324   4.250  12.538 -0.6241  0.1146  0.0867
 7073TIP3    H142710   1.396   4.227  12.479 -1.6263 -1.3566 -0.5852
 7073TIP3    H242711   1.305   4.169  12.586 -3.1671 -0.0937 -1.1980
 7074TIP3   OH242712   6.688   4.160  15.038 -0.2306 -0.0404  0.2404
 7074TIP3    H142713   6.673   4.242  15.086 -0.2983  0.2389 -0.2597
 7074TIP3    H242714   6.725   4.101  15.103  1.8504  1.0527  0.0959
 7075TIP3   OH242715   2.609   4.565  11.717  0.6216  0.3467  0.0528
 7075TIP3    H142716   2.654   4.649  11.711  0.7806  0.2550 -0.0362
 7075TIP3    H242717   2.519   4.584  11.690  0.9887  0.2222 -1.2690
 7076TIP3   OH242718   5.917   3.428   4.908 -0.2601  0.4502 -0.3332
 7076TIP3    H142719   5.855   3.500   4.903 -0.7080  0.2153  1.5188
 7076TIP3    H242720   5.913   3.398   4.999 -0.0694 -1.8791 -1.0440
 7077TIP3   OH242721   5.713   1.794  14.505 -0.2463  0.0123 -0.2555
 7077TIP3    H142722   5.707   1.707  14.545 -2.7427  1.2386  2.2435
 7077TIP3    H242723   5.689   1.854  14.576  3.3125  2.9131 -1.3582
 7078TIP3   OH242724   3.584   1.087   0.508  0.0475 -0.2832 -0.4436
 7078TIP3    H142725   3.654   1.120   0.453 -0.3961  0.7123 -0.4109
 7078TIP3    H242726   3.578   1.150   0.580  0.7065 -1.6262  0.8223
 7079TIP3   OH242727   5.066   0.281  17.007  0.2808  0.5257 -0.3115
 7079TIP3    H142728   5.097   0.363  16.968  1.4581 -0.1874 -0.9177
 7079TIP3    H242729   5.106   0.212  16.953  0.4979 -0.4618  1.0728
 7080TIP3   OH242730   5.574   0.378   2.627  0.4027  0.0872  0.1402
 7080TIP3    H142731   5.653   0.409   2.671  0.8281 -2.0677  0.9610
 7080TIP3    H242732   5.597   0.292   2.592 -1.4530 -0.4183  0.0797
 7081TIP3   OH242733   2.628   3.438  16.035  0.4376 -0.2525 -0.2860
 7081TIP3    H142734   2.673   3.522  16.021  2.5748 -1.5759 -1.5998
 7081TIP3    H242735   2.588   3.447  16.121 -0.0313  2.4174 -0.7203
 7082TIP3   OH242736   1.077   3.759   0.400  0.3141 -0.4453  0.0853
 7082TIP3    H142737   1.038   3.673   0.387  0.2317 -0.4662  0.4912
 7082TIP3    H242738   1.140   3.767   0.328 -0.4463 -0.3979 -0.5788
 7083TIP3   OH242739   6.456   3.192   3.727  0.3541  0.0001  0.2588
 7083TIP3    H142740   6.432   3.152   3.811  1.8801 -0.1670  0.6192
 7083TIP3    H242741   6.395   3.153   3.664  0.2020 -1.0170  1.0302
 7084TIP3   OH242742   5.828   3.114   4.796 -0.0995 -0.4870 -0.6309
 7084TIP3    H142743   5.763   3.054   4.762 -1.2188  1.4682 -2.0741
 7084TIP3    H242744   5.782   3.165   4.862  1.0298 -1.6446  1.1042
 7085TIP3   OH242745   2.563   0.638  13.290 -0.2134  0.4663 -0.6584
 7085TIP3    H142746   2.538   0.604  13.204  0.1149  1.1416 -1.0217
 7085TIP3    H242747   2.535   0.729  13.289  0.7701  0.7784 -0.4560
 7086TIP3   OH242748   4.911   6.150   3.478  0.1859  0.1169  0.0057
 7086TIP3    H142749   4.921   6.229   3.426 -0.5414  0.8642  0.9919
 7086TIP3    H242750   4.916   6.180   3.569  1.7556 -1.2104  0.3890
 7087TIP3   OH242751   2.444   0.319   1.661 -0.1395  0.6975  0.0616
 7087TIP3    H142752   2.427   0.370   1.582 -0.8261 -0.4456 -0.5399
 7087TIP3    H242753   2.358   0.301   1.697  0.0699 -0.5589 -0.0599
 7088TIP3   OH242754   4.702   3.303   1.238 -0.9853  0.2392 -0.1464
 7088TIP3    H142755   4.793   3.330   1.224 -0.8471  0.2002  0.6488
 7088TIP3    H242756   4.708   3.213   1.269 -1.1644  0.8549  1.8039
 7089TIP3   OH242757   0.874   2.595  13.806 -0.1358 -0.2367  0.2144
 7089TIP3    H142758   0.951   2.604  13.751 -0.6567 -0.9689 -0.6501
 7089TIP3    H242759   0.816   2.667  13.778  0.1922  0.2648  0.8089
 7090TIP3   OH242760   2.440   1.823  13.681 -0.1240 -0.6404  0.2670
 7090TIP3    H142761   2.423   1.887  13.750  1.6362 -0.7305  0.8134
 7090TIP3    H242762   2.392   1.745  13.707 -1.8486  0.2497 -0.1279
 7091TIP3   OH242763   3.617   2.504   6.171 -0.0048 -0.2177 -0.0295
 7091TIP3    H142764   3.586   2.420   6.205 -0.1137 -0.5596 -0.9580
 7091TIP3    H242765   3.596   2.567   6.240 -0.7191 -0.8151  0.3030
 7092TIP3   OH242766   4.026   6.037   1.023  0.2882 -0.1435  0.2206
 7092TIP3    H142767   3.941   6.049   0.981  0.6305 -1.5084 -0.8868
 7092TIP3    H242768   4.030   6.107   1.089 -1.5088  0.1755  0.0166
 7093TIP3   OH242769   1.960   4.595  16.464  0.2796 -0.0280 -0.4641
 7093TIP3    H142770   2.026   4.661  16.444  0.8771 -0.6268 -0.4918
 7093TIP3    H242771   1.938   4.611  16.556 -0.3404  0.8649 -0.7660
 7094TIP3   OH242772   1.425   3.508   1.162  0.3289 -0.1066  0.3086
 7094TIP3    H142773   1.519   3.494   1.175  0.5839  0.4614 -0.8867
 7094TIP3    H242774   1.420   3.573   1.093 -0.9508  0.3460  0.8183
 7095TIP3   OH242775   6.394   6.619  11.791 -0.0252  0.0555  0.4504
 7095TIP3    H142776   6.476   6.668  11.786 -0.1602  0.3449  0.9656
 7095TIP3    H242777   6.409   6.541  11.738 -0.0403  0.9918 -0.9726
 7096TIP3   OH242778   5.024   5.345  13.581 -0.4658 -0.3357 -0.1090
 7096TIP3    H142779   5.059   5.433  13.565 -0.3583 -0.4747 -0.6681
 7096TIP3    H242780   4.929   5.357  13.577 -0.4475 -0.2933 -0.4793
 7097TIP3   OH242781   4.154   4.080   2.754  0.1480  0.2114 -0.4093
 7097TIP3    H142782   4.159   3.990   2.720  1.9715 -0.1243  0.6957
 7097TIP3    H242783   4.080   4.119   2.706  0.2911 -1.3924 -2.0156
 7098TIP3   OH242784   1.704   1.020  12.100 -0.4534  0.0201  0.0400
 7098TIP3    H142785   1.642   1.080  12.143 -0.2551  1.0001 -1.0048
 7098TIP3    H242786   1.765   1.078  12.055 -0.0924 -0.9751 -0.7596
 7099TIP3   OH242787   3.407   3.595   2.956  0.6434 -0.1182  0.1082
 7099TIP3    H142788   3.492   3.575   2.996  0.7553  0.2116  0.0432
 7099TIP3    H242789   3.408   3.690   2.946  0.5429 -0.1850 -0.5259
 7100TIP3   OH242790   2.050   2.611  14.034 -0.4498 -0.1319 -0.2659
 7100TIP3    H142791   1.985   2.601  13.964 -2.3387 -0.2335  1.4358
 7100TIP3    H242792   2.033   2.538  14.093 -0.3413  1.1593  1.3994
 7101TIP3   OH242793   3.615   4.723   5.457  0.0046  0.1742  0.3668
 7101TIP3    H142794   3.625   4.746   5.364 -0.2914  1.4461  0.6376
 7101TIP3    H242795   3.538   4.667   5.459  0.2694 -0.2165 -0.2180
 7102TIP3   OH242796   3.859   0.388   6.008 -0.1444  0.4784 -0.1620
 7102TIP3    H142797   3.871   0.478   6.040 -0.0055  0.2745  0.3602
 7102TIP3    H242798   3.827   0.399   5.918 -1.9197  1.0748  0.5248
 7103TIP3   OH242799   5.241   4.872   5.317  0.3761 -0.4116  0.0011
 7103TIP3    H142800   5.305   4.805   5.295  1.5556 -0.1050  2.3562
 7103TIP3    H242801   5.211   4.905   5.233  2.6697 -1.1542 -1.1494
 7104TIP3   OH242802   3.495   6.803   1.865  0.2628 -0.2932  0.3197
 7104TIP3    H142803   3.577   6.821   1.911  1.9952  1.3614 -3.2398
 7104TIP3    H242804   3.466   6.888   1.833 -1.0627 -1.3058 -1.2758
 7105TIP3   OH242805   0.358   6.639   1.021 -0.2748  0.2223  0.0291
 7105TIP3    H142806   0.412   6.702   0.974 -0.6065 -0.3760 -1.1835
 7105TIP3    H242807   0.286   6.691   1.057  0.0657  0.7066  0.0127
 7106TIP3   OH242808   6.753   4.629   0.621  0.4349 -0.4202 -0.6123
 7106TIP3    H142809   6.740   4.723   0.635 -1.3492 -0.9521  1.6291
 7106TIP3    H242810   6.848   4.618   0.624  0.5917  1.0841  0.9344
 7107TIP3   OH242811   5.904   5.540   1.278 -0.9069 -0.1001 -0.1270
 7107TIP3    H142812   5.820   5.528   1.323 -0.3066  0.2813  1.1319
 7107TIP3    H242813   5.882   5.591   1.201 -1.6821  0.9195  0.7470
 7108TIP3   OH242814   6.630   5.460   3.763 -0.0413 -0.0365  0.0907
 7108TIP3    H142815   6.691   5.441   3.835  3.1008  2.0024 -1.9039
 7108TIP3    H242816   6.599   5.374   3.735  2.9701 -1.2654  0.3427
 7109TIP3   OH242817   2.967   6.357  15.730 -0.4950 -0.3481  0.3115
 7109TIP3    H142818   3.031   6.296  15.693  0.4844  0.6318  0.3701
 7109TIP3    H242819   3.012   6.441  15.732 -1.3405  0.0890  1.5801
 7110TIP3   OH242820   3.749   5.066   1.916 -0.0310  0.2009 -0.4140
 7110TIP3    H142821   3.675   5.011   1.888 -0.6546  1.7007 -1.8354
 7110TIP3    H242822   3.713   5.119   1.987  0.3146 -0.6022  0.3625
 7111TIP3   OH242823   1.461   4.185  14.891 -0.8095 -0.0726  0.3494
 7111TIP3    H142824   1.538   4.129  14.893 -0.2684  0.6275 -0.3154
 7111TIP3    H242825   1.467   4.238  14.970 -1.0083 -0.5403  0.6775
 7112TIP3   OH242826   1.166   1.774   5.340 -0.2270 -0.5891  0.7524
 7112TIP3    H142827   1.083   1.777   5.388 -0.3345  2.5095  0.4542
 7112TIP3    H242828   1.228   1.821   5.395  0.7031 -0.6573 -0.2180
 7113TIP3   OH242829   3.409   5.463   0.048 -0.5433 -0.1975 -0.1998
 7113TIP3    H142830   3.439   5.373   0.063 -2.2261 -0.7246  0.0672
 7113TIP3    H242831   3.489   5.516   0.054  0.7805 -1.8690 -2.2090
 7114TIP3   OH242832   1.316   2.590   0.070 -0.0545  0.1140  0.0883
 7114TIP3    H142833   1.259   2.550   0.135 -1.9289  1.9570 -0.3737
 7114TIP3    H242834   1.297   2.543  -0.011  0.8006 -0.8212  0.4186
 7115TIP3   OH242835   4.016   2.677  14.673 -0.4577 -0.2413 -0.5312
 7115TIP3    H142836   3.961   2.602  14.695  1.5103 -0.6942  3.2216
 7115TIP3    H242837   4.097   2.639  14.640  0.9221  0.1550  2.3209
 7116TIP3   OH242838   5.067   2.919   0.457  0.6883 -0.1077  0.7244
 7116TIP3    H142839   4.973   2.908   0.443  1.0292 -1.3000 -0.8545
 7116TIP3    H242840   5.084   2.876   0.541 -0.3632  1.2483  1.6528
 7117TIP3   OH242841   5.813   3.376   1.556  0.3296 -0.1290 -0.2033
 7117TIP3    H142842   5.752   3.308   1.582  1.0461 -0.6562  0.1140
 7117TIP3    H242843   5.815   3.371   1.460  0.0211 -0.2284 -0.2056
 7118TIP3   OH242844   3.691   0.636  12.973  0.4827  0.0224 -0.5046
 7118TIP3    H142845   3.652   0.629  13.060  1.0332  2.1781 -0.0455
 7118TIP3    H242846   3.620   0.612  12.913 -0.7460  1.2250  0.4324
 7119TIP3   OH242847   1.103   4.901  12.551 -0.2997 -0.2969 -0.3298
 7119TIP3    H142848   1.120   4.969  12.486  0.4655 -1.1275 -1.0250
 7119TIP3    H242849   1.074   4.948  12.629 -1.5811  0.6994 -1.3847
 7120TIP3   OH242850   3.645   5.252   2.633 -0.5898 -0.2585 -0.0900
 7120TIP3    H142851   3.626   5.300   2.714  1.1419  0.9018 -0.3559
 7120TIP3    H242852   3.648   5.160   2.660  1.0009  0.2022  1.3683
 7121TIP3   OH242853   6.373   2.217   4.312  0.2275  0.8221 -0.6803
 7121TIP3    H142854   6.277   2.217   4.305  0.0507 -0.6274  1.1920
 7121TIP3    H242855   6.404   2.201   4.224 -1.3404 -1.8083 -0.7938
 7122TIP3   OH242856   3.760   4.051   4.868 -0.2206  0.3690 -0.4257
 7122TIP3    H142857   3.830   4.034   4.806 -0.0527 -0.7548  0.0686
 7122TIP3    H242858   3.679   4.038   4.818 -0.1220 -2.7537  0.1208
 7123TIP3   OH242859   4.129   6.426  17.248 -0.3169  0.5339 -0.3033
 7123TIP3    H142860   4.103   6.452  17.160  0.7197 -1.5644 -1.2770
 7123TIP3    H242861   4.200   6.485  17.271  2.1404 -1.3965 -2.5451
 7124TIP3   OH242862   1.808   5.033  13.864  0.2562  0.4329 -0.4648
 7124TIP3    H142863   1.725   5.080  13.870  1.0973  1.6397  3.5939
 7124TIP3    H242864   1.865   5.093  13.815 -0.3883  0.9523 -0.5930
 7125TIP3   OH242865   1.717   0.078  15.790  0.0271  0.1499  0.2702
 7125TIP3    H142866   1.686   0.145  15.851  0.2590 -0.9065  1.5700
 7125TIP3    H242867   1.647   0.012  15.789  0.5115 -0.3714  0.2574
 7126TIP3   OH242868   2.774   4.002  11.335 -0.5216  0.0103  0.0196
 7126TIP3    H142869   2.807   4.065  11.271 -0.3618 -0.3548 -0.2591
 7126TIP3    H242870   2.702   4.047  11.379  0.7607  1.0778  1.1049
 7127TIP3   OH242871   2.008   5.648   4.091 -0.0493 -0.0576 -0.6128
 7127TIP3    H142872   2.056   5.711   4.145 -2.3371  0.3766  0.9835
 7127TIP3    H242873   1.991   5.695   4.009 -0.6841  1.0062  0.1096
 7128TIP3   OH242874   0.662   3.970   0.141 -0.3791  0.6114 -0.4393
 7128TIP3    H142875   0.571   3.960   0.169  0.2587 -0.7014  1.2467
 7128TIP3    H242876   0.686   3.883   0.108  0.1306  1.0736 -1.2904
 7129TIP3   OH242877   5.715   5.357   0.500  0.2382  0.3414 -0.3231
 7129TIP3    H142878   5.731   5.296   0.427  1.9402 -0.1198  0.4116
 7129TIP3    H242879   5.732   5.305   0.578 -1.3147  0.9217  0.4174
 7130TIP3   OH242880   3.282   3.078   1.422  0.1366  0.0739 -0.2592
 7130TIP3    H142881   3.368   3.076   1.380 -0.1762 -0.4273 -0.8739
 7130TIP3    H242882   3.219   3.074   1.349 -0.4077  0.2228  0.1972
 7131TIP3   OH242883   5.730   4.677  12.329 -0.0913 -0.0078  0.6957
 7131TIP3    H142884   5.690   4.597  12.361 -0.1449 -0.7064 -1.0918
 7131TIP3    H242885   5.700   4.745  12.390 -1.6343 -0.9945  1.0522
 7132TIP3   OH242886   6.567   1.050  14.982  0.8912  0.4157  0.4751
 7132TIP3    H142887   6.604   1.105  15.051  2.9103 -0.5662  0.2316
 7132TIP3    H242888   6.609   0.965  14.995 -0.3763 -0.3994 -0.6113
 7133TIP3   OH242889   1.961   5.122   3.386  0.1615  0.3839  0.4056
 7133TIP3    H142890   1.999   5.039   3.359 -2.0948 -0.4389 -0.3000
 7133TIP3    H242891   1.979   5.182   3.313 -0.5128 -0.1790 -0.2178
 7134TIP3   OH242892   0.759   6.389   6.120 -0.0814  0.2403  0.2780
 7134TIP3    H142893   0.686   6.372   6.180  0.8172 -1.6366  0.8588
 7134TIP3    H242894   0.835   6.401   6.178  0.1045  2.1310 -0.3271
 7135TIP3   OH242895   5.069   4.024   2.776 -0.1471  0.2204 -0.0543
 7135TIP3    H142896   4.976   4.022   2.798  0.1187  1.2643  1.2414
 7135TIP3    H242897   5.081   4.109   2.733 -0.0407 -0.4722 -1.4037
 7136TIP3   OH242898   4.140   1.149   3.481  0.1730  0.0020  0.2900
 7136TIP3    H142899   4.125   1.165   3.574 -0.0475  1.4154  0.0135
 7136TIP3    H242900   4.107   1.060   3.467 -0.9737  0.2539  1.2999
 7137TIP3   OH242901   5.839   0.260  11.334 -0.6457 -0.0818  0.7862
 7137TIP3    H142902   5.780   0.293  11.267 -0.5258 -0.2357  0.6013
 7137TIP3    H242903   5.846   0.166  11.315 -0.0386  0.0081  0.5727
 7138TIP3   OH242904   4.552   2.527   0.469 -0.5341 -0.6808  0.3213
 7138TIP3    H142905   4.601   2.609   0.476 -1.3815 -0.1983  0.7429
 7138TIP3    H242906   4.595   2.479   0.399 -0.8922  0.7309 -0.8880
 7139TIP3   OH242907   2.312   2.368   4.531 -0.1284  0.2218 -0.4960
 7139TIP3    H142908   2.349   2.456   4.537  0.4159 -0.0147 -0.2839
 7139TIP3    H242909   2.380   2.317   4.487 -0.5942 -0.0096 -0.9523
 7140TIP3   OH242910   1.714   3.274  16.102  0.5713 -0.0409 -0.2863
 7140TIP3    H142911   1.738   3.325  16.179  1.7458 -1.4137  0.2873
 7140TIP3    H242912   1.618   3.271  16.103  0.5274  1.4429  0.1241
 7141TIP3   OH242913   6.130   6.401   5.769  0.4445  0.2077 -0.0610
 7141TIP3    H142914   6.166   6.466   5.708  4.1172 -2.4026 -0.8800
 7141TIP3    H242915   6.083   6.339   5.713 -0.6805  0.6581  0.3843
 7142TIP3   OH242916   0.125   5.134   0.387  0.6362  0.4965  0.6498
 7142TIP3    H142917   0.177   5.205   0.349  2.2991 -0.5202  0.9450
 7142TIP3    H242918   0.122   5.154   0.480 -0.2725  1.0189  0.5155
 7143TIP3   OH242919   0.986   1.254   4.899  0.0579 -0.0412 -0.3927
 7143TIP3    H142920   1.007   1.285   4.988 -0.0468  0.4806 -0.5474
 7143TIP3    H242921   1.029   1.317   4.841  0.0218 -0.3124 -0.7134
 7144TIP3   OH242922   5.334   3.529   5.368  0.0144 -0.4992 -0.7763
 7144TIP3    H142923   5.393   3.460   5.336 -0.2544 -1.0678 -0.0606
 7144TIP3    H242924   5.248   3.486   5.373 -0.1952 -0.0528 -0.5326
 7145TIP3   OH242925   1.629   1.501   5.165 -0.1527  0.0670  0.1118
 7145TIP3    H142926   1.568   1.432   5.141 -0.4211  0.6386 -0.8715
 7145TIP3    H242927   1.573   1.575   5.189  0.1445  0.2473  0.2543
 7146TIP3   OH242928   0.367   2.655  16.790  0.2318 -0.4587 -0.3210
 7146TIP3    H142929   0.286   2.701  16.767 -0.0589 -0.1117  1.3495
 7146TIP3    H242930   0.387   2.602  16.713 -0.6782  0.7274 -1.3883
 7147TIP3   OH242931   6.463   1.401   0.256  0.2913  0.7156  0.1631
 7147TIP3    H142932   6.432   1.442   0.175  0.1564 -1.8385 -1.1300
 7147TIP3    H242933   6.529   1.338   0.227  1.2606  0.7407  2.1966
 7148TIP3   OH242934   5.343   6.403   1.131 -0.5086 -0.6721  0.0183
 7148TIP3    H142935   5.307   6.316   1.149 -1.6442 -0.3551 -0.6300
 7148TIP3    H242936   5.430   6.386   1.095 -0.4943 -1.5082  0.4267
 7149TIP3   OH242937   3.403   6.391   0.715 -0.3981 -0.0421  0.0746
 7149TIP3    H142938   3.389   6.461   0.779  0.3338  0.3875 -0.2291
 7149TIP3    H242939   3.445   6.321   0.766 -0.7356 -0.0906  0.2852
 7150TIP3   OH242940   1.485   1.811   4.473 -0.5149 -0.5483 -0.0385
 7150TIP3    H142941   1.444   1.892   4.502 -1.4875 -1.8230  2.2442
 7150TIP3    H242942   1.415   1.764   4.428 -1.0344 -1.7972  2.0210
 7151TIP3   OH242943   4.415   4.200  11.494  0.3328  0.0205 -0.5079
 7151TIP3    H142944   4.461   4.282  11.475  0.1466  0.7910  2.2041
 7151TIP3    H242945   4.328   4.227  11.523  0.7404 -1.0189  1.8097
 7152TIP3   OH242946   5.246   6.627  13.834  0.2129  0.3691  0.3394
 7152TIP3    H142947   5.195   6.552  13.865 -1.3044  0.6315 -1.3994
 7152TIP3    H242948   5.317   6.587  13.782 -0.9288  0.1092 -1.0725
 7153TIP3   OH242949   0.947   2.887   1.090  0.1632  0.0630  0.6380
 7153TIP3    H142950   0.875   2.889   1.154 -0.7410 -0.1169 -0.3674
 7153TIP3    H242951   1.023   2.916   1.140 -0.4791 -0.3384  1.8772
 7154TIP3   OH242952   0.963   6.146   1.424  0.1367  0.5417 -0.0917
 7154TIP3    H142953   1.010   6.146   1.341  0.0247  2.2284 -0.1534
 7154TIP3    H242954   0.872   6.129   1.400  0.3920 -0.8821 -0.1267
 7155TIP3   OH242955   6.266   2.968   2.836  0.2091  0.4375 -0.2560
 7155TIP3    H142956   6.205   2.895   2.826  1.7808 -0.9218 -0.2449
 7155TIP3    H242957   6.256   3.019   2.756  0.0052 -0.5163 -0.8487
 7156TIP3   OH242958   1.555   6.298  13.636  0.3161  0.6486  0.6055
 7156TIP3    H142959   1.479   6.270  13.584  0.4156  0.5319  0.5223
 7156TIP3    H242960   1.582   6.220  13.683  1.2613  0.3336 -0.4562
 7157TIP3   OH242961   3.491   1.849  17.248  0.2864  0.1386  0.4193
 7157TIP3    H142962   3.554   1.795  17.201 -0.7836 -1.0029  0.2701
 7157TIP3    H242963   3.524   1.852  17.338  2.7859  3.0067 -0.5084
 7158TIP3   OH242964   2.827   6.697   1.458 -0.4191  0.0800  0.2053
 7158TIP3    H142965   2.878   6.713   1.538 -0.8464 -0.4283  0.5868
 7158TIP3    H242966   2.784   6.613   1.474  0.6179 -0.7443 -1.1527
 7159TIP3   OH242967   0.673   0.140  15.188  0.3492  0.4796 -0.1544
 7159TIP3    H142968   0.675   0.226  15.145  2.0236  0.7771  0.4948
 7159TIP3    H242969   0.762   0.106  15.180 -0.5542 -1.7048 -1.3537
 7160TIP3   OH242970   2.479   5.291   4.014 -0.0708  0.4334 -0.1808
 7160TIP3    H142971   2.447   5.269   4.101 -2.5727  1.6461 -0.7611
 7160TIP3    H242972   2.415   5.353   3.979  0.2742 -0.9001 -3.3431
 7161TIP3   OH242973   1.849   0.237  13.032  0.5131  0.2403 -0.5556
 7161TIP3    H142974   1.831   0.153  12.990  1.1002 -1.0273  1.6923
 7161TIP3    H242975   1.763   0.271  13.056  0.4300 -0.8640  0.7264
 7162TIP3   OH242976   6.255   1.837  16.477 -0.4107  0.0981 -0.1387
 7162TIP3    H142977   6.168   1.875  16.490  0.1081  0.6203  1.9747
 7162TIP3    H242978   6.246   1.747  16.507 -0.0410  0.3549  0.7391
 7163TIP3   OH242979   4.624   6.635   2.851  0.2830  0.0746 -0.2777
 7163TIP3    H142980   4.634   6.711   2.908  0.0097 -0.3613  0.3644
 7163TIP3    H242981   4.541   6.596   2.878  0.6040 -0.6674 -0.3516
 7164TIP3   OH242982   2.150   2.806  13.344  0.5006 -0.1484 -0.3378
 7164TIP3    H142983   2.092   2.882  13.350 -0.9379 -1.0709 -2.1366
 7164TIP3    H242984   2.183   2.809  13.254 -0.7005 -2.4593 -0.8856
 7165TIP3   OH242985   1.526   2.426   2.988  0.0172  0.6008  0.0366
 7165TIP3    H142986   1.594   2.482   3.027 -0.0025  1.4734 -1.1563
 7165TIP3    H242987   1.444   2.464   3.018  0.0069  1.1402 -0.6614
 7166TIP3   OH242988   4.198   1.145  15.959  0.2416  0.0574  0.2991
 7166TIP3    H142989   4.108   1.135  15.990 -0.4980 -0.3624 -1.8986
 7166TIP3    H242990   4.199   1.104  15.873  1.9360  2.1126 -0.7278
 7167TIP3   OH242991   6.629   0.182  14.881 -0.4457  0.3216  0.3211
 7167TIP3    H142992   6.630   0.088  14.866 -0.9514  0.2554  0.7084
 7167TIP3    H242993   6.721   0.208  14.873 -0.2150 -0.3127  0.8922
 7168TIP3   OH242994   5.617   3.641  14.641  0.0353  0.3223 -0.0363
 7168TIP3    H142995   5.575   3.555  14.637  1.4597 -0.3530 -0.8345
 7168TIP3    H242996   5.576   3.691  14.570  0.8711 -0.4877 -1.1198
 7169TIP3   OH242997   5.061   6.468   4.860 -0.3147  0.3101 -0.5109
 7169TIP3    H142998   5.080   6.561   4.864 -1.0590  0.5300 -1.7573
 7169TIP3    H242999   5.146   6.425   4.872  0.0121  1.1397  0.1371
 7170TIP3   OH243000   1.011   6.611  14.143  0.2353  0.1349 -0.2275
 7170TIP3    H143001   0.936   6.553  14.152 -0.4021  0.8779 -0.6312
 7170TIP3    H243002   1.049   6.590  14.058  1.4679 -1.3603  0.6649
 7171TIP3   OH243003   5.254   3.845  16.391 -0.1372  0.0335  0.2928
 7171TIP3    H143004   5.208   3.921  16.425  0.6414  0.5552  0.1991
 7171TIP3    H243005   5.188   3.775  16.389 -0.7009  0.5464  0.9225
 7172TIP3   OH243006   6.007   5.262   2.875 -0.5971  0.0423  0.3093
 7172TIP3    H143007   5.994   5.184   2.929 -2.2908  0.5027  0.5858
 7172TIP3    H243008   6.028   5.229   2.788 -1.3391 -0.7166  0.4213
 7173TIP3   OH243009   5.546   3.474   0.522  0.7138 -0.0321 -0.3670
 7173TIP3    H143010   5.599   3.402   0.557  0.8837  0.2627 -0.0171
 7173TIP3    H243011   5.481   3.491   0.590  0.9007  0.3874 -0.2895
 7174TIP3   OH243012   2.550   1.925  12.259  0.2048 -0.3948  0.4808
 7174TIP3    H143013   2.634   1.952  12.223 -0.2975 -0.2889 -0.6358
 7174TIP3    H243014   2.521   1.853  12.204 -0.6475 -0.1287  0.5589
 7175TIP3   OH243015   5.892   4.225  14.629 -0.1761 -0.3179 -0.7155
 7175TIP3    H143016   5.798   4.241  14.619 -0.1073  0.0214 -0.8163
 7175TIP3    H243017   5.933   4.305  14.597  0.1136 -0.0614  0.2904
 7176TIP3   OH243018   6.505   2.202  16.930  0.3575 -0.0390  0.1066
 7176TIP3    H143019   6.468   2.243  17.009  2.3477 -0.5307  1.3521
 7176TIP3    H243020   6.535   2.276  16.877 -1.1769  0.3051 -0.3033
 7177TIP3   OH243021   3.009   1.659   6.219  0.4208 -0.0784  0.2050
 7177TIP3    H143022   2.997   1.726   6.152 -1.1513 -0.7973 -0.2471
 7177TIP3    H243023   3.084   1.690   6.271  1.4764  0.6225 -1.6906
 7178TIP3   OH243024   5.195   2.529   2.260 -0.1786  0.0909 -0.3952
 7178TIP3    H143025   5.192   2.443   2.303 -0.5725 -1.6492 -3.7623
 7178TIP3    H243026   5.111   2.569   2.282 -1.1458 -1.5461 -1.0434
 7179TIP3   OH243027   0.463   0.262  13.650 -0.1453  0.0933  0.3763
 7179TIP3    H143028   0.523   0.231  13.583 -0.1913 -1.4676  1.0343
 7179TIP3    H243029   0.380   0.274  13.604  0.2252  0.6190 -0.1716
 7180TIP3   OH243030   5.620   4.741   3.052 -0.4858  0.0178 -0.2626
 7180TIP3    H143031   5.656   4.806   3.112  0.4558 -1.4277  0.7934
 7180TIP3    H243032   5.572   4.680   3.108 -0.4778 -0.7741 -1.0969
 7181TIP3   OH243033   1.644   2.897  14.286 -0.5442 -0.8026  0.3648
 7181TIP3    H143034   1.566   2.886  14.231 -0.5659 -0.2884  0.2935
 7181TIP3    H243035   1.686   2.811  14.283 -0.5793 -0.8028 -0.4143
 7182TIP3   OH243036   6.036   6.518   2.176 -0.4229 -0.4606  0.2102
 7182TIP3    H143037   6.112   6.521   2.234 -0.3317  0.6448  0.0519
 7182TIP3    H243038   5.962   6.538   2.232 -0.2391  1.4535 -0.1878
 7183TIP3   OH243039   5.929   0.750  12.046  0.3239  0.9220  0.5029
 7183TIP3    H143040   5.937   0.717  12.135 -0.6476  1.6041  0.8581
 7183TIP3    H243041   5.840   0.725  12.020  0.3198  1.4358  0.0288
 7184TIP3   OH243042   2.422   6.771   2.047 -0.0114  0.7598 -0.3949
 7184TIP3    H143043   2.379   6.846   2.005  2.5064  2.3874 -0.1907
 7184TIP3    H243044   2.418   6.789   2.140 -2.3931 -1.0903 -0.0819
 7185TIP3   OH243045   1.735   6.486  15.309 -0.1304  0.0044 -0.3605
 7185TIP3    H143046   1.722   6.556  15.373 -0.6263 -1.2172  0.8964
 7185TIP3    H243047   1.830   6.484  15.296  0.0718 -0.4327  1.1362
 7186TIP3   OH243048   1.846   4.292  15.364 -0.1019  0.5240 -0.4015
 7186TIP3    H143049   1.863   4.340  15.445 -3.5843  2.4629 -0.6909
 7186TIP3    H243050   1.810   4.358  15.304  2.5874 -0.8037 -3.6715
 7187TIP3   OH243051   0.415   1.138  12.581  0.0669 -0.2374 -0.1132
 7187TIP3    H143052   0.476   1.210  12.563 -0.4520 -0.2396 -2.0206
 7187TIP3    H243053   0.380   1.158  12.668  1.8420  0.4206  0.4907
 7188TIP3   OH243054   3.370   0.007  15.342  0.0467  0.1410 -0.0685
 7188TIP3    H143055   3.322   0.005  15.259  1.2705 -2.1605 -0.7607
 7188TIP3    H243056   3.323  -0.055  15.398  0.0175  0.6761  0.4969
 7189TIP3   OH243057   5.423   5.308   4.222 -0.3231 -0.0493  0.1879
 7189TIP3    H143058   5.507   5.261   4.228  1.3663  2.9266  0.8204
 7189TIP3    H243059   5.368   5.267   4.289  1.1207 -1.0922  0.7642
 7190TIP3   OH243060   2.257   6.337   5.475 -0.0903  0.2978  0.1863
 7190TIP3    H143061   2.329   6.288   5.436 -1.1744 -1.1770  0.0030
 7190TIP3    H243062   2.257   6.310   5.567  0.0203  0.8322  0.3472
 7191TIP3   OH243063   0.575   6.089  12.355 -0.3486 -0.6221  1.0293
 7191TIP3    H143064   0.669   6.080  12.371 -0.1974 -0.1569  0.4382
 7191TIP3    H243065   0.564   6.181  12.330 -1.0101 -0.5960  1.4125
 7192TIP3   OH243066   0.325   0.662  12.130  0.2930 -0.0221  0.0242
 7192TIP3    H143067   0.322   0.588  12.191  0.0689  0.2154  0.3030
 7192TIP3    H243068   0.286   0.628  12.050 -1.2055  0.2299  0.6238
 7193TIP3   OH243069   2.537   1.121  16.499 -0.2546  0.1153  0.6497
 7193TIP3    H143070   2.583   1.204  16.491  0.9417 -0.5805  0.2631
 7193TIP3    H243071   2.444   1.145  16.503  0.1131  1.4896  0.9805
 7194TIP3   OH243072   4.108   1.406   3.381 -0.3632  0.7031 -0.5313
 7194TIP3    H143073   4.132   1.325   3.426  0.9495  0.3837 -1.7723
 7194TIP3    H243074   4.184   1.464   3.393 -0.2788  0.8540 -1.7381
 7195TIP3   OH243075   2.120   2.202   0.550  0.9619  0.0097 -0.0572
 7195TIP3    H143076   2.106   2.271   0.484  1.5638  1.4180  1.2494
 7195TIP3    H243077   2.214   2.202   0.565  0.8921 -0.7016  0.3816
 7196TIP3   OH243078   1.191   5.689   1.841  0.1444  0.4942  0.6488
 7196TIP3    H143079   1.256   5.713   1.907  0.0855  2.5075 -0.0002
 7196TIP3    H243080   1.115   5.745   1.860  0.3528  1.5538 -1.4726
 7197TIP3   OH243081   0.123   0.167  15.096 -0.6420 -0.3917  0.1266
 7197TIP3    H143082   0.070   0.192  15.172 -0.9965 -0.3636 -0.1282
 7197TIP3    H243083   0.163   0.249  15.066  0.0501 -0.5122  0.6976
 7198TIP3   OH243084   1.564   6.365   0.088 -0.7584 -0.1651  0.0212
 7198TIP3    H143085   1.507   6.333   0.018  1.3936 -0.2286 -1.7522
 7198TIP3    H243086   1.592   6.286   0.135  0.9839 -0.5482 -1.5841
 7199TIP3   OH243087   4.405   5.267   6.553  0.2190  0.1298 -0.5265
 7199TIP3    H143088   4.500   5.266   6.547  0.2794  0.4627  0.3586
 7199TIP3    H243089   4.379   5.340   6.496  0.5503  0.6173 -0.0635
 7200TIP3   OH243090   5.250   5.544  14.870 -0.1768 -0.0008  0.0043
 7200TIP3    H143091   5.168   5.555  14.918  0.3768  0.3458  0.8969
 7200TIP3    H243092   5.287   5.463  14.904 -0.3265 -0.3454 -0.6584
 7201TIP3   OH243093   4.397   4.840   5.322 -0.2150 -0.6525 -0.1091
 7201TIP3    H143094   4.362   4.809   5.406  1.0724 -0.4559  0.5169
 7201TIP3    H243095   4.372   4.773   5.259 -3.1579  0.2992 -0.0102
 7202TIP3   OH243096   4.423   4.498   3.778  0.3668 -0.1461 -0.5158
 7202TIP3    H143097   4.446   4.591   3.781  0.8335 -0.1866 -2.4871
 7202TIP3    H243098   4.421   4.476   3.685  0.5364 -2.1780 -0.0698
 7203TIP3   OH243099   6.673   5.080   4.428 -0.1205 -0.6540  0.0493
 7203TIP3    H143100   6.577   5.081   4.426 -0.1798 -2.8937  0.7760
 7203TIP3    H243101   6.699   5.106   4.340 -1.3973 -0.6683 -0.3371
 7204TIP3   OH243102   3.498   6.660  10.902 -0.4145  0.7675  0.4707
 7204TIP3    H143103   3.530   6.572  10.881 -1.1585  0.3411  1.0456
 7204TIP3    H243104   3.566   6.719  10.872 -0.7603  0.1041 -1.6549
 7205TIP3   OH243105   4.161   6.102  15.978  0.0315  0.3331 -0.0495
 7205TIP3    H143106   4.171   6.032  16.042 -0.5184 -0.1793 -0.5126
 7205TIP3    H243107   4.146   6.181  16.030  0.0686  0.0040  0.4618
 7206TIP3   OH243108   2.845   0.004   2.054  0.4002 -0.2123 -0.4036
 7206TIP3    H143109   2.939   0.022   2.046  0.6643 -1.9839 -1.6626
 7206TIP3    H243110   2.840  -0.083   2.093 -0.7275  0.0102 -0.0206
 7207TIP3   OH243111   2.853   1.325   4.381 -0.3497  0.1762  0.2486
 7207TIP3    H143112   2.876   1.366   4.464  0.3785  1.2948 -0.4941
 7207TIP3    H243113   2.758   1.314   4.384 -0.4327  1.0721  0.8376
 7208TIP3   OH243114   3.765   1.436  16.159  0.4935  0.3432 -0.1731
 7208TIP3    H143115   3.859   1.420  16.168 -0.0350 -2.6876  0.4203
 7208TIP3    H243116   3.744   1.495  16.231  2.1425  2.0597 -1.0554
 7209TIP3   OH243117   1.105   0.624   5.617  0.1721  0.6292 -0.0458
 7209TIP3    H143118   1.062   0.614   5.702 -0.6594 -0.0620 -0.5362
 7209TIP3    H243119   1.163   0.548   5.611  1.8074  1.7682  0.7881
 7210TIP3   OH243120   6.131   1.804   1.313 -0.1811  0.1021  0.1667
 7210TIP3    H143121   6.103   1.761   1.232 -0.1260 -3.4293  1.9341
 7210TIP3    H243122   6.227   1.797   1.312  0.0004  2.1401 -0.5000
 7211TIP3   OH243123   3.674   2.173  12.020  0.4596 -0.9226 -0.0406
 7211TIP3    H143124   3.606   2.136  11.963 -0.7357  0.8311  0.2214
 7211TIP3    H243125   3.628   2.238  12.073  2.2779  0.0586  0.3580
 7212TIP3   OH243126   2.286   0.803  15.516 -0.3331 -0.2415 -0.1582
 7212TIP3    H143127   2.239   0.827  15.595 -1.5426  0.4758 -1.0861
 7212TIP3    H243128   2.258   0.714  15.497  0.6971 -0.7753  0.7415
 7213TIP3   OH243129   0.370   1.133   2.085 -0.3340 -0.0053  0.0818
 7213TIP3    H143130   0.309   1.119   2.013 -0.3209 -0.0293  0.0757
 7213TIP3    H243131   0.454   1.098   2.054 -0.4434 -0.4596  0.2946
 7214TIP3   OH243132   3.886   4.801   5.315  0.3838  0.4062  0.1573
 7214TIP3    H143133   3.822   4.737   5.283  1.2810  0.1185 -1.1169
 7214TIP3    H243134   3.864   4.882   5.267  0.4590  0.5231  0.3213
 7215TIP3   OH243135   5.003   2.212  11.495  0.2861 -0.3255 -0.0759
 7215TIP3    H143136   5.007   2.302  11.528 -1.2982 -0.6796  1.1218
 7215TIP3    H243137   5.056   2.214  11.415 -1.5411  2.2278 -1.3014
 7216TIP3   OH243138   5.279   1.352   2.630  0.3411  0.2482 -0.9013
 7216TIP3    H143139   5.350   1.394   2.580  0.9326 -0.5271 -0.7267
 7216TIP3    H243140   5.288   1.259   2.610  0.7046 -0.0952  0.8006
 7217TIP3   OH243141   1.579   1.476  15.635 -0.4960 -0.4802  0.1970
 7217TIP3    H143142   1.490   1.440  15.635 -0.8778  0.4414  0.6185
 7217TIP3    H243143   1.587   1.519  15.720 -0.0039  0.3177 -0.2511
 7218TIP3   OH243144   5.402   0.539   1.205 -0.0606 -0.2714 -0.3905
 7218TIP3    H143145   5.492   0.556   1.233 -0.1069  0.2444 -0.5515
 7218TIP3    H243146   5.398   0.572   1.115 -0.1500 -1.1539 -0.7232
 7219TIP3   OH243147   1.878   3.009   3.779  0.3745  0.3856 -0.2176
 7219TIP3    H143148   1.920   2.971   3.702  4.1885  1.7098  1.1175
 7219TIP3    H243149   1.857   2.933   3.834 -1.3167 -0.4711 -1.9954
 7220TIP3   OH243150   5.514   3.243   3.609 -0.1085 -0.0320  0.3810
 7220TIP3    H143151   5.462   3.318   3.637  0.7057  0.9030 -0.5579
 7220TIP3    H243152   5.604   3.264   3.637  0.3435 -0.0613 -0.9981
 7221TIP3   OH243153   6.560   5.276   2.008  0.1178  0.5223  0.1203
 7221TIP3    H143154   6.474   5.234   2.011  0.8414 -0.9782  0.4377
 7221TIP3    H243155   6.588   5.280   2.099  0.2702  1.2648  0.0452
 7222TIP3   OH243156   3.951   1.788  16.247  0.4451 -0.2597  0.3916
 7222TIP3    H143157   4.025   1.845  16.269  0.6920 -0.6403  0.5517
 7222TIP3    H243158   3.909   1.770  16.331  0.1820 -0.0619  0.3012
 7223TIP3   OH243159   5.149   0.367   3.981 -0.4998  0.4373 -0.1203
 7223TIP3    H143160   5.160   0.393   3.889  1.3395 -0.4739 -0.1756
 7223TIP3    H243161   5.237   0.370   4.018 -1.3059  1.3200  1.7704
 7224TIP3   OH243162   2.999   2.931   2.552 -0.4697 -0.1263 -0.3874
 7224TIP3    H143163   3.082   2.919   2.598  0.0568  0.2834 -1.2137
 7224TIP3    H243164   3.015   3.004   2.492 -1.2104 -0.4910 -1.0445
 7225TIP3   OH243165   2.202   0.273   0.107 -0.3283  0.3555 -0.1043
 7225TIP3    H143166   2.120   0.248   0.148  1.4687 -1.0322  2.8037
 7225TIP3    H243167   2.219   0.204   0.044 -0.8396  0.0739  0.0620
 7226TIP3   OH243168   4.384   5.540  12.411 -0.0984 -0.3141 -0.6127
 7226TIP3    H143169   4.360   5.563  12.321 -2.8061 -0.6538 -0.0008
 7226TIP3    H243170   4.405   5.447  12.407 -1.6660 -0.6723 -0.6113
 7227TIP3   OH243171   2.220   2.628   1.607 -0.4157  0.2541 -0.0767
 7227TIP3    H143172   2.186   2.546   1.571 -0.1302  0.1527 -0.1236
 7227TIP3    H243173   2.293   2.651   1.548 -1.7106  1.5535 -1.2058
 7228TIP3   OH243174   0.013   2.769  16.423 -0.8933  0.4923 -0.3834
 7228TIP3    H143175  -0.048   2.796  16.492  0.2352 -1.5308  1.4563
 7228TIP3    H243176   0.046   2.851  16.387 -0.7298  1.5874  2.1686
 7229TIP3   OH243177   0.120   4.278  14.393  0.3775  0.8145  0.0404
 7229TIP3    H143178   0.195   4.275  14.334 -0.8119  1.5231 -1.5385
 7229TIP3    H243179   0.142   4.216  14.463  2.8612  1.7253  0.1396
 7230TIP3   OH243180   5.737   1.290  13.193 -0.6014 -0.0162  0.5223
 7230TIP3    H143181   5.740   1.202  13.229  0.8514  0.0010  0.4703
 7230TIP3    H243182   5.679   1.283  13.117 -0.7164 -0.8659  0.6860
 7231TIP3   OH243183   6.235   4.868   3.036  0.4923 -0.2173 -0.2493
 7231TIP3    H143184   6.200   4.781   3.017 -3.4809  1.4285 -1.0234
 7231TIP3    H243185   6.188   4.896   3.114  0.5315  1.8352 -0.9190
 7232TIP3   OH243186   6.487   6.763  16.336 -0.4758  0.2735 -0.3391
 7232TIP3    H143187   6.520   6.851  16.324  0.6000  0.1734  1.6971
 7232TIP3    H243188   6.432   6.768  16.415  0.7048 -1.1294  0.6222
 7233TIP3   OH243189   4.486   1.659  12.627 -0.3088  0.6521 -0.0131
 7233TIP3    H143190   4.396   1.648  12.655 -0.8624 -0.9435 -2.3002
 7233TIP3    H243191   4.496   1.753  12.613 -1.6162  0.8257  0.2079
 7234TIP3   OH243192   0.420   2.370  11.161 -0.1840  0.3912  0.4056
 7234TIP3    H143193   0.424   2.353  11.255 -0.9013 -0.6715  0.2531
 7234TIP3    H243194   0.377   2.293  11.124  0.4794  0.6001 -0.8511
 7235TIP3   OH243195   2.182   4.650   2.221  0.2452 -0.4325  0.3966
 7235TIP3    H143196   2.271   4.678   2.200 -0.1195  0.2228 -0.3071
 7235TIP3    H243197   2.173   4.564   2.178  1.6529 -2.1000  3.2676
 7236TIP3   OH243198   3.073   1.412   2.735  1.0025 -0.0698 -0.4493
 7236TIP3    H143199   3.074   1.490   2.678  0.0432 -0.7671 -1.4452
 7236TIP3    H243200   3.163   1.379   2.732  1.0962  0.2267 -1.1110
 7237TIP3   OH243201   2.737   4.218   3.014 -0.0946 -0.0355  0.1066
 7237TIP3    H143202   2.779   4.301   3.035  0.1538 -0.1537  0.0827
 7237TIP3    H243203   2.773   4.157   3.078 -1.2824  0.1656  0.9853
 7238TIP3   OH243204   6.397   5.712  13.381  0.1228 -0.2330 -0.3464
 7238TIP3    H143205   6.429   5.736  13.468  1.1553 -1.3104 -0.4036
 7238TIP3    H243206   6.418   5.788  13.326  2.8014 -0.9292 -0.4025
 7239TIP3   OH243207   3.325   3.428  12.309 -0.2559  0.3253  0.2392
 7239TIP3    H143208   3.241   3.460  12.342 -0.0122 -1.4101  2.7116
 7239TIP3    H243209   3.357   3.369  12.378  3.1797  1.2339 -0.4780
 7240TIP3   OH243210   1.831   5.089   1.835  0.5205  0.0218 -0.4456
 7240TIP3    H143211   1.891   5.042   1.893  0.3912  0.3298 -0.0608
 7240TIP3    H243212   1.823   5.033   1.758  0.6942 -0.3857 -0.1669
 7241TIP3   OH243213   1.295   4.291  16.305  0.2056 -0.1847  0.0219
 7241TIP3    H143214   1.332   4.326  16.225  1.1639 -2.1150 -0.4214
 7241TIP3    H243215   1.366   4.298  16.369 -0.1773  0.3116  0.3887
 7242TIP3   OH243216   5.644   4.975  11.140  0.4931  0.4899  0.6897
 7242TIP3    H143217   5.565   4.979  11.087  0.8556  1.3670  0.1955
 7242TIP3    H243218   5.705   4.922  11.090  0.4683  0.4303  0.7236
 7243TIP3   OH243219   3.338   4.028   1.043  0.6631 -0.1267 -0.1631
 7243TIP3    H143220   3.300   4.096   1.098  1.4511  0.8112 -0.7600
 7243TIP3    H243221   3.272   3.958   1.041  0.7812 -0.3450  2.2790
 7244TIP3   OH243222   6.570   2.186  16.365 -0.0429  0.8149  0.5019
 7244TIP3    H143223   6.612   2.173  16.280  0.1085  0.6140  0.6089
 7244TIP3    H243224   6.612   2.265  16.400  0.5937  0.3417  0.8184
 7245TIP3   OH243225   1.888   4.843  12.570 -0.4755 -0.1011 -0.0195
 7245TIP3    H143226   1.951   4.909  12.599  0.3633 -0.9204  0.0507
 7245TIP3    H243227   1.925   4.760  12.599 -1.2170 -0.6555 -0.6343
 7246TIP3   OH243228   5.293   0.429  15.508 -0.5872  0.1171 -0.0680
 7246TIP3    H143229   5.237   0.424  15.586 -1.8458  1.1817 -0.8796
 7246TIP3    H243230   5.332   0.342  15.501 -1.7270 -0.4822  0.8226
 7247TIP3   OH243231   0.661   3.497  16.106 -0.1136  0.8079  0.3866
 7247TIP3    H143232   0.756   3.498  16.120  0.0395  0.2528 -0.5899
 7247TIP3    H243233   0.632   3.584  16.132  0.4637  0.5116  2.0875
 7248TIP3   OH243234   6.558   2.511  15.797 -0.1053  0.1940 -0.4537
 7248TIP3    H143235   6.563   2.594  15.844  0.8270  0.5696 -1.1832
 7248TIP3    H243236   6.534   2.446  15.863  0.4474  0.8360  0.3872
 7249TIP3   OH243237   5.538   3.663   2.534  0.0308 -0.0164 -0.2875
 7249TIP3    H143238   5.605   3.606   2.572  0.7138  0.7672 -0.3033
 7249TIP3    H243239   5.471   3.602   2.501 -0.0739 -0.7324  1.2260
 7250TIP3   OH243240   4.655   5.775  14.013 -0.3230  0.3905 -0.1104
 7250TIP3    H143241   4.719   5.753  13.945  1.5096  1.8056  1.0955
 7250TIP3    H243242   4.652   5.870  14.013 -0.8008  0.3793  1.3217
 7251TIP3   OH243243   0.530   3.780  12.997 -0.6514  0.6172 -0.0547
 7251TIP3    H143244   0.501   3.861  12.956  0.5332  0.7281 -0.7130
 7251TIP3    H243245   0.614   3.802  13.038  0.2803 -0.5326 -1.2643
 7252TIP3   OH243246   6.381   3.787  13.168  0.5277 -0.1648 -0.2938
 7252TIP3    H143247   6.360   3.767  13.076 -4.6209 -0.8285  0.8355
 7252TIP3    H243248   6.383   3.702  13.211  0.2914  0.3145  0.6784
 7253TIP3   OH243249   2.923   6.466  14.867 -0.1610  0.1722  0.2291
 7253TIP3    H143250   2.942   6.392  14.925  2.1044  0.7131  0.2360
 7253TIP3    H243251   2.990   6.459  14.798 -0.5910  1.6015 -0.3452
 7254TIP3   OH243252   0.824   3.740   0.080  0.0770 -0.9940 -0.2398
 7254TIP3    H143253   0.891   3.672   0.086  0.4639 -0.4870  1.2571
 7254TIP3    H243254   0.815   3.755  -0.014 -0.0031 -3.0968 -0.5897
 7255TIP3   OH243255   3.343   4.402   1.937  0.1907  0.2664  0.0873
 7255TIP3    H143256   3.257   4.441   1.950  0.4907  0.2006  2.5305
 7255TIP3    H243257   3.375   4.383   2.026  2.2012 -0.8332 -0.8218
 7256TIP3   OH243258   4.798   2.648  10.627 -0.6423  0.3874 -0.0449
 7256TIP3    H143259   4.822   2.586  10.558  0.1234  0.3359  0.2663
 7256TIP3    H243260   4.870   2.711  10.629 -1.1618  0.9841  0.0018
 7257TIP3   OH243261   0.125   4.257  15.798 -0.0199 -0.0504  0.2735
 7257TIP3    H143262   0.146   4.171  15.833 -1.0543 -0.3237  0.2518
 7257TIP3    H243263   0.205   4.308  15.809  0.8746 -1.2531 -0.4812
 7258TIP3   OH243264   2.277   3.632  11.301  0.3426 -0.1056  0.4491
 7258TIP3    H143265   2.202   3.578  11.278 -0.8713  1.7731 -0.1294
 7258TIP3    H243266   2.247   3.682  11.378  1.1503  0.3452  0.4737
 7259TIP3   OH243267   4.495   2.791  16.037 -0.1834  0.0679  0.3820
 7259TIP3    H143268   4.512   2.707  16.081 -0.1374 -0.3500 -0.4160
 7259TIP3    H243269   4.439   2.839  16.098  0.2319 -0.3315  1.0832
 7260TIP3   OH243270   5.710   5.180  14.591  0.0933 -0.0846 -0.4062
 7260TIP3    H143271   5.776   5.147  14.652  0.3558 -2.6456 -1.9899
 7260TIP3    H243272   5.627   5.172  14.638  0.7538  2.3611  1.2845
 7261TIP3   OH243273   2.562   4.824   6.041  0.0834 -0.2161  0.0496
 7261TIP3    H143274   2.506   4.768   6.093  0.5665 -0.4098  0.3651
 7261TIP3    H243275   2.535   4.809   5.950 -0.0935 -0.6118  0.1700
 7262TIP3   OH243276   3.694   1.065  17.072 -0.1321 -0.5003 -0.0045
 7262TIP3    H143277   3.779   1.043  17.111  0.5981  1.1065 -0.6458
 7262TIP3    H243278   3.695   1.161  17.065 -2.0629 -0.4569  0.1160
 7263TIP3   OH243279   5.323   0.946  13.819  0.1866 -0.5971  0.1309
 7263TIP3    H143280   5.338   0.861  13.861 -0.4799 -0.8045 -0.0310
 7263TIP3    H243281   5.279   0.923  13.736  0.3519 -0.1188 -0.0884
 7264TIP3   OH243282   6.421   3.762   0.424 -0.5619  0.3305 -0.1402
 7264TIP3    H143283   6.339   3.808   0.443 -1.7085 -1.7820  0.1055
 7264TIP3    H243284   6.463   3.753   0.509 -1.9731 -2.0914  0.3497
 7265TIP3   OH243285   5.395   2.649  14.406  0.4914  0.0209  0.2731
 7265TIP3    H143286   5.328   2.594  14.446  2.2303 -0.8303  2.1267
 7265TIP3    H243287   5.440   2.593  14.343  0.0753  0.3185 -0.2935
 7266TIP3   OH243288   0.741   1.684   3.558 -0.1663 -0.1213 -0.2060
 7266TIP3    H143289   0.733   1.594   3.591  0.8419 -0.3149 -0.4736
 7266TIP3    H243290   0.790   1.676   3.476 -1.2176  0.5390 -0.9063
 7267TIP3   OH243291   0.724   2.877  12.439  0.0528 -0.5135 -0.1574
 7267TIP3    H143292   0.651   2.846  12.492 -0.6414 -1.2683 -1.5345
 7267TIP3    H243293   0.696   2.963  12.407  0.9783  0.5015  1.6650
 7268TIP3   OH243294   3.921   6.389  15.192  0.2194 -0.2402  0.0514
 7268TIP3    H143295   3.875   6.428  15.117 -0.7268 -2.4028 -0.5442
 7268TIP3    H243296   4.005   6.361  15.156  1.1542  1.7645  0.6260
 7269TIP3   OH243297   3.401   2.641  13.303  0.3460 -0.0964 -0.9535
 7269TIP3    H143298   3.352   2.722  13.287  0.8498  0.6507  1.1523
 7269TIP3    H243299   3.488   2.658  13.266  0.2640  0.0923 -1.0631
 7270TIP3   OH243300   1.572   0.830  11.509 -0.0447  0.0112  0.6489
 7270TIP3    H143301   1.563   0.922  11.487 -0.0651 -0.2516 -0.4417
 7270TIP3    H243302   1.511   0.816  11.582  0.7917  1.1158  1.5747
 7271TIP3   OH243303   1.309   2.988  12.656 -0.1291  0.4389  0.2284
 7271TIP3    H143304   1.398   2.956  12.667 -0.8172 -1.6872 -0.1995
 7271TIP3    H243305   1.320   3.078  12.624  1.8745 -0.5685 -2.0778
 7272TIP3   OH243306   6.073   0.113   3.336  0.5873  0.2878  0.1667
 7272TIP3    H143307   6.153   0.161   3.359  0.6533  0.4503 -0.3998
 7272TIP3    H243308   6.025   0.173   3.279 -0.0120  0.2467  0.6310
 7273TIP3   OH243309   2.601   3.774   4.275  0.3772  0.0331  0.0731
 7273TIP3    H143310   2.686   3.816   4.266 -0.0694  0.6773 -1.3820
 7273TIP3    H243311   2.598   3.744   4.366  1.8706  0.6057  0.3251
 7274TIP3   OH243312   1.416   4.517   2.075 -0.1414  0.4727  0.2218
 7274TIP3    H143313   1.395   4.608   2.054 -0.6107  0.2994 -0.0790
 7274TIP3    H243314   1.472   4.522   2.153 -1.8120  0.9326  1.4351
 7275TIP3   OH243315   6.720   4.393   3.119  0.1022  0.1009 -0.1671
 7275TIP3    H143316   6.713   4.488   3.110  0.6037  0.0661 -1.0634
 7275TIP3    H243317   6.795   4.379   3.176  1.0708  0.2313 -1.3672
 7276TIP3   OH243318   3.620   2.990   0.471 -0.0376 -0.0400 -0.4894
 7276TIP3    H143319   3.550   3.011   0.533 -0.0772  2.0648 -1.1788
 7276TIP3    H243320   3.600   2.902   0.441 -1.8153  0.1329  0.0969
 7277TIP3   OH243321   4.844   2.380   1.654 -0.5734  0.7776  0.0752
 7277TIP3    H143322   4.821   2.293   1.621 -1.5321  1.6712 -1.7010
 7277TIP3    H243323   4.939   2.380   1.656 -0.5769 -0.5538  0.7763
 7278TIP3   OH243324   0.995   0.057   1.557 -0.1420 -0.1214 -0.2289
 7278TIP3    H143325   1.063   0.042   1.491  1.3445 -0.1280  1.2744
 7278TIP3    H243326   0.947  -0.026   1.560 -0.1726 -0.1496 -1.2435
 7279TIP3   OH243327   3.766   6.379   5.332 -0.3440  0.4325 -0.0212
 7279TIP3    H143328   3.697   6.426   5.287 -0.4094  0.4518  0.0994
 7279TIP3    H243329   3.743   6.287   5.322  0.8600  0.3214 -2.0093
 7280TIP3   OH243330   6.803   0.686   6.231  0.4243  1.1549 -0.0840
 7280TIP3    H143331   6.827   0.750   6.298  0.7786  0.3437  0.5662
 7280TIP3    H243332   6.769   0.739   6.159  0.8866  2.0889  0.3744
 7281TIP3   OH243333   0.228   1.851  14.597  0.0622  0.3921  0.7169
 7281TIP3    H143334   0.176   1.795  14.541  0.0568 -1.0272  2.1023
 7281TIP3    H243335   0.307   1.800  14.615  1.1027  1.7687  0.1369
 7282TIP3   OH243336   2.081   0.287   4.457  0.6253 -0.1807 -0.3541
 7282TIP3    H143337   1.996   0.319   4.427  0.7015 -0.4931 -0.9042
 7282TIP3    H243338   2.081   0.194   4.435  0.0232 -0.8005  2.0778
 7283TIP3   OH243339   6.624   1.886   6.073 -0.8072  0.2910  0.2920
 7283TIP3    H143340   6.714   1.912   6.095 -0.5532  0.7052 -1.2162
 7283TIP3    H243341   6.572   1.964   6.092 -0.7635  0.2418  0.6137
 7284TIP3   OH243342   6.107   5.320   5.143 -0.2390  0.0486  0.4336
 7284TIP3    H143343   6.038   5.281   5.196  0.3120 -0.3987  0.8285
 7284TIP3    H243344   6.065   5.394   5.100 -1.4942 -1.3719 -0.8792
 7285TIP3   OH243345   1.192   2.334   0.653 -0.0497 -0.6075 -1.0090
 7285TIP3    H143346   1.218   2.295   0.570 -1.3596 -0.9495 -1.2736
 7285TIP3    H243347   1.170   2.259   0.709  0.5053 -0.3677 -0.4637
 7286TIP3   OH243348   3.649   4.705   1.878  0.3803  0.2539 -0.1064
 7286TIP3    H143349   3.692   4.733   1.797 -0.5507  1.5200 -0.1748
 7286TIP3    H243350   3.579   4.769   1.892  0.5079  0.0227  1.6939
 7287TIP3   OH243351   5.822   3.790   5.943  0.0000 -0.7293 -0.5147
 7287TIP3    H143352   5.767   3.767   5.868 -1.9559  0.2007  0.5700
 7287TIP3    H243353   5.809   3.718   6.005  0.0506 -0.5279 -0.2708
 7288TIP3   OH243354   5.149   5.248  12.092  0.1178 -0.1965 -0.0746
 7288TIP3    H143355   5.069   5.205  12.064 -0.1123  0.1301  0.0774
 7288TIP3    H243356   5.219   5.202  12.046 -0.1560 -0.4944 -0.1889
 7289TIP3   OH243357   3.862   4.898  13.434  0.2962 -0.2648  0.2541
 7289TIP3    H143358   3.773   4.916  13.465  0.8401  1.0900  1.0996
 7289TIP3    H243359   3.904   4.855  13.509 -0.0011 -2.0454 -0.5826
 7290TIP3   OH243360   6.467   2.241  11.493 -0.0448 -0.6076  0.1832
 7290TIP3    H143361   6.407   2.172  11.520 -0.0734  0.0072  1.7305
 7290TIP3    H243362   6.459   2.244  11.397 -1.0383 -1.8173  0.2169
 7291TIP3   OH243363   0.623   2.202   1.124  0.6402  0.0262  0.0146
 7291TIP3    H143364   0.665   2.249   1.053 -0.8096 -0.4128 -1.1717
 7291TIP3    H243365   0.530   2.223   1.115  0.4671  0.2813  2.0274
 7292TIP3   OH243366   6.684   4.670  16.538 -0.2513  0.0259  0.2116
 7292TIP3    H143367   6.621   4.679  16.609 -0.5166 -3.2099  0.4371
 7292TIP3    H243368   6.675   4.580  16.509  2.0878  0.4052 -1.8593
 7293TIP3   OH243369   3.493   5.589  14.216 -0.1318 -0.3882 -0.4962
 7293TIP3    H143370   3.435   5.633  14.278 -0.7877 -1.1752 -0.5431
 7293TIP3    H243371   3.436   5.526  14.170  0.2014  0.6014 -2.3163
 7294TIP3   OH243372   3.879   3.388   2.414 -0.1305 -0.4498  0.4124
 7294TIP3    H143373   3.876   3.346   2.500  0.6605  1.9735  1.6701
 7294TIP3    H243374   3.789   3.384   2.382 -0.5804 -0.7055  1.6874
 7295TIP3   OH243375   3.161   1.930   3.955  0.3987 -0.1444  0.0438
 7295TIP3    H143376   3.238   1.979   3.926 -0.6053  1.1750 -0.3887
 7295TIP3    H243377   3.093   1.996   3.968 -0.5848 -1.2668  0.7295
 7296TIP3   OH243378   4.463   1.051  11.323  0.5093  0.2432 -0.4750
 7296TIP3    H143379   4.556   1.054  11.299  0.9359  0.0770  1.1388
 7296TIP3    H243380   4.437   0.961  11.305  1.1401 -0.2039  0.7982
 7297TIP3   OH243381   0.414   3.311  15.799 -0.2441 -0.1603 -0.3798
 7297TIP3    H143382   0.432   3.331  15.891  2.2897 -0.2058 -0.8479
 7297TIP3    H243383   0.383   3.394  15.762  2.4963  0.8820 -0.3969
 7298TIP3   OH243384   6.566   1.861   3.653  0.2831  0.2702  1.0948
 7298TIP3    H143385   6.518   1.781   3.636  1.2550 -0.1123  0.0493
 7298TIP3    H243386   6.572   1.904   3.568  1.3386  0.5480  1.2972
 7299TIP3   OH243387   0.549   5.947  17.147  0.4224 -0.0821  0.1048
 7299TIP3    H143388   0.545   6.039  17.174  0.8172  0.6046 -2.0670
 7299TIP3    H243389   0.623   5.943  17.087  0.9372 -2.0228  0.8236
 7300TIP3   OH243390   3.318   0.241   5.354  0.0805 -0.1552 -0.1585
 7300TIP3    H143391   3.361   0.313   5.401 -1.2042  0.1642  0.5415
 7300TIP3    H243392   3.280   0.283   5.277  1.7440 -0.5904 -1.2510
 7301TIP3   OH243393   5.160   4.150  14.624 -0.0442  0.1001  0.0239
 7301TIP3    H143394   5.138   4.081  14.687 -0.2115  0.4505  0.3528
 7301TIP3    H243395   5.229   4.201  14.665  1.0874 -0.7286 -0.8281
 7302TIP3   OH243396   6.719   2.907   4.349  0.2615  0.0343  0.9472
 7302TIP3    H143397   6.677   2.873   4.270  2.4654 -0.3313 -0.1052
 7302TIP3    H243398   6.675   2.990   4.367 -0.0512  0.2751 -0.8595
 7303TIP3   OH243399   0.418   1.824   2.759 -0.2040 -0.1338 -0.3756
 7303TIP3    H143400   0.335   1.776   2.769 -0.8815  1.0945  0.0901
 7303TIP3    H243401   0.476   1.785   2.824 -1.0192  0.2182  0.5928
 7304TIP3   OH243402   2.371   3.848   0.773 -0.3039 -0.1815  0.3392
 7304TIP3    H143403   2.287   3.820   0.735 -0.9212  0.6955  1.0331
 7304TIP3    H243404   2.420   3.884   0.699 -1.0419  0.4592  0.1589
 7305TIP3   OH243405   5.359   0.631   0.655 -0.2332 -0.0769 -0.1900
 7305TIP3    H143406   5.315   0.577   0.589 -1.3501  2.0049 -1.2077
 7305TIP3    H243407   5.315   0.715   0.650  2.4378  1.4154  0.2864
 7306TIP3   OH243408   3.324   1.758  12.176  0.2644  0.5575 -0.1957
 7306TIP3    H143409   3.381   1.682  12.187 -1.1849 -0.8390 -1.8867
 7306TIP3    H243410   3.240   1.730  12.213 -0.2790  1.3430 -0.8191
 7307TIP3   OH243411   0.953   3.067   2.610  0.4471  0.5692 -0.0282
 7307TIP3    H143412   0.995   3.068   2.696 -0.5606 -0.0993  0.4821
 7307TIP3    H243413   0.986   3.146   2.566  1.4191  0.6070  0.7434
 7308TIP3   OH243414   6.357   2.500  16.837 -0.2828 -0.2659 -0.4009
 7308TIP3    H143415   6.268   2.466  16.828  0.1465 -1.6389  0.3577
 7308TIP3    H243416   6.356   2.582  16.789 -1.4046 -1.2725 -2.1772
 7309TIP3   OH243417   1.402   3.009   0.490 -0.2210  0.0290  0.5632
 7309TIP3    H143418   1.319   2.991   0.445 -0.4699  0.1397  0.9716
 7309TIP3    H243419   1.382   2.995   0.583  0.7437 -1.9064  0.5111
 7310TIP3   OH243420   5.518   0.361  11.365 -0.0401 -0.0587 -0.3418
 7310TIP3    H143421   5.457   0.330  11.298  0.0632  0.4875 -0.6899
 7310TIP3    H243422   5.604   0.332  11.335  0.1708  1.3184 -1.1340
 7311TIP3   OH243423   4.840   0.822  11.290 -0.2756 -0.1005  0.2213
 7311TIP3    H143424   4.874   0.831  11.379 -1.6561  1.1800  0.6509
 7311TIP3    H243425   4.791   0.739  11.292  0.9570 -0.8440  0.2061
 7312TIP3   OH243426   2.304   3.301   1.911 -0.1008 -0.2050 -0.8788
 7312TIP3    H143427   2.313   3.320   1.818  1.5155  1.3548 -0.4345
 7312TIP3    H243428   2.315   3.386   1.954 -1.0646 -0.8637  0.7294
 7313TIP3   OH243429   4.356   4.374   4.525  0.3699 -0.1736 -0.2343
 7313TIP3    H143430   4.349   4.315   4.450  0.8123  0.7730 -1.0265
 7313TIP3    H243431   4.450   4.386   4.537  0.2833  1.8105 -1.2395
 7314TIP3   OH243432   3.794   2.321   2.556  0.4682  0.4885  0.1908
 7314TIP3    H143433   3.700   2.329   2.566  0.5512  1.6619  0.1385
 7314TIP3    H243434   3.822   2.266   2.629 -0.1589  0.8068  0.6726
 7315TIP3   OH243435   5.765   6.094   5.225 -0.1500 -0.9823 -0.6557
 7315TIP3    H143436   5.845   6.138   5.253 -0.6239 -0.8315  0.5060
 7315TIP3    H243437   5.721   6.158   5.168 -0.0219 -0.6108 -0.3369
 7316TIP3   OH243438   6.690   1.263   1.862 -0.0028 -0.1938  0.3614
 7316TIP3    H143439   6.675   1.205   1.787 -0.1038 -1.4913  1.3616
 7316TIP3    H243440   6.633   1.338   1.845 -0.0848 -0.5051 -0.8226
 7317TIP3   OH243441   2.938   2.252  12.248 -0.3483  0.2401  0.1113
 7317TIP3    H143442   3.005   2.314  12.276  1.0491 -1.9596  1.8211
 7317TIP3    H243443   2.864   2.269  12.306 -0.0524  0.4514  0.4275
 7318TIP3   OH243444   6.711   2.869   6.249  0.7549 -0.2955  0.0639
 7318TIP3    H143445   6.669   2.864   6.335  3.3908 -0.4252  1.3960
 7318TIP3    H243446   6.695   2.959   6.220 -2.1460 -0.8967 -0.4365
 7319TIP3   OH243447   6.167   2.238  15.743 -0.1640 -0.4661  0.3172
 7319TIP3    H143448   6.104   2.309  15.756 -1.2384 -0.8656 -2.4294
 7319TIP3    H243449   6.247   2.281  15.713 -1.1367 -0.4428 -2.3631
 7320TIP3   OH243450   0.410   1.868  12.616 -0.1309  0.2219  0.1460
 7320TIP3    H143451   0.417   1.783  12.660 -0.2360  0.0388 -0.1944
 7320TIP3    H243452   0.483   1.868  12.554 -1.0918 -0.2804 -0.9915
 7321TIP3   OH243453   1.875   6.427   4.355 -0.2545  0.3864  0.1528
 7321TIP3    H143454   1.781   6.442   4.350 -0.4423 -1.1162 -1.0142
 7321TIP3    H243455   1.902   6.415   4.264  0.8770 -0.3114  0.5752
 7322TIP3   OH243456   0.027   3.314  12.126  0.0973 -0.0991 -0.4010
 7322TIP3    H143457   0.058   3.286  12.039  0.0649 -0.5655 -0.2602
 7322TIP3    H243458  -0.068   3.323  12.115  0.3045  1.7687 -0.9590
 7323TIP3   OH243459   1.165   1.715   2.652  0.0488 -0.7744 -0.3546
 7323TIP3    H143460   1.120   1.783   2.603  0.9212 -0.2889 -0.5084
 7323TIP3    H243461   1.118   1.634   2.632 -1.3807 -0.1215  0.3291
 7324TIP3   OH243462   0.008   2.804   0.106 -0.5426 -0.4083 -0.0922
 7324TIP3    H143463   0.072   2.849   0.161 -1.4925  0.0341  0.6512
 7324TIP3    H243464  -0.075   2.815   0.151 -1.0390 -1.5903 -0.6973
 7325TIP3   OH243465   6.653   5.885  17.236 -0.1927 -0.3092 -0.5065
 7325TIP3    H143466   6.598   5.807  17.246 -0.4730 -0.5633 -3.6197
 7325TIP3    H243467   6.741   5.852  17.224  0.3904  0.0423  2.3764
 7326TIP3   OH243468   3.936   1.654  13.912  0.4967  0.2676  0.1886
 7326TIP3    H143469   3.902   1.739  13.885  1.9026  0.5158 -0.8768
 7326TIP3    H243470   3.945   1.661  14.007 -1.0747  0.6641  0.3276
 7327TIP3   OH243471   3.139   2.726   3.392  0.1971 -0.5099  0.4106
 7327TIP3    H143472   3.084   2.776   3.452  0.0640  0.0877 -0.1952
 7327TIP3    H243473   3.226   2.765   3.401 -0.1053  0.4639 -0.7452
 7328TIP3   OH243474   5.812   5.380   3.273  0.0822 -0.0992 -0.1809
 7328TIP3    H143475   5.830   5.471   3.297 -0.8113  1.2716 -4.2217
 7328TIP3    H243476   5.894   5.334   3.290  0.9757  1.7415  0.6622
 7329TIP3   OH243477   4.820   6.275  11.593  0.2250 -0.0216 -0.2868
 7329TIP3    H143478   4.866   6.338  11.538 -0.8581  0.8198 -0.2624
 7329TIP3    H243479   4.852   6.190  11.564  0.1498  0.4378 -1.7841
 7330TIP3   OH243480   5.314   4.698  14.869  0.0642 -0.3770 -0.0840
 7330TIP3    H143481   5.340   4.757  14.798 -2.4330  0.3914 -0.4395
 7330TIP3    H243482   5.218   4.701  14.867 -0.0443 -1.4746  2.4059
 7331TIP3   OH243483   1.705   3.740  16.365  0.5884 -0.9294 -0.0837
 7331TIP3    H143484   1.614   3.715  16.380  0.4117 -0.4183 -0.2890
 7331TIP3    H243485   1.729   3.792  16.442  0.7236 -1.0978 -0.0085
 7332TIP3   OH243486   6.538   1.315  12.975 -0.0621  0.3631 -0.0508
 7332TIP3    H143487   6.521   1.409  12.978  1.1917  0.5842  0.4654
 7332TIP3    H243488   6.470   1.276  13.030  0.5513  1.1384  1.2662
 7333TIP3   OH243489   6.193   2.404   1.232 -0.0919  0.0728  0.2356
 7333TIP3    H143490   6.174   2.312   1.248  2.9278 -1.1859 -2.7511
 7333TIP3    H243491   6.267   2.423   1.290 -0.5081  0.4959  0.6203
 7334TIP3   OH243492   1.798   1.376  13.712  0.2537 -0.1438  0.1538
 7334TIP3    H143493   1.876   1.401  13.661 -0.0932 -0.9139 -0.7711
 7334TIP3    H243494   1.741   1.334  13.648 -1.4861  1.5924  0.5413
 7335TIP3   OH243495   4.020   0.614  11.081 -0.0361 -0.0703 -0.0535
 7335TIP3    H143496   4.059   0.547  11.026  0.5385  0.2169 -0.0050
 7335TIP3    H243497   3.977   0.673  11.020 -0.2645 -0.3081 -0.1211
 7336TIP3   OH243498   5.080   0.494   4.510 -0.4147 -0.1048  0.1192
 7336TIP3    H143499   4.989   0.491   4.483  0.0228  0.1778 -1.4509
 7336TIP3    H243500   5.129   0.469   4.431  0.8340 -0.9023  1.1187
 7337TIP3   OH243501   4.127   6.066  17.080 -0.3146  0.0813 -0.1078
 7337TIP3    H143502   4.174   5.989  17.047 -1.5525  0.0851 -1.9706
 7337TIP3    H243503   4.196   6.131  17.093  0.7761 -1.3644  1.6799
 7338TIP3   OH243504   3.021   5.693  12.151 -0.1941 -0.6415 -0.1387
 7338TIP3    H143505   2.962   5.710  12.078 -0.4487 -1.1264 -0.0470
 7338TIP3    H243506   2.967   5.648  12.216  0.4341 -1.6851 -0.3278
 7339TIP3   OH243507   5.853   2.210  14.502 -0.1606  0.3359 -0.4302
 7339TIP3    H143508   5.782   2.273  14.512 -0.9292 -0.2119 -2.2200
 7339TIP3    H243509   5.933   2.263  14.506 -0.6200  0.9151  1.8435
 7340TIP3   OH243510   4.038   3.989  11.769  0.3154  0.1095 -0.0728
 7340TIP3    H143511   4.075   3.915  11.720 -1.8972 -2.5859  2.1070
 7340TIP3    H243512   4.098   4.000  11.843  0.0359 -0.2927  0.2185
 7341TIP3   OH243513   2.491   4.344   0.204 -0.1425 -0.1014  0.1616
 7341TIP3    H143514   2.482   4.252   0.228  1.7473 -0.0768  1.0737
 7341TIP3    H243515   2.488   4.344   0.108  0.0284 -1.1370  0.1519
 7342TIP3   OH243516   6.066   5.552   2.335  0.1265 -1.0558  0.2845
 7342TIP3    H143517   5.983   5.527   2.375 -1.2292  1.0368 -1.1021
 7342TIP3    H243518   6.092   5.632   2.380  0.1717 -0.4138 -0.8371
 7343TIP3   OH243519   4.849   0.473  11.035 -0.1729  0.5720  0.0498
 7343TIP3    H143520   4.918   0.527  10.996 -0.4511  0.9521  0.0886
 7343TIP3    H243521   4.887   0.441  11.117 -0.0251  0.7425  0.0496
 7344TIP3   OH243522   0.731   4.640  16.840  0.5873  0.0545  0.3575
 7344TIP3    H143523   0.812   4.593  16.859  0.1322 -0.3901  1.2225
 7344TIP3    H243524   0.682   4.638  16.922 -1.0504 -1.1321 -0.6312
 7345TIP3   OH243525   1.164   4.334  13.495  0.0308 -0.0920  0.0126
 7345TIP3    H143526   1.239   4.281  13.520  0.5328  0.8538  0.5397
 7345TIP3    H243527   1.172   4.344  13.400  0.1498 -0.6327 -0.0323
 7346TIP3   OH243528   6.431   6.162  13.751  0.3670  0.0713  0.3433
 7346TIP3    H143529   6.525   6.161  13.738  0.1708  0.7541 -1.2086
 7346TIP3    H243530   6.394   6.152  13.663 -1.0124  0.0791  0.8994
 7347TIP3   OH243531   4.913   1.218   0.014  0.2385  0.0972 -0.1069
 7347TIP3    H143532   4.836   1.219  -0.043  0.9928 -0.9486 -1.1664
 7347TIP3    H243533   4.891   1.279   0.085 -1.3467  0.2053 -0.6700
 7348TIP3   OH243534   1.834   3.412   2.439  0.2782 -0.0274 -0.2186
 7348TIP3    H143535   1.760   3.447   2.489  1.6713 -0.2760  2.0893
 7348TIP3    H243536   1.887   3.489   2.419  0.1765 -0.0348 -0.5049
 7349TIP3   OH243537   6.733   4.838   1.597  0.0225  0.5135  0.3833
 7349TIP3    H143538   6.746   4.836   1.692  0.6871  0.8527  0.3055
 7349TIP3    H243539   6.814   4.802   1.561 -0.4404 -0.1098 -0.0417
 7350TIP3   OH243540   2.739   4.213  12.107  0.2019 -0.3987 -0.4053
 7350TIP3    H143541   2.718   4.305  12.090 -1.9534 -0.8038 -0.0823
 7350TIP3    H243542   2.674   4.163  12.058  2.4748 -1.8392 -2.0787
 7351TIP3   OH243543   0.753   0.663   2.418  0.2270 -0.2653 -0.2354
 7351TIP3    H143544   0.761   0.678   2.324  0.3859 -0.5473 -0.2662
 7351TIP3    H243545   0.753   0.568   2.428 -0.0879 -0.2380  0.0249
 7352TIP3   OH243546   3.951   5.464  11.537 -0.7365 -0.4980 -0.2143
 7352TIP3    H143547   3.939   5.508  11.622  2.6995  0.2320 -0.0525
 7352TIP3    H243548   3.902   5.519  11.475  1.7871  2.4804  0.3276
 7353TIP3   OH243549   5.312   2.853  16.002 -0.8339  0.0158 -0.0212
 7353TIP3    H143550   5.331   2.795  16.075 -0.7101 -0.5312 -0.4799
 7353TIP3    H243551   5.398   2.870  15.963 -0.7365  1.4278  0.7989
 7354TIP3   OH243552   2.029   0.447  13.856 -0.0635  0.6059  0.6335
 7354TIP3    H143553   2.028   0.536  13.820  0.3392  0.1197 -0.6105
 7354TIP3    H243554   2.119   0.416  13.841 -0.6729 -0.6449 -0.5604
 7355TIP3   OH243555   1.571   3.188  15.589 -0.0048 -0.7945  0.5050
 7355TIP3    H143556   1.549   3.095  15.594 -1.7550 -0.4811 -0.8997
 7355TIP3    H243557   1.490   3.233  15.614  0.1464  0.3681 -1.0079
 7356TIP3   OH243558   5.332   3.088  12.232  0.1530 -0.0913 -0.3593
 7356TIP3    H143559   5.271   3.044  12.172  0.5940 -1.0517 -0.1041
 7356TIP3    H243560   5.297   3.071  12.319  0.2971  0.1096 -0.2623
 7357TIP3   OH243561   6.550   2.965  14.506  0.3623 -0.6264 -0.6256
 7357TIP3    H143562   6.521   2.912  14.431 -0.6640 -0.5474 -0.2877
 7357TIP3    H243563   6.474   3.018  14.528  0.4171 -1.1882  0.9567
 7358TIP3   OH243564   2.400   5.955  12.057 -0.4262 -0.0836  0.1117
 7358TIP3    H143565   2.349   6.002  12.124  0.5913 -0.2322  0.9942
 7358TIP3    H243566   2.489   5.988  12.068  0.0266 -1.2108 -0.1914
 7359TIP3   OH243567   2.286   3.166   5.098  0.2126 -0.3884  0.4812
 7359TIP3    H143568   2.262   3.190   5.188 -0.7606 -2.1930  0.7198
 7359TIP3    H243569   2.241   3.083   5.082  0.6344 -0.2571 -1.5738
 7360TIP3   OH243570   4.691   6.429   1.921 -0.3562  0.0165 -0.2890
 7360TIP3    H143571   4.655   6.367   1.984  0.1067  0.1428  0.0998
 7360TIP3    H243572   4.784   6.432   1.941 -0.6527  2.1743  0.8540
 7361TIP3   OH243573   2.456   4.939   6.377  0.2698 -0.2208 -1.1699
 7361TIP3    H143574   2.397   4.864   6.382  0.1834 -0.3348 -3.3027
 7361TIP3    H243575   2.542   4.901   6.355  0.6090  0.1511 -0.5050
 7362TIP3   OH243576   0.282   5.241  12.756 -0.0991  0.2813  0.2731
 7362TIP3    H143577   0.265   5.303  12.685 -0.2078 -0.7907 -0.6438
 7362TIP3    H243578   0.223   5.168  12.739  1.3739 -0.9294  0.2673
 7363TIP3   OH243579   0.892   0.286  11.083 -0.3671 -0.0319 -0.0163
 7363TIP3    H143580   0.977   0.313  11.048 -0.4247  2.2545  1.4598
 7363TIP3    H243581   0.828   0.338  11.034 -0.7142  0.1598  0.6325
 7364TIP3   OH243582   0.598   3.432  16.897  0.4042 -0.4214 -0.3473
 7364TIP3    H143583   0.564   3.346  16.873  0.5058 -0.5984  0.1387
 7364TIP3    H243584   0.520   3.487  16.908  0.2870 -0.7310  0.4076
 7365TIP3   OH243585   5.327   5.034  12.055 -0.1211  0.1203  0.3372
 7365TIP3    H143586   5.340   5.041  12.150  1.1915  1.0755  0.1019
 7365TIP3    H243587   5.387   4.965  12.028  0.8749  1.1314 -0.0545
 7366TIP3   OH243588   5.564   1.048   4.130  0.0675 -0.1412  0.0525
 7366TIP3    H143589   5.590   1.077   4.217 -2.4101  0.3761  0.6748
 7366TIP3    H243590   5.567   0.953   4.134 -0.4539 -0.1239  0.8366
 7367TIP3   OH243591   0.577   5.082   6.617  0.1231  0.2665 -0.2343
 7367TIP3    H143592   0.487   5.114   6.606  0.0516 -0.5359 -2.2077
 7367TIP3    H243593   0.586   5.068   6.711 -1.8601  0.2668 -0.0210
 7368TIP3   OH243594   0.493   5.644   4.042 -0.3257 -0.1705  0.2911
 7368TIP3    H143595   0.457   5.701   4.110  0.3744 -2.0180  2.2839
 7368TIP3    H243596   0.485   5.556   4.079  1.6404 -1.0484 -1.3247
 7369TIP3   OH243597   0.405   6.608  12.912 -0.2828 -0.4280  0.3877
 7369TIP3    H143598   0.340   6.663  12.956 -0.3262 -1.0176  1.0730
 7369TIP3    H243599   0.362   6.580  12.831 -0.0848  0.9188 -0.1934
 7370TIP3   OH243600   0.345   4.351   5.722  0.2600 -0.3034 -0.5013
 7370TIP3    H143601   0.412   4.402   5.768  0.3913 -1.0850  0.1888
 7370TIP3    H243602   0.395   4.284   5.674 -0.0674 -1.3789  0.6422
 7371TIP3   OH243603   1.755   2.817   3.476  0.1075  0.8396  0.1044
 7371TIP3    H143604   1.822   2.823   3.544  0.5719  1.4345 -0.3941
 7371TIP3    H243605   1.801   2.840   3.395 -0.4858  0.3422 -0.3775
 7372TIP3   OH243606   0.314   3.603  10.723 -0.1608  0.4670  0.7359
 7372TIP3    H143607   0.379   3.545  10.684 -0.1500  0.3671  0.9012
 7372TIP3    H243608   0.240   3.546  10.744  0.1599  0.3611  1.6242
 7373TIP3   OH243609   2.153   1.630   1.966 -0.0863 -0.9933  0.0600
 7373TIP3    H143610   2.148   1.714   1.921  2.4447 -0.6825  0.2994
 7373TIP3    H243611   2.143   1.565   1.897 -1.2290 -0.5129 -0.2388
 7374TIP3   OH243612   4.797   1.729   1.413  0.4163 -0.3076 -0.5240
 7374TIP3    H143613   4.788   1.637   1.386 -1.5196 -0.4460  0.4871
 7374TIP3    H243614   4.818   1.725   1.506  0.8793  0.2680 -0.6021
 7375TIP3   OH243615   0.165   4.484  12.759 -0.2330 -0.7514  0.8365
 7375TIP3    H143616   0.151   4.390  12.746 -0.1089 -0.2769 -3.7795
 7375TIP3    H243617   0.119   4.525  12.686  1.7942  2.5961  1.3363
 7376TIP3   OH243618   6.492   2.908   1.407  0.4454 -0.0619  0.1287
 7376TIP3    H143619   6.496   2.893   1.313 -1.0385  0.3112 -0.0054
 7376TIP3    H243620   6.427   2.846   1.438 -0.7086  1.3355  0.5687
 7377TIP3   OH243621   5.036   4.998  12.739 -0.2848 -0.4664  0.3356
 7377TIP3    H143622   5.020   4.924  12.680  0.7623 -3.2320  3.3697
 7377TIP3    H243623   5.122   5.030  12.714  0.0034 -1.3774  0.1327
 7378TIP3   OH243624   2.829   5.220  10.282  0.2337  0.0739 -0.5004
 7378TIP3    H143625   2.872   5.135  10.287  0.4130  0.1427 -0.8830
 7378TIP3    H243626   2.831   5.253  10.372 -0.7915 -0.7913 -0.1449
 7379TIP3   OH243627   2.278   1.633  15.426 -0.2326 -0.6400 -0.0993
 7379TIP3    H143628   2.340   1.563  15.443 -0.0715 -0.7506 -1.1280
 7379TIP3    H243629   2.259   1.670  15.512  0.6062 -1.1586  0.3090
 7380TIP3   OH243630   6.790   5.258  16.842  0.2769 -0.2860 -0.1232
 7380TIP3    H143631   6.824   5.169  16.836  1.5238  0.1773 -0.1505
 7380TIP3    H243632   6.854   5.312  16.795 -0.1005  0.7091  0.4778
 7381TIP3   OH243633   3.751   5.872   5.254 -0.7789  0.0676 -0.2225
 7381TIP3    H143634   3.720   5.782   5.247  0.6205 -0.3617 -1.2381
 7381TIP3    H243635   3.721   5.915   5.174 -0.2071  0.0923 -0.4323
 7382TIP3   OH243636   2.016   2.950   3.540  0.2168  0.3082  0.1716
 7382TIP3    H143637   2.035   3.043   3.554 -2.1073  1.2545 -2.4319
 7382TIP3    H243638   2.069   2.926   3.464  0.4026 -0.3815  0.5123
 7383TIP3   OH243639   1.688   3.723  13.439  0.1147 -0.5033  0.2239
 7383TIP3    H143640   1.743   3.792  13.402  1.6911 -2.4166 -1.1070
 7383TIP3    H243641   1.710   3.722  13.532 -0.1356  0.9383  0.3171
 7384TIP3   OH243642   3.312   0.012  14.031 -0.2856  0.5380  0.2716
 7384TIP3    H143643   3.354   0.065  14.098  1.8437  3.2505 -3.0137
 7384TIP3    H243644   3.336  -0.078  14.051  0.4027  1.3066  2.9986
 7385TIP3   OH243645   0.499   6.232   3.730 -0.1362 -0.1919  0.0997
 7385TIP3    H143646   0.442   6.166   3.692 -2.0872  1.0063  0.8470
 7385TIP3    H243647   0.470   6.240   3.821 -1.0585  2.7704 -0.3679
 7386TIP3   OH243648   1.521   3.817   3.939 -0.2103  0.2615  0.0437
 7386TIP3    H143649   1.506   3.729   3.975  1.2240 -0.9932 -2.3192
 7386TIP3    H243650   1.460   3.825   3.867  1.8154 -0.0729 -1.7619
 7387TIP3   OH243651   3.675   2.300   3.148  0.8313  0.6725 -0.0593
 7387TIP3    H143652   3.652   2.368   3.212  1.2713  1.9644 -1.2328
 7387TIP3    H243653   3.684   2.348   3.066  0.8031 -0.8867 -0.9775
 7388TIP3   OH243654   0.643   1.569   1.255 -0.2778  0.4538  0.5880
 7388TIP3    H143655   0.635   1.626   1.179  0.2024  0.7974  0.7905
 7388TIP3    H243656   0.553   1.554   1.284 -0.4725  0.1456 -0.1734
 7389TIP3   OH243657   5.150   4.113   6.083  0.0369 -0.1906  0.2100
 7389TIP3    H143658   5.181   4.193   6.125 -0.8347  0.2621 -0.0006
 7389TIP3    H243659   5.115   4.060   6.155 -1.0872  0.4119  0.1021
 7390TIP3   OH243660   3.539   6.777  11.186  0.0357 -0.0869 -0.5233
 7390TIP3    H143661   3.484   6.729  11.248 -1.8670 -0.0554 -2.1341
 7390TIP3    H243662   3.535   6.726  11.106  0.2574  1.3230 -1.4440
 7391TIP3   OH243663   5.856   4.088  17.105 -0.0787 -0.1076 -0.4378
 7391TIP3    H143664   5.934   4.100  17.051 -0.1317 -1.1135 -0.7379
 7391TIP3    H243665   5.881   4.022  17.169  0.3825  1.9725  1.5706
 7392TIP3   OH243666   0.758   3.308   2.300 -0.2262  0.1592 -0.0201
 7392TIP3    H143667   0.839   3.265   2.328 -0.5679  0.0800  0.8352
 7392TIP3    H243668   0.702   3.307   2.377 -1.1286  0.0339 -0.6755
 7393TIP3   OH243669   2.733   5.023   1.999 -0.3175  0.1018 -0.1266
 7393TIP3    H143670   2.770   4.948   2.045  1.3891  2.1606  1.9965
 7393TIP3    H243671   2.719   4.992   1.910 -1.2938 -3.2301  1.1271
 7394TIP3   OH243672   2.469   1.721  13.109  0.2899  0.2970 -0.2822
 7394TIP3    H143673   2.386   1.726  13.156  0.9786 -2.0561  1.2443
 7394TIP3    H243674   2.451   1.667  13.033  0.1919  0.6115 -0.4834
 7395TIP3   OH243675   6.246   1.430   2.435 -0.0012 -0.0969 -0.0187
 7395TIP3    H143676   6.255   1.358   2.372 -2.8642 -0.9056  0.4530
 7395TIP3    H243677   6.239   1.508   2.380  1.3432 -0.3583 -0.5847
 7396TIP3   OH243678   4.176   0.279  15.176  0.1549 -0.0604  0.0714
 7396TIP3    H143679   4.172   0.184  15.184  1.0396 -0.1524 -0.6006
 7396TIP3    H243680   4.129   0.298  15.095  0.1093  0.0734  0.1282
 7397TIP3   OH243681   6.692   2.101   1.522  0.2015  0.2412 -0.1808
 7397TIP3    H143682   6.650   2.122   1.605 -0.5668 -0.2318 -0.4489
 7397TIP3    H243683   6.782   2.132   1.533  0.5767 -1.3065  1.4494
 7398TIP3   OH243684   1.726   0.706  14.113  0.5792 -0.0072 -0.0860
 7398TIP3    H143685   1.644   0.691  14.159  1.4709 -0.2528  1.4827
 7398TIP3    H243686   1.721   0.652  14.034 -0.4018 -0.6858  0.4390
 7399TIP3   OH243687   3.224   2.637  16.066  0.1737 -0.1888  0.1010
 7399TIP3    H143688   3.133   2.609  16.072  0.0047  0.2783 -0.2048
 7399TIP3    H243689   3.221   2.712  16.007  0.6928  0.0959  0.4351
 7400TIP3   OH243690   0.751   0.302  14.293 -0.3603  0.0497 -0.3068
 7400TIP3    H143691   0.843   0.305  14.265 -0.4385  1.0800 -0.4752
 7400TIP3    H243692   0.728   0.209  14.292  0.6556 -0.2019 -0.3533
 7401TIP3   OH243693   5.720   3.292   3.336  0.2501 -0.4158  0.2444
 7401TIP3    H143694   5.707   3.348   3.260 -0.2376  0.7084  1.1311
 7401TIP3    H243695   5.660   3.327   3.402  0.0133 -1.9218  0.8598
 7402TIP3   OH243696   5.910   4.774   3.586  0.0263  0.1546 -0.8836
 7402TIP3    H143697   5.818   4.754   3.566 -0.4619 -0.3901  1.7941
 7402TIP3    H243698   5.959   4.714   3.530 -1.2960 -1.6825 -0.1230
 7403TIP3   OH243699   3.259   0.440   2.481  0.2961 -0.6464 -0.4403
 7403TIP3    H143700   3.290   0.380   2.549 -0.2275 -0.1193  0.2780
 7403TIP3    H243701   3.338   0.485   2.451  0.3056  0.4528  1.1443
 7404TIP3   OH243702   4.146   4.185   4.945  0.2990 -0.0819 -0.1247
 7404TIP3    H143703   4.208   4.113   4.935  0.5813 -0.0180  0.9931
 7404TIP3    H243704   4.138   4.223   4.858  0.2537 -1.3788 -0.6948
 7405TIP3   OH243705   1.430   6.666   1.207  0.1696  0.3021  0.4139
 7405TIP3    H143706   1.438   6.761   1.220  0.4778  0.4831 -0.9996
 7405TIP3    H243707   1.493   6.628   1.268  2.9521  1.1967 -1.7896
 7406TIP3   OH243708   4.586   2.357   3.272 -0.0853 -0.9406  0.4952
 7406TIP3    H143709   4.626   2.281   3.231 -0.6687 -1.1873  0.3842
 7406TIP3    H243710   4.620   2.432   3.222 -0.9370 -1.2503 -0.5694
 7407TIP3   OH243711   6.777   2.006  15.615 -0.1747  0.0260 -0.1786
 7407TIP3    H143712   6.719   2.044  15.682  2.1720  0.7526  1.4801
 7407TIP3    H243713   6.824   2.081  15.579  1.1933 -0.7932 -0.1044
 7408TIP3   OH243714   4.924   6.330   2.264  0.4148 -0.0401  0.0253
 7408TIP3    H143715   4.846   6.312   2.316 -0.9776 -0.0904 -1.9890
 7408TIP3    H243716   4.955   6.415   2.294  0.1391 -0.4611  1.5068
 7409TIP3   OH243717   2.752   6.016  15.613 -0.0285 -0.1219 -0.3649
 7409TIP3    H143718   2.685   6.048  15.552  0.7542  0.4436 -0.9272
 7409TIP3    H243719   2.752   5.921  15.600  0.1714 -0.0053 -1.2982
 7410TIP3   OH243720   5.022   1.492   2.140  0.0462 -0.3921  0.2050
 7410TIP3    H143721   4.952   1.448   2.187  0.5975 -0.3613  1.0555
 7410TIP3    H243722   5.070   1.540   2.207  0.9284 -0.4658 -0.3674
 7411TIP3   OH243723   4.982   4.431   4.404  0.3200  0.2767 -0.3981
 7411TIP3    H143724   4.959   4.416   4.496 -0.2744 -0.4946 -0.6649
 7411TIP3    H243725   4.966   4.347   4.361 -0.2128  0.8566 -1.3641
 7412TIP3   OH243726   6.647   0.048  11.106  0.3169 -0.0897  0.6242
 7412TIP3    H143727   6.741   0.066  11.107  0.6151 -1.5744  1.3699
 7412TIP3    H243728   6.607   0.128  11.073  1.8043  0.7371  0.7984
 7413TIP3   OH243729   1.136   4.049   0.727  0.4121 -0.6252  0.3284
 7413TIP3    H143730   1.056   4.096   0.750  1.4025  0.3693  1.8432
 7413TIP3    H243731   1.149   4.068   0.635 -1.3731 -1.2260 -0.0683
 7414TIP3   OH243732   0.221   0.185  14.122  0.4890 -0.4298  0.2544
 7414TIP3    H143733   0.286   0.155  14.186  0.0902  3.4380  2.6048
 7414TIP3    H243734   0.272   0.238  14.060  0.3271 -1.4360 -0.7545
 7415TIP3   OH243735   2.025   0.238   1.885 -0.4656 -0.4705  0.2008
 7415TIP3    H143736   2.066   0.240   1.972  0.8448  4.0381 -0.3521
 7415TIP3    H243737   2.093   0.201   1.828 -0.5671 -1.5123  0.7416
 7416TIP3   OH243738   2.143   0.728  13.365 -0.5497 -0.1945 -0.5366
 7416TIP3    H143739   2.088   0.761  13.294 -0.0238  0.4795 -0.6339
 7416TIP3    H243740   2.214   0.681  13.321  0.1095  0.7398 -0.4830
 7417TIP3   OH243741   0.390   6.572  11.303  0.1674  0.0888  0.0164
 7417TIP3    H143742   0.393   6.652  11.355  2.4641 -1.0488  1.7367
 7417TIP3    H243743   0.455   6.586  11.234 -0.0083  0.0344 -0.1587
 7418TIP3   OH243744   5.854   3.262   2.755  0.0337 -0.7278  0.4052
 7418TIP3    H143745   5.922   3.237   2.692 -0.9388  0.0221 -0.9557
 7418TIP3    H243746   5.774   3.267   2.704 -0.7339  0.0906  1.6663
 7419TIP3   OH243747   4.995   1.541  16.225 -0.3541 -0.0174 -0.3719
 7419TIP3    H143748   5.025   1.489  16.299 -0.1359  3.7158  2.2985
 7419TIP3    H243749   4.914   1.582  16.255 -1.6761 -0.4824 -3.1648
 7420TIP3   OH243750   3.908   0.096  15.819 -0.1028  0.2713 -0.2452
 7420TIP3    H143751   3.960   0.174  15.802 -1.8262  1.9526  2.0110
 7420TIP3    H243752   3.858   0.083  15.738  1.2958  0.5906 -1.1822
 7421TIP3   OH243753   5.939   3.851   1.881 -0.1880  0.7107 -0.3173
 7421TIP3    H143754   5.905   3.935   1.913 -1.8294  0.1267 -0.4828
 7421TIP3    H243755   5.869   3.788   1.900  0.8418 -0.5392 -0.6081
 7422TIP3   OH243756   0.108   2.334   3.599  0.5360  0.6669  0.1677
 7422TIP3    H143757   0.022   2.365   3.570  0.8850  2.3915  0.9126
 7422TIP3    H243758   0.092   2.245   3.631 -0.6109  0.2803 -1.4603
 7423TIP3   OH243759   2.001   4.123  15.972  0.0744  0.2343 -0.2107
 7423TIP3    H143760   2.047   4.160  16.048 -1.9033  0.1473  1.0595
 7423TIP3    H243761   2.000   4.193  15.908 -1.3330  1.5381  1.1937
 7424TIP3   OH243762   4.798   2.754   3.349 -0.1036  0.2941 -0.3573
 7424TIP3    H143763   4.887   2.775   3.376 -0.8439  1.0711  1.5777
 7424TIP3    H243764   4.806   2.672   3.301  1.3696 -0.8733  1.8129
 7425TIP3   OH243765   4.768   0.334   1.879  0.0902 -0.3245 -0.3123
 7425TIP3    H143766   4.746   0.412   1.930 -1.3791 -0.9336  0.0284
 7425TIP3    H243767   4.795   0.269   1.944  1.0131 -0.2065 -0.5687
 7426TIP3   OH243768   2.455   0.895  16.024  0.2787  0.1208  0.9164
 7426TIP3    H143769   2.497   0.826  15.973 -1.4007 -0.1318 -0.1559
 7426TIP3    H243770   2.528   0.948  16.057  1.5491 -1.7259  1.1704
 7427TIP3   OH243771   4.137   6.011   1.664  0.2112  0.1904  0.0804
 7427TIP3    H143772   4.067   6.076   1.664  1.0466  1.1124 -0.1133
 7427TIP3    H243773   4.095   5.929   1.639 -0.7043  0.8267 -0.4595
 7428TIP3   OH243774   6.369   1.555   1.108 -0.6466 -0.3680  0.5569
 7428TIP3    H143775   6.346   1.620   1.175 -0.5911  0.4885 -0.2380
 7428TIP3    H243776   6.352   1.600   1.025 -2.4299 -2.0532 -0.0111
 7429TIP3   OH243777   5.816   1.842  13.214 -0.1381  0.3019 -0.2048
 7429TIP3    H143778   5.851   1.887  13.291 -1.7561  1.3363 -0.0528
 7429TIP3    H243779   5.740   1.894  13.188 -1.1272 -1.4773 -0.9696
 7430TIP3   OH243780   6.783   2.084   1.007 -0.4221  0.5576 -0.4642
 7430TIP3    H143781   6.733   2.004   0.989 -2.4902  1.6181  0.4013
 7430TIP3    H243782   6.757   2.110   1.095  1.8383  1.0527  0.1058
 7431TIP3   OH243783   3.822   6.474  14.218 -0.3398 -0.2774  0.2710
 7431TIP3    H143784   3.911   6.505  14.231  0.0866 -0.7622 -1.3410
 7431TIP3    H243785   3.774   6.551  14.187 -1.1494  0.6549  3.5983
 7432TIP3   OH243786   4.535   6.098   1.816  0.0254 -0.3438  0.0278
 7432TIP3    H143787   4.599   6.029   1.798  1.1331  1.1851 -1.9533
 7432TIP3    H243788   4.450   6.054   1.808  0.7409 -1.7131 -0.1682
 7433TIP3   OH243789   4.019   2.930  15.260 -0.3761 -0.0745  0.2825
 7433TIP3    H143790   3.994   2.895  15.175  0.5316 -1.3687  0.5339
 7433TIP3    H243791   4.027   3.025  15.246 -2.1831 -0.0337 -0.5679
 7434TIP3   OH243792   5.810   6.528   0.736 -0.2190 -0.1369 -0.2616
 7434TIP3    H143793   5.872   6.580   0.787  1.2894 -1.8146 -0.3582
 7434TIP3    H243794   5.854   6.445   0.721 -2.8509 -1.7446  0.5100
 7435TIP3   OH243795   5.992   4.370  10.752 -0.5132 -0.0440  0.0365
 7435TIP3    H143796   6.076   4.362  10.799 -1.8916 -0.8822  2.4728
 7435TIP3    H243797   5.970   4.463  10.760 -1.8025 -0.5359  3.1225
 7436TIP3   OH243798   4.338   1.883  15.834  0.4441  0.4913 -0.1613
 7436TIP3    H143799   4.363   1.859  15.923  1.2929  0.3697 -0.4301
 7436TIP3    H243800   4.394   1.830  15.778 -0.1820  0.4665 -0.7713
 7437TIP3   OH243801   5.049   3.341   3.275 -0.5591  0.2081  0.0308
 7437TIP3    H143802   5.031   3.432   3.297 -0.8128  0.3067 -0.5682
 7437TIP3    H243803   5.123   3.346   3.214 -0.9485  0.0579 -0.4606
 7438TIP3   OH243804   2.340   2.045  15.979  0.2543 -0.2174  0.2199
 7438TIP3    H143805   2.323   1.962  16.023  0.7981 -1.1769 -1.3315
 7438TIP3    H243806   2.428   2.035  15.942 -0.9974 -0.2902 -2.8828
 7439TIP3   OH243807   4.628   1.529   6.290 -0.2847  0.1555  0.1485
 7439TIP3    H143808   4.580   1.534   6.208  0.4686 -1.5721 -0.4224
 7439TIP3    H243809   4.630   1.619   6.322  0.4645  1.0490 -2.3199
 7440TIP3   OH243810   6.600   3.238   5.754 -0.5331  0.2884 -0.5572
 7440TIP3    H143811   6.645   3.154   5.764  0.0430  0.3741 -2.3058
 7440TIP3    H243812   6.515   3.215   5.717 -1.2082  0.3073  0.9282
 7441TIP3   OH243813   0.694   5.051  10.829  0.1791 -0.5831  0.3818
 7441TIP3    H143814   0.700   4.956  10.819 -1.1385 -0.7904  1.4561
 7441TIP3    H243815   0.757   5.072  10.899 -0.9579 -0.9262  1.5256
 7442TIP3   OH243816   5.428   1.786   4.907  0.0047  0.4097 -0.4236
 7442TIP3    H143817   5.451   1.747   4.991  2.1911 -0.4054 -1.3504
 7442TIP3    H243818   5.357   1.731   4.873 -1.9663  1.6866  1.5704
 7443TIP3   OH243819   4.569   0.387  15.794 -0.2124  0.2426 -0.3307
 7443TIP3    H143820   4.508   0.438  15.742 -1.3036 -0.7479 -0.0555
 7443TIP3    H243821   4.527   0.380  15.880  0.2500 -0.5030 -0.1573
 7444TIP3   OH243822   3.670   5.985   5.022  0.3659  0.2475  0.1674
 7444TIP3    H143823   3.602   5.935   4.976 -0.7821  0.1791  1.8946
 7444TIP3    H243824   3.701   6.048   4.957 -2.1095  0.9800 -0.3734
 7445TIP3   OH243825   4.153   0.933  10.595 -0.0899 -0.1419 -0.0942
 7445TIP3    H143826   4.080   0.916  10.534 -1.0388  0.5446  0.8335
 7445TIP3    H243827   4.195   1.011  10.561  0.6528 -0.9325 -1.0262
 7446TIP3   OH243828   6.273   2.178   2.052  0.2448 -0.0268 -0.0560
 7446TIP3    H143829   6.205   2.189   1.986  0.0080  0.6641  0.2949
 7446TIP3    H243830   6.313   2.265   2.060  1.6456 -0.5858 -0.7698
 7447TIP3   OH243831   5.048   3.622   3.322 -0.5825 -0.0484 -0.3830
 7447TIP3    H143832   5.131   3.665   3.300 -0.7201  1.0318  1.1642
 7447TIP3    H243833   4.987   3.694   3.337 -1.1673 -0.8087  0.9195
 7448TIP3   OH243834   0.951   5.678   6.122 -0.2901 -0.3445  0.5705
 7448TIP3    H143835   1.011   5.737   6.167  0.5731 -0.5043 -0.3519
 7448TIP3    H243836   0.893   5.736   6.073 -0.5854 -0.2047  1.0864
 7449TIP3   OH243837   2.123   1.809  15.968  0.1161 -0.4610 -0.3567
 7449TIP3    H143838   2.116   1.898  15.932 -1.4846 -0.5544 -0.3119
 7449TIP3    H243839   2.039   1.768  15.946  0.7812 -1.8949 -0.2068
 7450TIP3   OH243840   3.410   3.100  11.846  0.4008 -0.2207 -0.2993
 7450TIP3    H143841   3.436   3.182  11.888  1.4968 -1.3219  1.2202
 7450TIP3    H243842   3.487   3.044  11.853 -0.5629 -1.6321 -0.7095
 7451TIP3   OH243843   4.555   5.354  12.010  0.2607  0.7393  0.8630
 7451TIP3    H143844   4.524   5.298  11.939  0.3341 -1.3588  2.4336
 7451TIP3    H243845   4.643   5.379  11.984  0.5795 -0.6573  0.5674
 7452TIP3   OH243846   3.979   3.100  17.146  0.4942 -0.1657 -0.4223
 7452TIP3    H143847   4.016   3.044  17.078 -0.9415 -1.0926 -0.4558
 7452TIP3    H243848   3.979   3.046  17.225 -1.0683 -0.3034 -0.5004
 7453TIP3   OH243849   5.306   0.097   1.128  0.1889 -0.4069 -0.0390
 7453TIP3    H143850   5.303   0.009   1.089  0.9065  0.2078 -1.5354
 7453TIP3    H243851   5.396   0.105   1.161 -0.5585 -1.1107  2.2386
 7454TIP3   OH243852   6.080   4.088  16.312  0.6075  0.3014 -0.0787
 7454TIP3    H143853   6.131   4.090  16.231 -0.1519  2.4485 -0.5281
 7454TIP3    H243854   6.043   4.176  16.320 -0.8217 -0.4188  1.6511
 7455TIP3   OH243855   2.735   1.503  15.072 -0.3474 -0.3740  0.1578
 7455TIP3    H143856   2.795   1.429  15.075  0.2645  0.1274  0.3396
 7455TIP3    H243857   2.649   1.465  15.094  0.1389 -0.8445  1.2869
 7456TIP3   OH243858   4.094   5.634  10.563  0.2707 -0.1824  0.4425
 7456TIP3    H143859   4.059   5.558  10.610 -2.2718  2.0377  2.3776
 7456TIP3    H243860   4.016   5.677  10.528  1.5722  2.0809  0.2725
 7457TIP3   OH243861   0.096   1.415   3.738  0.4970 -0.1934 -0.1655
 7457TIP3    H143862   0.143   1.378   3.813 -1.7785 -0.4718  1.1950
 7457TIP3    H243863   0.075   1.339   3.683 -0.5297 -0.4232  0.5177
 7458TIP3   OH243864   3.531   0.498   5.160 -0.9186 -0.1847 -0.4450
 7458TIP3    H143865   3.446   0.459   5.141 -1.5638  0.3496  1.2061
 7458TIP3    H243866   3.590   0.423   5.171 -2.1024 -0.7732  2.5146
 7459TIP3   OH243867   3.036   3.797  16.256 -0.3694 -0.4210 -0.4981
 7459TIP3    H143868   3.033   3.873  16.197 -1.4467 -0.0733 -0.0056
 7459TIP3    H243869   3.096   3.823  16.326  0.1397 -0.4596 -0.9155
 7460TIP3   OH243870   5.730   6.396   3.246  0.1156  0.3808 -0.0876
 7460TIP3    H143871   5.654   6.419   3.301 -1.0489 -0.5675 -1.2539
 7460TIP3    H243872   5.761   6.314   3.283  0.3375  0.5788  0.1633
 7461TIP3   OH243873   0.783   0.708   3.033 -0.3894 -0.1308 -0.9047
 7461TIP3    H143874   0.757   0.796   3.006  0.5991  0.1120 -1.0667
 7461TIP3    H243875   0.734   0.650   2.974 -1.5281  0.2801 -0.3848
 7462TIP3   OH243876   3.370   4.134  12.979  0.2367 -0.5324  0.2820
 7462TIP3    H143877   3.385   4.160  13.070  1.0145  1.2219 -0.3213
 7462TIP3    H243878   3.278   4.155  12.964  0.3003 -0.1425  0.4371
 7463TIP3   OH243879   1.865   5.179   3.619  0.3815 -0.1379  0.0168
 7463TIP3    H143880   1.932   5.237   3.656  1.3415 -1.2753  0.1180
 7463TIP3    H243881   1.899   5.157   3.532 -0.1075 -0.3138 -0.1286
 7464TIP3   OH243882   5.187   2.850  16.792 -0.0019 -0.4554  0.8547
 7464TIP3    H143883   5.261   2.829  16.849  1.3997 -2.7980 -1.7397
 7464TIP3    H243884   5.115   2.797  16.825  1.3548 -3.3708 -0.7383
 7465TIP3   OH243885   1.259   0.408   5.550  0.1324 -0.0529 -0.0359
 7465TIP3    H143886   1.345   0.413   5.509  0.7905  0.7075  1.4079
 7465TIP3    H243887   1.236   0.315   5.546  0.8292 -0.2021 -0.7828
 7466TIP3   OH243888   1.277   6.334   0.568  0.6592  0.0632 -0.1412
 7466TIP3    H143889   1.241   6.337   0.657  0.4605 -4.0270  0.0421
 7466TIP3    H243890   1.372   6.340   0.580  0.6898 -1.3863  0.4844
 7467TIP3   OH243891   5.094   2.338  14.772  0.7154 -0.4008  0.3036
 7467TIP3    H143892   5.027   2.393  14.731  1.2971  0.7868  0.8904
 7467TIP3    H243893   5.051   2.301  14.849  0.4225 -0.4564  0.1114
 7468TIP3   OH243894   6.260   3.617  14.247 -0.1556  0.1073  0.0107
 7468TIP3    H143895   6.295   3.528  14.238 -0.7102  0.0003 -1.1950
 7468TIP3    H243896   6.333   3.668  14.281 -0.1662 -1.0405  1.8094
 7469TIP3   OH243897   0.679   4.267   3.724  0.1087  0.0798 -0.9374
 7469TIP3    H143898   0.587   4.256   3.748  0.4273  2.5499  1.7142
 7469TIP3    H243899   0.724   4.198   3.771 -0.2442 -0.5334 -1.4771
 7470TIP3   OH243900   0.407   5.375  16.492 -0.1120 -0.0018  0.0313
 7470TIP3    H143901   0.463   5.373  16.414  0.5890  0.6850  0.5143
 7470TIP3    H243902   0.325   5.414  16.462  0.1888  0.3433 -0.3435
 7471TIP3   OH243903   6.220   3.253  14.524  0.6025 -0.3959  0.3818
 7471TIP3    H143904   6.248   3.186  14.586  0.7246  0.6748  1.5077
 7471TIP3    H243905   6.218   3.334  14.575  0.7360  0.5158 -1.0280
 7472TIP3   OH243906   0.982   0.791   2.790  0.1022  0.0631 -0.0353
 7472TIP3    H143907   0.891   0.810   2.813  0.0885 -0.6838  0.5760
 7472TIP3    H243908   1.023   0.768   2.874  1.2130  1.7793 -0.0822
 7473TIP3   OH243909   0.857   1.567   3.901 -0.0629 -0.2560 -0.0926
 7473TIP3    H143910   0.864   1.589   3.808 -1.0655  0.1851 -0.0720
 7473TIP3    H243911   0.936   1.605   3.940  0.3244 -0.3731 -0.7461
 7474TIP3   OH243912   3.249   0.706   1.018  0.0571 -0.4042  0.2732
 7474TIP3    H143913   3.274   0.759   1.093  0.0429 -1.1407  0.7976
 7474TIP3    H243914   3.174   0.752   0.980  0.7284  0.5462  0.0675
 7475TIP3   OH243915   5.957   3.749  13.762  0.0743  0.6341  0.0758
 7475TIP3    H143916   5.963   3.661  13.724  0.1924  0.7381 -0.1457
 7475TIP3    H243917   6.033   3.755  13.820  1.1836  1.3203 -1.4248
 7476TIP3   OH243918   1.127   4.136   2.630 -0.2219  0.1363  0.0908
 7476TIP3    H143919   1.167   4.216   2.663 -1.6651  0.2071  1.7574
 7476TIP3    H243920   1.131   4.075   2.704 -0.5938 -0.7813 -0.6362
 7477TIP3   OH243921   4.675   3.038  12.636 -0.8025 -0.2109  0.3488
 7477TIP3    H143922   4.736   3.091  12.586  0.4794  0.4465  2.5615
 7477TIP3    H243923   4.691   2.948  12.607 -0.5440  0.2320 -0.8769
 7478TIP3   OH243924   4.826   2.770   4.537 -0.4860  0.0507  0.4060
 7478TIP3    H143925   4.799   2.728   4.618 -2.0725  0.4728  0.1353
 7478TIP3    H243926   4.795   2.861   4.546 -1.4160 -0.1108 -0.9787
 7479TIP3   OH243927   0.786   1.221   5.990  0.4513 -0.1937 -0.2315
 7479TIP3    H143928   0.729   1.234   5.914  0.4785  1.3650 -0.0020
 7479TIP3    H243929   0.768   1.131   6.018 -1.8435  0.2289 -0.2066
 7480TIP3   OH243930   3.314   6.784   5.366 -0.0862  0.0714  0.6297
 7480TIP3    H143931   3.360   6.775   5.450  0.2751  0.6253  0.4989
 7480TIP3    H243932   3.311   6.879   5.351 -0.2092 -0.0224  0.0487
 7481TIP3   OH243933   4.761   4.894  14.242  0.3375 -0.0974  0.0764
 7481TIP3    H143934   4.694   4.833  14.274  1.2118 -0.7137  0.7489
 7481TIP3    H243935   4.742   4.903  14.149 -1.7052  1.0376  0.5482
 7482TIP3   OH243936   0.879   3.667   3.568  0.2928  0.1572  0.4709
 7482TIP3    H143937   0.831   3.616   3.503  0.9619 -0.4010  0.4140
 7482TIP3    H243938   0.827   3.659   3.648  0.4754 -0.7440  0.5060
 7483TIP3   OH243939   1.996   3.545   5.719  0.1314 -0.0560 -0.4174
 7483TIP3    H143940   1.961   3.456   5.728 -0.0470  0.1294  0.7302
 7483TIP3    H243941   2.028   3.549   5.628 -0.0290 -1.2266 -0.5296
 7484TIP3   OH243942   2.606   4.409   4.853 -0.1455 -0.2349 -0.1073
 7484TIP3    H143943   2.647   4.406   4.940 -2.2012 -0.8741  0.8594
 7484TIP3    H243944   2.540   4.340   4.855 -1.8338  1.2939 -1.3387
 7485TIP3   OH243945   5.174   2.098  17.264 -0.4732  0.4679  0.6672
 7485TIP3    H143946   5.137   2.175  17.222 -1.4139 -0.0207  0.5926
 7485TIP3    H243947   5.139   2.024  17.214  2.0165  0.0425 -0.5332
 7486TIP3   OH243948   2.455   6.235   1.214  0.4696  0.0805  0.1265
 7486TIP3    H143949   2.501   6.236   1.298 -0.5755  0.2318  0.7015
 7486TIP3    H243950   2.437   6.143   1.198  0.1753  0.1002  0.3424
 7487TIP3   OH243951   4.736   2.089   4.184 -0.2505  0.9058  0.1386
 7487TIP3    H143952   4.726   2.016   4.122  3.1009  2.4601 -2.3418
 7487TIP3    H243953   4.710   2.166   4.134  0.6672  1.9584  1.2668
 7488TIP3   OH243954   6.671   4.276  11.093  0.2159 -0.3060  0.2424
 7488TIP3    H143955   6.701   4.206  11.035 -0.1374 -1.8789  1.8834
 7488TIP3    H243956   6.586   4.301  11.058 -0.6576 -2.2608  0.9015
 7489TIP3   OH243957   6.092   0.148   0.571  0.3408  0.0474  0.8577
 7489TIP3    H143958   6.062   0.059   0.589 -0.5503  0.5864  2.1135
 7489TIP3    H243959   6.187   0.142   0.574  0.4837 -1.7703 -3.6085
 7490TIP3   OH243960   0.953   1.585  11.835  0.2472 -0.7331  0.6436
 7490TIP3    H143961   0.888   1.545  11.777 -1.4221 -0.1305  2.0604
 7490TIP3    H243962   1.017   1.623  11.776 -0.9032 -0.9860 -0.8026
 7491TIP3   OH243963   6.188   2.897  15.270  0.0967 -0.1546 -0.1268
 7491TIP3    H143964   6.116   2.899  15.206 -0.3382  1.4507  0.3862
 7491TIP3    H243965   6.180   2.811  15.312 -2.3258  0.4823  0.7988
 7492TIP3   OH243966   1.003   5.566   2.148  0.2680  0.2838  0.0726
 7492TIP3    H143967   0.915   5.541   2.178 -0.2073  0.5177 -1.1098
 7492TIP3    H243968   1.030   5.635   2.208 -0.2021 -0.0521  0.6713
 7493TIP3   OH243969   2.158   1.773  15.627 -0.1215 -0.2323  0.3168
 7493TIP3    H143970   2.068   1.798  15.648  0.3414  1.0433  0.8408
 7493TIP3    H243971   2.165   1.682  15.656 -0.5178  0.4219  2.5902
 7494TIP3   OH243972   5.066   1.148  11.392 -0.7365 -0.5972  0.3936
 7494TIP3    H143973   5.041   1.151  11.299 -1.2215 -1.8301  0.4774
 7494TIP3    H243974   4.998   1.199  11.436 -0.0960  0.6268 -0.0044
 7495TIP3   OH243975   5.287   3.441  16.278  0.1029  0.0503 -0.6306
 7495TIP3    H143976   5.358   3.385  16.245  0.0021  0.5251 -1.6613
 7495TIP3    H243977   5.277   3.509  16.212 -1.6414 -0.2692 -0.7171
 7496TIP3   OH243978   4.062   6.483  10.669 -0.0479  0.0367 -0.7334
 7496TIP3    H143979   3.979   6.508  10.710 -0.4766 -0.4758 -1.2903
 7496TIP3    H243980   4.127   6.499  10.737 -0.8089 -1.1778  0.2913
 7497TIP3   OH243981   2.813   2.603   5.571  0.1309  0.3116  1.0668
 7497TIP3    H143982   2.834   2.667   5.640  1.3818 -1.3690  2.2864
 7497TIP3    H243983   2.782   2.526   5.618  0.2910 -0.6012 -0.2966
 7498TIP3   OH243984   4.828   5.974   0.919 -0.3528 -0.3802 -0.7556
 7498TIP3    H143985   4.746   5.969   0.967  0.1994  0.0801  0.2598
 7498TIP3    H243986   4.815   6.044   0.855 -0.4642  0.2742 -0.0252
 7499TIP3   OH243987   6.093   0.728   0.660 -0.1593  0.2868 -0.1350
 7499TIP3    H143988   6.186   0.707   0.653 -0.7262 -1.9484 -1.2186
 7499TIP3    H243989   6.072   0.712   0.752  0.5483  0.9694  0.1536
 7500TIP3   OH243990   5.262   3.031  14.992  0.2607 -0.0293  0.3099
 7500TIP3    H143991   5.349   3.063  15.012  0.2634 -0.3043  0.7322
 7500TIP3    H243992   5.244   2.965  15.059  0.6446 -1.6256 -1.1163
 7501TIP3   OH243993   1.777   4.513  13.194 -0.0858  0.0796  0.4275
 7501TIP3    H143994   1.862   4.525  13.151 -0.7860 -0.6888 -1.2418
 7501TIP3    H243995   1.791   4.542  13.284  1.3281  2.0924 -0.4126
 7502TIP3   OH243996   4.639   0.331  11.856 -0.3032 -0.1971 -1.1054
 7502TIP3    H143997   4.651   0.237  11.841 -3.0767 -0.5839 -1.1180
 7502TIP3    H243998   4.599   0.337  11.943  1.4713  1.1309 -0.3245
 7503TIP3   OH243999   5.449   2.726  15.590  0.1196 -0.4398 -0.4557
 7503TIP3    H144000   5.404   2.743  15.672  0.3232 -0.2000 -0.3970
 7503TIP3    H244001   5.428   2.801  15.534  0.2612 -0.4368 -0.5054
 7504TIP3   OH244002   5.732   1.166   0.334  0.0431 -0.0483  0.0967
 7504TIP3    H144003   5.806   1.182   0.275 -0.3335 -0.2859 -0.4462
 7504TIP3    H244004   5.724   1.247   0.385 -0.1252  0.4771 -0.7396
 7505TIP3   OH244005   3.463   3.243   3.840 -0.2479 -0.0920 -0.4713
 7505TIP3    H144006   3.499   3.312   3.896 -1.3442 -0.8710  1.2354
 7505TIP3    H244007   3.450   3.285   3.755  0.7259  1.3182  0.0601
 7506TIP3   OH244008   5.111   1.964   1.068 -0.7981 -0.0944 -0.6793
 7506TIP3    H144009   5.191   1.987   1.115 -0.9432  1.7379 -1.2939
 7506TIP3    H244010   5.075   1.890   1.117  0.9806 -0.5972 -0.0891
 7507TIP3   OH244011   5.947   6.781   5.781 -0.1619  0.4937 -0.5936
 7507TIP3    H144012   6.017   6.756   5.841 -0.9100 -0.4857 -0.1206
 7507TIP3    H244013   5.887   6.833   5.834 -0.3390  0.4343 -0.7348
 7508TIP3   OH244014   3.356   6.772   5.072 -0.0779 -0.1617 -0.3892
 7508TIP3    H144015   3.333   6.794   5.162 -1.2926 -1.6677 -0.3129
 7508TIP3    H244016   3.429   6.711   5.079 -0.7536 -0.9799 -0.3807
 7509TIP3   OH244017   3.233   5.924  12.977 -0.0562 -0.4323 -0.3243
 7509TIP3    H144018   3.297   5.992  12.997  0.0931 -0.6105 -0.1960
 7509TIP3    H244019   3.285   5.845  12.962 -0.2623 -0.6438  0.0604
 7510TIP3   OH244020   1.457   6.658   3.397 -0.0172 -0.7440  0.1869
 7510TIP3    H144021   1.479   6.748   3.417 -0.4962 -0.8012  0.9733
 7510TIP3    H244022   1.470   6.651   3.302  1.2747 -0.2154  0.3115
 7511TIP3   OH244023   5.062   3.350  13.918 -0.2083  0.0633  0.3536
 7511TIP3    H144024   5.122   3.280  13.943 -1.6244 -1.1373  0.5053
 7511TIP3    H244025   5.039   3.393  14.001  0.1986  0.3217  0.3320
 7512TIP3   OH244026   0.057   3.264  14.323  0.5843  0.0396  0.6732
 7512TIP3    H144027   0.003   3.281  14.399 -2.2385 -2.8477 -0.5790
 7512TIP3    H244028   0.096   3.178  14.340  1.2683  0.1307 -0.3885
 7513TIP3   OH244029   3.238   4.722  11.445 -0.7611 -0.0837 -0.5182
 7513TIP3    H144030   3.308   4.668  11.484  0.0813  2.1010  1.1471
 7513TIP3    H244031   3.168   4.660  11.425  1.2324 -2.1837 -1.2099
 7514TIP3   OH244032   1.674   5.745   5.536  0.2125 -0.2432 -0.1243
 7514TIP3    H144033   1.622   5.763   5.614 -1.2457  1.5103 -1.4680
 7514TIP3    H244034   1.628   5.673   5.492 -1.4384  1.6647 -1.5920
 7515TIP3   OH244035   1.033   5.889  15.922  0.0153 -0.6154 -0.5984
 7515TIP3    H144036   1.051   5.941  16.001  0.7397  0.1560 -1.2482
 7515TIP3    H244037   0.946   5.917  15.894  0.1206 -0.2403 -0.5586
 7516TIP3   OH244038   2.567   4.131   3.901  0.2831  0.1749 -0.6490
 7516TIP3    H144039   2.589   4.155   3.991  0.3657  0.1271 -0.6565
 7516TIP3    H244040   2.480   4.169   3.886  0.7702  1.1712 -0.9470
 7517TIP3   OH244041   0.165   5.266  11.272 -0.6598 -1.2419  0.7033
 7517TIP3    H144042   0.103   5.330  11.308 -0.9824 -0.9651 -0.3328
 7517TIP3    H244043   0.118   5.226  11.200  0.1538 -1.4682  0.2978
 7518TIP3   OH244044   6.618   5.385  12.770 -0.0343  0.0657  0.4080
 7518TIP3    H144045   6.537   5.426  12.740  0.5109  1.3182  0.6233
 7518TIP3    H244046   6.629   5.308  12.714 -2.8179 -1.6927  2.1792
 7519TIP3   OH244047   5.085   2.183   0.725 -0.3587  0.6009 -0.2483
 7519TIP3    H144048   5.176   2.199   0.699  0.1927 -2.9207 -0.7234
 7519TIP3    H244049   5.032   2.226   0.658  0.9923  0.3659 -1.4755
 7520TIP3   OH244050   4.886   4.614  15.789 -0.0353  0.0566  0.1013
 7520TIP3    H144051   4.901   4.561  15.711 -3.1423  0.1178 -0.6103
 7520TIP3    H244052   4.963   4.599  15.844  1.0372 -1.9362 -1.8785
 7521TIP3   OH244053   0.642   1.645  15.939 -0.2678 -0.5308  0.1839
 7521TIP3    H144054   0.694   1.699  15.879 -1.2494  1.2522  0.9139
 7521TIP3    H244055   0.708   1.599  15.991  0.6276  2.1412  1.4862
 7522TIP3   OH244056   0.544   1.886  14.358 -0.1602 -0.0056  0.4876
 7522TIP3    H144057   0.510   1.905  14.270 -2.1174  2.1019  1.6583
 7522TIP3    H244058   0.637   1.911  14.353  0.3563 -2.1379 -1.6299
 7523TIP3   OH244059   4.526   5.734   4.402  0.0553 -0.2843  0.4645
 7523TIP3    H144060   4.544   5.644   4.430 -1.2235 -0.6647  0.0996
 7523TIP3    H244061   4.535   5.786   4.482  2.2142 -0.5084  0.4034
 7524TIP3   OH244062   5.280   2.954   3.121  0.4348 -0.7316  0.0438
 7524TIP3    H144063   5.305   2.948   3.213  2.1242  2.8085 -0.1262
 7524TIP3    H244064   5.350   3.004   3.080 -2.6449  1.9124 -2.2182
 7525TIP3   OH244065   2.428   3.861   0.306  0.1529  0.2071  0.1056
 7525TIP3    H144066   2.387   3.835   0.223 -0.2851 -2.1929  1.0452
 7525TIP3    H244067   2.455   3.778   0.346  2.7244  1.5067  1.1611
 7526TIP3   OH244068   4.083   3.630  16.352  0.8389 -0.1354 -0.3879
 7526TIP3    H144069   4.046   3.587  16.274 -0.4574 -1.3256  0.8419
 7526TIP3    H244070   4.159   3.577  16.374 -0.3689 -1.4527  0.7321
 7527TIP3   OH244071   0.322   2.895  11.505 -0.7645  0.4964  0.2508
 7527TIP3    H144072   0.241   2.945  11.495 -0.4189  1.5388  2.4434
 7527TIP3    H244073   0.382   2.933  11.441 -1.8312  0.0205 -1.0698
 7528TIP3   OH244074   6.283   1.547   0.813  0.3186  0.6149 -0.4981
 7528TIP3    H144075   6.322   1.624   0.855  0.6726  0.8449 -1.2530
 7528TIP3    H244076   6.247   1.579   0.731  0.0751  0.0614 -0.6107
 7529TIP3   OH244077   2.229   4.373  13.967 -0.1991 -0.1724 -0.4964
 7529TIP3    H144078   2.149   4.424  13.982 -0.6035 -0.7994 -0.5192
 7529TIP3    H244079   2.277   4.424  13.901  0.2557  1.1132  0.8082
 7530TIP3   OH244080   3.502   1.252  11.916  0.0451 -0.5382  0.4398
 7530TIP3    H144081   3.567   1.322  11.929  0.4448 -1.1309  1.6735
 7530TIP3    H244082   3.520   1.219  11.828  0.6739  0.0759  0.3355
 7531TIP3   OH244083   5.610   1.915  16.007 -0.0063  0.6602 -0.2139
 7531TIP3    H144084   5.627   2.005  16.033 -0.3234  0.5012  0.5653
 7531TIP3    H244085   5.515   1.906  16.010  0.0774 -0.0480  0.9584
 7532TIP3   OH244086   6.676   2.821  16.888 -0.5742 -0.2108  0.3081
 7532TIP3    H144087   6.767   2.844  16.907 -0.2463 -0.9222 -0.3643
 7532TIP3    H244088   6.664   2.735  16.928  0.0365 -1.5860 -2.4075
 7533TIP3   OH244089   1.537   1.517   0.371  0.2370 -0.3011  0.0064
 7533TIP3    H144090   1.562   1.488   0.459 -1.2976  0.5370  0.7489
 7533TIP3    H244091   1.528   1.612   0.380  0.4991 -0.1631 -1.1738
 7534TIP3   OH244092   5.018   5.298   4.146  0.1641 -0.6066 -0.4514
 7534TIP3    H144093   4.926   5.303   4.172  0.0119 -0.3806 -1.0397
 7534TIP3    H244094   5.034   5.205   4.130  0.0877 -0.6672 -0.1788
 7535TIP3   OH244095   5.265   0.109   4.193  0.2325  0.2804  0.3766
 7535TIP3    H144096   5.206   0.129   4.121 -1.4465 -0.7917  1.4017
 7535TIP3    H244097   5.322   0.186   4.200 -0.5533  1.0165 -1.1344
 7536TIP3   OH244098   5.204   4.767  12.945  0.4719  0.1018 -0.3602
 7536TIP3    H144099   5.131   4.705  12.937  0.4317  0.2757 -1.4342
 7536TIP3    H244100   5.162   4.850  12.970  0.4400 -0.1008  0.2699
 7537TIP3   OH244101   2.991   0.082   0.196 -0.3075 -0.2996 -0.2757
 7537TIP3    H144102   2.913   0.111   0.149  0.5556  1.8693 -0.4467
 7537TIP3    H244103   3.054   0.058   0.128  0.2604  0.9709 -0.2100
 7538TIP3   OH244104   6.262   6.779   2.080  0.5350 -0.3339  0.5018
 7538TIP3    H144105   6.262   6.829   2.162  0.5590  0.0668  0.2584
 7538TIP3    H244106   6.327   6.710   2.094  1.8163  0.7735  0.1991
 7539TIP3   OH244107   3.238   3.706  14.425 -0.2138  0.0549  0.2824
 7539TIP3    H144108   3.175   3.720  14.354 -0.3107  0.7474  0.5003
 7539TIP3    H244109   3.252   3.611  14.426  0.1177  0.0810 -0.9502
 7540TIP3   OH244110   2.624   3.110  13.412  0.0387  0.2552 -0.1931
 7540TIP3    H144111   2.560   3.060  13.362 -0.9834  0.7647  0.5878
 7540TIP3    H244112   2.636   3.191  13.363  0.8846 -0.2802 -0.8894
 7541TIP3   OH244113   5.157   1.060  15.630  0.3955 -0.0880 -0.0239
 7541TIP3    H144114   5.075   1.011  15.635  0.0545  0.5787  1.1228
 7541TIP3    H244115   5.180   1.060  15.537 -0.7485 -0.5392 -0.3087
 7542TIP3   OH244116   6.088   2.012  11.290 -0.0110 -0.4841  0.3992
 7542TIP3    H144117   6.133   1.966  11.220 -1.1930 -0.4952 -0.3696
 7542TIP3    H244118   6.009   1.960  11.306 -1.0353  0.8916 -0.0328
 7543TIP3   OH244119   6.764   4.145   6.950  0.1209 -0.2030  0.1240
 7543TIP3    H144120   6.782   4.205   6.878 -1.8212 -0.3656 -0.5065
 7543TIP3    H244121   6.847   4.098   6.964  0.5933  0.0455 -1.7893
 7544TIP3   OH244122   3.018   2.170  15.583  0.3287  0.1165 -0.3596
 7544TIP3    H144123   3.075   2.241  15.612 -0.1639 -0.6280  2.6060
 7544TIP3    H244124   3.062   2.090  15.613 -0.7472 -0.6294 -0.7395
 7545TIP3   OH244125   1.730   5.769  15.193 -0.0162 -0.1348  0.4250
 7545TIP3    H144126   1.698   5.686  15.230  0.9297 -1.2861 -1.2527
 7545TIP3    H244127   1.669   5.835  15.227 -0.4228 -1.4065  2.3117
 7546TIP3   OH244128   4.347   0.562   4.188  0.3879  0.1984  0.1570
 7546TIP3    H144129   4.316   0.475   4.213 -1.3753  1.1377  1.3393
 7546TIP3    H244130   4.442   0.554   4.189  0.2578 -1.5543  0.8528
 7547TIP3   OH244131   1.186   0.396  11.818  0.1109  0.5977 -0.6478
 7547TIP3    H144132   1.213   0.482  11.786 -4.0383  1.5076 -1.9463
 7547TIP3    H244133   1.159   0.411  11.909 -0.9560  0.7860 -0.9842
 7548TIP3   OH244134   6.485   6.017   3.525 -0.5913 -0.7070 -0.4300
 7548TIP3    H144135   6.390   6.026   3.516 -0.5294 -0.1135 -0.4873
 7548TIP3    H244136   6.521   6.086   3.470 -0.1415 -0.1377  0.5662
 7549TIP3   OH244137   0.004   1.341   5.028 -0.0101  0.1877  0.4724
 7549TIP3    H144138   0.057   1.282   5.082  1.0729  1.7298  1.1305
 7549TIP3    H244139   0.045   1.337   4.942  0.1074  0.0412  0.5345
 7550TIP3   OH244140   0.161   6.697   4.754 -0.0178  0.7046  0.5711
 7550TIP3    H144141   0.194   6.658   4.673 -0.7968  0.2931  0.4437
 7550TIP3    H244142   0.066   6.681   4.751  0.1701 -0.9508  2.4271
 7551TIP3   OH244143   2.471   3.651   0.468 -0.1408  0.3278 -0.2845
 7551TIP3    H144144   2.528   3.657   0.545  0.4954  1.6862 -0.8384
 7551TIP3    H244145   2.454   3.558   0.458  1.6574 -0.0617  0.1434
 7552TIP3   OH244146   6.607   3.334   2.486  0.4839  0.1005 -0.4830
 7552TIP3    H144147   6.612   3.290   2.401 -0.1381 -0.3949 -0.2666
 7552TIP3    H244148   6.567   3.270   2.544  0.3435  0.6538  0.0386
 7553TIP3   OH244149   1.744   4.851  15.214  0.1339  0.1322 -1.0704
 7553TIP3    H144150   1.716   4.759  15.219  1.1526 -0.2936 -2.7865
 7553TIP3    H244151   1.744   4.871  15.120 -1.0255  2.2071 -0.6463
 7554TIP3   OH244152   4.059   3.056   5.968 -0.2454  0.7717  0.0316
 7554TIP3    H144153   4.139   3.106   5.954 -0.0375  0.3164 -0.4184
 7554TIP3    H244154   4.012   3.104   6.036  0.1992  1.2851 -0.0248
 7555TIP3   OH244155   2.578   2.603   4.240 -0.0759 -0.3584  0.2686
 7555TIP3    H144156   2.492   2.607   4.198  0.1786 -0.6544 -0.2941
 7555TIP3    H244157   2.592   2.510   4.256  0.1310 -0.3065  0.3883
 7556TIP3   OH244158   3.524   5.212   3.308  0.0345 -0.0391  0.5637
 7556TIP3    H144159   3.523   5.117   3.318 -2.1529  0.2140  3.2352
 7556TIP3    H244160   3.569   5.245   3.386  0.4485  1.1362 -0.1529
 7557TIP3   OH244161   2.979   2.133  15.300  0.6017 -0.1335 -0.7104
 7557TIP3    H144162   2.988   2.153  15.393 -0.3706  0.7381 -0.7957
 7557TIP3    H244163   2.959   2.040  15.297 -0.6664  0.0980  0.0296
 7558TIP3   OH244164   5.134   0.364  10.823  0.1837 -0.7083 -0.3359
 7558TIP3    H144165   5.133   0.449  10.867  0.9562 -0.8794  0.0376
 7558TIP3    H244166   5.077   0.375  10.747 -0.6628 -0.2098  0.3533
 7559TIP3   OH244167   6.488   2.774  14.716  0.1755  0.0099 -0.9768
 7559TIP3    H144168   6.479   2.830  14.639 -1.1775  1.7994  0.4366
 7559TIP3    H244169   6.551   2.820  14.772  0.0685 -0.5627 -0.3809
 7560TIP3   OH244170   4.199   3.724   0.761 -0.1028 -0.0204  0.3188
 7560TIP3    H144171   4.114   3.690   0.733  0.4768 -1.5857  0.3877
 7560TIP3    H244172   4.245   3.743   0.680  0.5719 -1.9968  0.2170
 7561TIP3   OH244173   5.110   2.088   3.265  0.2283  0.3300  0.0524
 7561TIP3    H144174   5.196   2.075   3.226 -0.1188  0.8251 -0.9009
 7561TIP3    H244175   5.126   2.086   3.360  1.0465 -1.1090 -0.1011
 7562TIP3   OH244176   3.991   4.093   2.287 -0.1071  0.1514 -0.0943
 7562TIP3    H144177   4.078   4.056   2.281  0.4453  1.4208 -0.0744
 7562TIP3    H244178   3.933   4.018   2.298  0.9818 -0.6900 -0.0985
 7563TIP3   OH244179   1.537   0.183   2.305  0.0227  0.2213 -0.5823
 7563TIP3    H144180   1.457   0.191   2.253  0.3880  0.5854 -1.0907
 7563TIP3    H244181   1.517   0.228   2.387 -1.2434 -2.0513  0.4256
 7564TIP3   OH244182   3.525   3.875  15.633  0.6412 -0.1547 -0.4209
 7564TIP3    H144183   3.602   3.842  15.587  1.1164 -0.4157  0.5497
 7564TIP3    H244184   3.509   3.961  15.595  0.7594 -0.5530 -1.3815
 7565TIP3   OH244185   0.878   0.936   3.371 -0.0885  0.1275 -0.0488
 7565TIP3    H144186   0.912   1.011   3.420 -0.1316  0.3920 -0.4244
 7565TIP3    H244187   0.832   0.884   3.436  0.5631  0.0522  0.3634
 7566TIP3   OH244188   0.394   5.489  15.741 -0.2012  0.3586 -0.2822
 7566TIP3    H144189   0.410   5.406  15.785 -0.0284  1.1257  1.1193
 7566TIP3    H244190   0.471   5.502  15.685  0.4822  0.3280  0.6551
 7567TIP3   OH244191   4.432   0.876   2.315  0.4449 -0.1428  0.1300
 7567TIP3    H144192   4.477   0.900   2.395 -0.7390  0.9100  0.4957
 7567TIP3    H244193   4.339   0.876   2.338  0.3416 -5.1087  0.1363
 7568TIP3   OH244194   3.348   0.079  14.512  0.2253 -0.1123  0.2860
 7568TIP3    H144195   3.356   0.171  14.536  0.3362 -0.0826  0.1423
 7568TIP3    H244196   3.433   0.041  14.534 -0.4832 -0.6179  2.1675
 7569TIP3   OH244197   2.306   5.078  10.887  0.6996 -0.3176  0.2847
 7569TIP3    H144198   2.282   5.170  10.884  1.0488 -0.2105  0.6059
 7569TIP3    H244199   2.233   5.035  10.931  0.4587 -0.2219 -0.0219
 7570TIP3   OH244200   2.960   5.081  12.509  0.0147  0.2819 -0.1602
 7570TIP3    H144201   2.948   5.157  12.452 -0.0702 -0.0378 -0.5671
 7570TIP3    H244202   3.055   5.073  12.518  0.0399  0.1181 -0.5456
 7571TIP3   OH244203   2.036   5.764  10.751  0.0611 -0.0057 -0.1784
 7571TIP3    H144204   2.008   5.721  10.671 -1.0591  1.6455 -0.7058
 7571TIP3    H244205   2.065   5.851  10.723 -0.0534  0.4831  1.1447
 7572TIP3   OH244206   4.441   4.762   3.682  0.2996  0.5269  0.2621
 7572TIP3    H144207   4.354   4.773   3.643 -0.8436 -0.6884  2.3896
 7572TIP3    H244208   4.449   4.835   3.743  0.6387  0.4422  0.3188
 7573TIP3   OH244209   0.784   0.314   0.239  0.6630  0.3454  0.0631
 7573TIP3    H144210   0.719   0.354   0.296 -2.3221  1.3767 -3.8848
 7573TIP3    H244211   0.742   0.235   0.205  0.8596  1.7082 -3.5403
 7574TIP3   OH244212   4.698   0.866  15.681  0.0288 -0.1982 -0.2764
 7574TIP3    H144213   4.730   0.840  15.767 -0.0648 -0.3425 -0.2865
 7574TIP3    H244214   4.642   0.942  15.698 -1.2344 -1.1758 -0.0444
 7575TIP3   OH244215   1.727   5.423   5.228  0.4264  0.8666 -0.3232
 7575TIP3    H144216   1.674   5.412   5.307  0.3884  2.9825 -0.0170
 7575TIP3    H244217   1.817   5.411   5.259  0.2711 -0.7735 -0.4614
 7576TIP3   OH244218   1.273   0.030   1.712  0.1678 -0.4011  0.3115
 7576TIP3    H144219   1.327  -0.048   1.723  0.1926 -0.6788 -1.6331
 7576TIP3    H244220   1.183  -0.001   1.724  0.2813 -0.4227  1.0954
 7577TIP3   OH244221   3.933   2.996   1.056  0.3822  0.1494  0.2769
 7577TIP3    H144222   3.935   2.901   1.052  0.6552  0.1614  0.1715
 7577TIP3    H244223   3.844   3.019   1.028 -0.3750 -0.1759  2.3688
 7578TIP3   OH244224   1.401   6.616   1.707 -0.1644  0.1001  0.0508
 7578TIP3    H144225   1.465   6.561   1.752 -0.1072  0.7933  0.8210
 7578TIP3    H244226   1.321   6.564   1.707  0.8818 -1.7013 -2.8071
 7579TIP3   OH244227   4.078   1.455  16.229  0.2735  0.0520 -0.0544
 7579TIP3    H144228   4.120   1.539  16.209  2.3277 -0.9602 -0.1277
 7579TIP3    H244229   4.138   1.390  16.193 -1.9365 -1.4260 -1.1339
 7580TIP3   OH244230   2.658   0.250   5.290 -0.3327 -0.7604 -0.3727
 7580TIP3    H144231   2.614   0.239   5.205  2.3273 -0.2130 -1.8562
 7580TIP3    H244232   2.615   0.326   5.329 -1.7899 -1.1933 -1.0862
 7581TIP3   OH244233   0.801   4.541   1.660 -0.1362  0.2201 -0.6282
 7581TIP3    H144234   0.823   4.450   1.640  1.1837  0.5328 -0.6650
 7581TIP3    H244235   0.758   4.572   1.580 -0.1423 -0.2340 -0.8058
 7582TIP3   OH244236   0.287   2.683   1.056 -0.1512  0.7155 -0.1696
 7582TIP3    H144237   0.278   2.775   1.081 -0.4321  0.3948  0.9199
 7582TIP3    H244238   0.200   2.656   1.028 -0.0781  0.7623 -0.4484
 7583TIP3   OH244239   3.003   0.249   4.086  0.1717 -0.3550  0.4426
 7583TIP3    H144240   2.917   0.212   4.103  0.7654 -1.2011  1.7430
 7583TIP3    H244241   2.997   0.340   4.114 -0.9131  0.2057 -1.5179
 7584TIP3   OH244242   1.257   5.306  11.025  0.1440 -0.2390  0.1993
 7584TIP3    H144243   1.202   5.227  11.026 -2.7744  1.7181  0.5779
 7584TIP3    H244244   1.231   5.353  10.946  0.2833  1.3756  1.0916
 7585TIP3   OH244245   6.627   3.622  17.111  0.2204 -0.1186  0.1645
 7585TIP3    H144246   6.551   3.645  17.163  0.4703  0.5201  0.2526
 7585TIP3    H244247   6.694   3.598  17.174  0.3845  0.2330  0.1330
 7586TIP3   OH244248   5.112   6.201   0.439 -0.4656 -0.4314 -0.0346
 7586TIP3    H144249   5.064   6.170   0.517 -0.9546 -0.3468 -0.2988
 7586TIP3    H244250   5.177   6.262   0.474 -0.1467 -1.0034  0.3909
 7587TIP3   OH244251   3.797   3.940   0.561  0.3691  0.0188 -0.1755
 7587TIP3    H144252   3.785   3.907   0.650  4.7066 -2.0121 -0.2325
 7587TIP3    H244253   3.724   3.903   0.512  1.6199 -4.5628  1.1604
 7588TIP3   OH244254   4.879   2.514  10.967 -0.1146  0.7691  0.2018
 7588TIP3    H144255   4.890   2.430  10.922 -2.9355  0.6927 -0.4347
 7588TIP3    H244256   4.962   2.560  10.952  1.8272 -2.2135  1.3425
 7589TIP3   OH244257   1.376   2.337  11.008 -0.1792  0.6025 -0.1655
 7589TIP3    H144258   1.415   2.305  10.926  2.7273 -3.0217  2.4661
 7589TIP3    H244259   1.294   2.287  11.016  1.0355 -1.3381  0.5778
 7590TIP3   OH244260   4.099   1.922  14.803  0.3141 -0.3100 -0.5420
 7590TIP3    H144261   4.031   1.859  14.778  0.9056 -1.5926  0.9730
 7590TIP3    H244262   4.175   1.868  14.824  0.8731  0.9198  0.6728
 7591TIP3   OH244263   1.115   5.452   4.242  0.6114  0.2168  0.3284
 7591TIP3    H144264   1.056   5.452   4.166  2.2729  0.3404 -0.9986
 7591TIP3    H244265   1.166   5.372   4.231  0.4703 -0.0659  1.6624
 7592TIP3   OH244266   6.455   1.782   4.140 -0.2692 -0.4691  0.1911
 7592TIP3    H144267   6.425   1.710   4.197  1.0310 -0.1291  1.3386
 7592TIP3    H244268   6.543   1.755   4.112  0.2302  0.6769  0.6401
 7593TIP3   OH244269   0.299   1.222  13.719 -0.8791 -0.2869  0.0967
 7593TIP3    H144270   0.294   1.175  13.802 -1.6113  2.4292  1.6439
 7593TIP3    H244271   0.236   1.176  13.662 -3.2720  0.1741  2.2924
 7594TIP3   OH244272   4.565   5.610   2.878  0.1069 -0.2303 -0.1160
 7594TIP3    H144273   4.579   5.677   2.811 -2.2359  0.2352 -0.1806
 7594TIP3    H244274   4.549   5.529   2.828 -0.9236 -0.0347 -0.0954
 7595TIP3   OH244275   3.798   3.798   1.130 -0.1842 -1.0857  0.0213
 7595TIP3    H144276   3.887   3.817   1.162  0.3915 -2.5048 -0.7080
 7595TIP3    H244277   3.746   3.873   1.159  1.5754  0.5360 -0.8888
 7596TIP3   OH244278   1.613   3.140  15.320  0.0605 -0.0008  0.9750
 7596TIP3    H144279   1.579   3.060  15.281  0.6065  0.0304  0.4312
 7596TIP3    H244280   1.606   3.126  15.415 -1.9367  0.2180  0.8666
 7597TIP3   OH244281   5.877   5.190  13.547 -0.3576  0.1350 -0.2058
 7597TIP3    H144282   5.874   5.213  13.639  0.0921 -0.2675 -0.0906
 7597TIP3    H244283   5.785   5.187  13.520 -0.5632 -1.2977  0.6195
 7598TIP3   OH244284   0.054   5.118   0.046 -0.1649 -0.1227 -0.2181
 7598TIP3    H144285   0.006   5.201   0.040  1.8492  1.0133 -1.2678
 7598TIP3    H244286   0.108   5.128   0.124  0.5999 -0.1631 -0.7424
 7599TIP3   OH244287   0.327   1.513  14.720  0.2767  0.2025  0.1935
 7599TIP3    H144288   0.343   1.571  14.795  0.2145 -2.0700  2.0135
 7599TIP3    H244289   0.380   1.550  14.649  2.4682  0.8523  2.1270
 7600TIP3   OH244290   5.570   6.785   0.518 -0.0678  0.0471  0.0669
 7600TIP3    H144291   5.495   6.835   0.549 -0.1590 -0.4517  0.6734
 7600TIP3    H244292   5.605   6.836   0.445 -0.1338  1.0146  0.6993
 7601TIP3   OH244293   4.988   2.308  15.051  0.2046 -0.6832 -0.3891
 7601TIP3    H144294   4.960   2.305  15.143  2.6163  2.5045  0.5140
 7601TIP3    H244295   4.912   2.345  15.005  0.3841  1.4231  0.9509
 7602TIP3   OH244296   3.308   0.129   2.472  0.1407  0.2157  0.0319
 7602TIP3    H144297   3.391   0.091   2.443  0.8967  2.1673 -0.5189
 7602TIP3    H244298   3.332   0.182   2.548 -0.9917 -0.9265  1.2076
 7603TIP3   OH244299   1.438   6.685   4.955  0.4373 -0.3686 -0.3729
 7603TIP3    H144300   1.439   6.781   4.963  1.7877 -0.3600 -0.5342
 7603TIP3    H244301   1.415   6.668   4.864 -0.4356 -0.2122 -0.1853
 7604TIP3   OH244302   2.309   4.210  13.191 -0.4350 -0.7183  0.3558
 7604TIP3    H144303   2.317   4.305  13.179  1.5979 -0.4882  3.0759
 7604TIP3    H244304   2.218   4.197  13.218 -0.6046  0.4967  0.3935
 7605TIP3   OH244305   3.737   5.526  15.013  0.1659  0.1273 -0.0479
 7605TIP3    H144306   3.757   5.555  15.102  1.5006 -2.3206  0.4880
 7605TIP3    H244307   3.683   5.448  15.024  0.3443 -0.2064 -1.4004
 7606TIP3   OH244308   6.595   3.007   1.797  0.2412 -0.7415  0.4203
 7606TIP3    H144309   6.599   3.004   1.893  0.6646 -2.4351  0.3743
 7606TIP3    H244310   6.674   3.055   1.771  0.4255 -0.7852  0.9000
 7607TIP3   OH244311   4.587   0.261   1.130  0.7293  0.2858  0.2151
 7607TIP3    H144312   4.492   0.271   1.130  0.4562 -2.0610 -0.3786
 7607TIP3    H244313   4.610   0.257   1.223 -0.0628 -1.5831  0.3611
 7608TIP3   OH244314   2.879   2.650   5.247 -0.0659  0.0188 -0.1671
 7608TIP3    H144315   2.898   2.592   5.321 -0.4088 -0.8175 -0.7274
 7608TIP3    H244316   2.960   2.652   5.197 -0.2779 -0.5754 -0.5447
 7609TIP3   OH244317   3.174   0.050   1.314 -0.2646 -0.3541 -0.1939
 7609TIP3    H144318   3.171   0.037   1.409 -1.3977 -0.4388 -0.2293
 7609TIP3    H244319   3.233  -0.017   1.282 -0.5431 -0.8713  0.3677
 7610TIP3   OH244320   4.698   5.524  10.613  0.6388 -0.2361 -0.2082
 7610TIP3    H144321   4.762   5.557  10.549  1.1546 -1.0643 -0.1253
 7610TIP3    H244322   4.707   5.429  10.608 -1.4678 -0.4197 -1.0959
 7611TIP3   OH244323   5.349   3.669   3.837  0.2874 -0.0537 -0.4698
 7611TIP3    H144324   5.375   3.757   3.810  2.8379 -0.4166  0.5596
 7611TIP3    H244325   5.292   3.684   3.912  2.0690  0.7455  0.7834
 7612TIP3   OH244326   3.940   5.265  15.106  0.1893  0.1404  0.1835
 7612TIP3    H144327   3.963   5.329  15.173 -1.8524 -0.1638  1.2202
 7612TIP3    H244328   3.875   5.310  15.051  1.4377  0.2015 -1.2881
 7613TIP3   OH244329   0.065   3.978   4.447 -0.0825  0.1108  0.5134
 7613TIP3    H144330  -0.008   3.928   4.410  0.8842  0.3769 -1.8176
 7613TIP3    H244331   0.035   4.069   4.446 -0.2577  0.0591  0.8939
 7614TIP3   OH244332   3.512   0.113  12.440 -0.5024  0.6826 -0.5120
 7614TIP3    H144333   3.602   0.082  12.444  0.5719  3.6069 -0.3587
 7614TIP3    H244334   3.468   0.073  12.515  0.7877 -0.4053 -0.3354
 7615TIP3   OH244335   5.454   6.622  14.193  0.2782 -0.2198  0.5143
 7615TIP3    H144336   5.544   6.645  14.168 -0.2552  1.1300 -0.1784
 7615TIP3    H244337   5.462   6.591  14.284  1.5538 -0.8536  0.1967
 7616TIP3   OH244338   0.639   2.764  11.769  0.4946 -0.4104  0.1523
 7616TIP3    H144339   0.649   2.688  11.827 -1.6472 -0.4985  0.4596
 7616TIP3    H244340   0.599   2.728  11.690  0.4440  0.2228 -0.1085
 7617TIP3   OH244341   1.405   6.592  12.313  0.0640 -0.3963  0.0168
 7617TIP3    H144342   1.404   6.607  12.408 -0.0033  2.4697 -0.3753
 7617TIP3    H244343   1.315   6.568  12.291 -0.1955  0.1090  0.5178
 7618TIP3   OH244344   2.311   5.336   2.049  0.0206 -0.4883 -0.5928
 7618TIP3    H144345   2.380   5.293   2.000 -0.7777 -1.7301 -0.6654
 7618TIP3    H244346   2.231   5.291   2.022 -0.5284 -0.6423  1.2014
 7619TIP3   OH244347   2.033   6.755   3.058 -0.0573 -0.2613 -0.1759
 7619TIP3    H144348   2.077   6.681   3.017  0.9832  0.8939 -1.1980
 7619TIP3    H244349   1.941   6.731   3.061  0.3111 -1.7186 -0.1995
 7620TIP3   OH244350   3.809   1.002   1.455 -0.2856 -0.1443  0.4496
 7620TIP3    H144351   3.743   1.027   1.390 -0.3378  0.5095  0.7431
 7620TIP3    H244352   3.880   0.963   1.404 -0.1142  0.8050 -0.0454
 7621TIP3   OH244353   6.518   6.623   3.011  0.5853 -0.5319  0.6548
 7621TIP3    H144354   6.591   6.625   3.073  1.8634  0.7717 -0.8364
 7621TIP3    H244355   6.533   6.698   2.954 -0.8768 -1.3544 -0.8558
 7622TIP3   OH244356   4.396   1.493   6.090 -0.3067 -0.5622  0.4091
 7622TIP3    H144357   4.456   1.510   6.017 -0.0527 -0.6986  0.5844
 7622TIP3    H244358   4.312   1.474   6.048 -0.7305  1.5991  0.2216
 7623TIP3   OH244359   0.142   5.178  11.632  0.0037 -0.5697  0.0550
 7623TIP3    H144360   0.059   5.187  11.586 -0.3346  1.2227  0.9734
 7623TIP3    H244361   0.192   5.256  11.606  0.1054  0.0630  2.0676
 7624TIP3   OH244362   5.618   5.365  14.980 -0.3753 -0.1547 -0.4631
 7624TIP3    H144363   5.579   5.397  15.061  2.1609  0.1384  0.6952
 7624TIP3    H244364   5.599   5.271  14.980 -3.5490  0.4087 -1.4117
 7625TIP3   OH244365   0.235   0.893   0.543 -0.3946  0.0670  0.0799
 7625TIP3    H144366   0.310   0.949   0.563 -0.7965  0.4461  0.5191
 7625TIP3    H244367   0.274   0.813   0.506  0.2901 -0.2286  1.4145
 7626TIP3   OH244368   4.226   3.430   4.145  0.3319  0.3668  0.2183
 7626TIP3    H144369   4.280   3.394   4.215  0.5073  1.7643  0.8213
 7626TIP3    H244370   4.138   3.436   4.182  0.4165  1.0724  0.3096
 7627TIP3   OH244371   4.684   4.783  15.487  0.1429 -0.0198 -0.5311
 7627TIP3    H144372   4.602   4.796  15.535  1.0750 -1.4323  1.5134
 7627TIP3    H244373   4.683   4.690  15.462  1.1054 -0.0406 -0.5177
 7628TIP3   OH244374   2.703   1.020   2.596  0.1260 -0.0194 -0.1637
 7628TIP3    H144375   2.610   1.038   2.584 -0.1161 -1.5932 -0.7988
 7628TIP3    H244376   2.709   0.925   2.601  1.7634  0.0316 -0.6737
 7629TIP3   OH244377   1.776   5.392   4.521 -0.2663  0.4148 -0.0520
 7629TIP3    H144378   1.716   5.320   4.500  0.0974 -0.2501  1.2003
 7629TIP3    H244379   1.861   5.364   4.487 -0.0750  0.1634  0.6454
 7630TIP3   OH244380   2.209   4.735   4.372  0.3751 -0.2887  0.2295
 7630TIP3    H144381   2.187   4.816   4.419  0.2064 -0.3949  0.3362
 7630TIP3    H244382   2.154   4.737   4.293  0.5186 -0.2012  0.1331
 7631TIP3   OH244383   5.701   6.021   4.229 -0.2446  0.6238 -0.1925
 7631TIP3    H144384   5.710   6.057   4.317  0.9854  1.3507 -0.6075
 7631TIP3    H244385   5.752   6.080   4.174 -2.2824  1.0647 -1.6341
 7632TIP3   OH244386   4.197   6.002  13.945 -0.3058  0.1787 -0.1080
 7632TIP3    H144387   4.151   5.924  13.975 -0.0556  0.2313  0.4085
 7632TIP3    H244388   4.185   6.001  13.850  0.6981 -1.1248 -0.2374
 7633TIP3   OH244389   2.037   6.105  15.100  0.6059 -1.0333  0.0348
 7633TIP3    H144390   1.997   6.018  15.105 -1.2914 -0.1416  0.9430
 7633TIP3    H244391   1.968   6.160  15.061  1.1292  0.4335  1.1472
 7634TIP3   OH244392   5.887   4.131   0.796  0.0203 -0.2909  0.0682
 7634TIP3    H144393   5.820   4.196   0.775  0.8486  0.1685 -1.1776
 7634TIP3    H244394   5.959   4.182   0.832  1.0866 -0.3795 -1.8812
 7635TIP3   OH244395   4.825   1.747   5.989  0.1426  0.0766 -0.2164
 7635TIP3    H144396   4.895   1.750   6.053  0.4506  0.9131 -0.5766
 7635TIP3    H244397   4.747   1.777   6.037  0.0631 -0.7234  0.1465
 7636TIP3   OH244398   5.252   0.695  11.492 -0.4526 -0.0101 -0.0211
 7636TIP3    H144399   5.266   0.766  11.555 -1.4484 -0.9268  1.2779
 7636TIP3    H244400   5.216   0.738  11.415  2.6721  1.4054 -0.7488
 7637TIP3   OH244401   2.877   4.751   6.474  0.0644  0.2876  0.0324
 7637TIP3    H144402   2.817   4.696   6.423  2.0673 -1.3968 -0.5784
 7637TIP3    H244403   2.849   4.841   6.456 -2.1975 -0.4648 -0.2942
 7638TIP3   OH244404   2.480   2.192   3.626 -0.0323 -0.1366  0.2947
 7638TIP3    H144405   2.480   2.287   3.633 -0.4064 -0.1131  0.0265
 7638TIP3    H244406   2.407   2.163   3.680  0.4391 -0.3116  0.8383
 7639TIP3   OH244407   2.523   4.960   5.345 -0.4278 -0.5161 -0.4952
 7639TIP3    H144408   2.512   5.000   5.258 -0.0661 -1.3749 -0.9453
 7639TIP3    H244409   2.557   5.031   5.400 -1.2877  0.2078 -0.8889
 7640TIP3   OH244410   6.134   1.077   3.531  0.4704 -0.6191  0.1320
 7640TIP3    H144411   6.192   1.033   3.468  1.0956  1.6108 -0.8845
 7640TIP3    H244412   6.061   1.108   3.478  0.0685 -0.3713  0.8354
 7641TIP3   OH244413   5.954   0.960   0.709  0.6481  0.0950 -0.1202
 7641TIP3    H144414   6.005   0.882   0.688 -0.2056 -0.7259  0.7805
 7641TIP3    H244415   5.916   0.987   0.625 -1.2690 -2.0811  0.0059
 7642TIP3   OH244416   6.392   0.787   1.694  0.0929 -0.1070 -0.7384
 7642TIP3    H144417   6.476   0.742   1.694 -0.9618 -2.1190 -1.9260
 7642TIP3    H244418   6.357   0.772   1.782  0.1204 -0.9180 -0.8606
 7643TIP3   OH244419   0.648   0.265  16.485 -0.1060  0.3475  0.0988
 7643TIP3    H144420   0.739   0.237  16.488  0.1421  0.7991 -2.5800
 7643TIP3    H244421   0.600   0.187  16.458 -0.2545  0.6900 -0.6181
 7644TIP3   OH244422   1.233   5.534  15.240  0.2314 -0.1197  0.1110
 7644TIP3    H144423   1.277   5.501  15.319  0.4321 -0.8905 -0.3265
 7644TIP3    H244424   1.272   5.485  15.168  0.8520  1.3825 -0.5939
 7645TIP3   OH244425   0.316   4.445  11.302 -0.5571  0.3713 -0.2512
 7645TIP3    H144426   0.398   4.462  11.256 -0.0032 -1.1766  0.1449
 7645TIP3    H244427   0.268   4.387  11.243 -0.1421 -1.0433  0.7933
 7646TIP3   OH244428   0.978   5.464   2.602  0.0854 -0.5925 -0.1629
 7646TIP3    H144429   0.976   5.541   2.547 -1.8198 -0.9843 -0.6909
 7646TIP3    H244430   0.984   5.498   2.691 -0.2215  0.1463 -0.4240
 7647TIP3   OH244431   1.945   0.535   2.556  0.3368 -0.3817 -0.0060
 7647TIP3    H144432   1.898   0.618   2.545  0.0613 -0.5191  0.1160
 7647TIP3    H244433   2.031   0.560   2.588  0.3777 -0.1194 -0.3132
 7648TIP3   OH244434   1.999   6.284   5.408  0.0836  0.2581  0.0316
 7648TIP3    H144435   2.008   6.240   5.324  0.1819 -0.3421  0.3526
 7648TIP3    H244436   2.089   6.308   5.433  0.0512  0.4654 -0.0459
 7649TIP3   OH244437   6.183   6.279  12.005  0.3545  0.1543 -1.4051
 7649TIP3    H144438   6.129   6.333  11.947 -0.0168  0.2710 -0.9477
 7649TIP3    H244439   6.122   6.219  12.047  0.3332  1.4493  0.4303
 7650TIP3   OH244440   0.888   1.055  11.138  0.0159  0.2320  0.3171
 7650TIP3    H144441   0.874   1.134  11.191 -0.8551 -0.1786  0.7057
 7650TIP3    H244442   0.800   1.018  11.125  0.3203 -0.1991 -0.6052
 7651TIP3   OH244443   4.582   4.554   3.337 -0.1664 -0.0081  0.2137
 7651TIP3    H144444   4.541   4.557   3.250 -1.3347  2.7359  0.7857
 7651TIP3    H244445   4.608   4.645   3.353  1.5253 -0.7915  2.0713
 7652TIP3   OH244446   1.634   2.318  14.736 -0.8661  0.4130  0.1566
 7652TIP3    H144447   1.631   2.405  14.697 -1.1423  0.7537  0.9404
 7652TIP3    H244448   1.724   2.310  14.768 -0.9797  0.5981  0.5203
 7653TIP3   OH244449   5.428   2.928  14.698  0.2966 -0.1950 -0.4837
 7653TIP3    H144450   5.471   2.993  14.643  0.5506 -0.1538 -0.2379
 7653TIP3    H244451   5.439   2.961  14.787  0.7356 -0.7483 -0.3293
 7654TIP3   OH244452   5.738   5.076  13.176  0.5705 -0.7220 -0.3814
 7654TIP3    H144453   5.763   4.985  13.191  0.0227 -0.6531  1.0099
 7654TIP3    H244454   5.818   5.119  13.145  1.1823 -1.3741  0.2885
 7655TIP3   OH244455   0.330   2.274  11.776  0.9577 -0.1821 -0.8449
 7655TIP3    H144456   0.283   2.206  11.825  1.3039  1.4236  1.8488
 7655TIP3    H244457   0.422   2.260  11.799  1.2698 -0.2137 -2.1035
 7656TIP3   OH244458   3.002   6.472   2.181  0.0996 -0.3612 -0.3846
 7656TIP3    H144459   3.050   6.418   2.244  2.5454  1.4126 -0.6225
 7656TIP3    H244460   2.959   6.538   2.235 -0.6723 -0.9249 -0.3069
 7657TIP3   OH244461   4.649   4.767  13.278 -0.2073  0.7987 -0.2693
 7657TIP3    H144462   4.594   4.692  13.255  1.9395 -0.3834 -1.6016
 7657TIP3    H244463   4.590   4.842  13.270 -1.7718 -0.4976 -1.1934
 7658TIP3   OH244464   0.202   4.223  13.567  0.1990 -0.2848 -0.2424
 7658TIP3    H144465   0.125   4.268  13.601  0.6243  0.7734 -0.6566
 7658TIP3    H244466   0.167   4.145  13.523 -0.6448  0.2666 -0.5481
 7659TIP3   OH244467   3.848   6.449   5.572 -1.1006 -0.6595 -0.0778
 7659TIP3    H144468   3.859   6.365   5.617 -1.5353 -0.2685  0.7862
 7659TIP3    H244469   3.819   6.426   5.484  1.1064 -1.4971 -0.6347
 7660TIP3   OH244470   0.694   5.545  11.124 -0.2235 -0.1256  0.1255
 7660TIP3    H144471   0.700   5.484  11.049  0.1548 -0.2688  0.2746
 7660TIP3    H244472   0.704   5.489  11.201  0.0201  0.1153  0.2668
 7661TIP3   OH244473   3.211   3.553   5.207  0.4345 -0.3742 -0.3874
 7661TIP3    H144474   3.282   3.490   5.218 -0.2690 -1.2539 -0.8510
 7661TIP3    H244475   3.192   3.584   5.295  0.5337 -1.0908 -0.1134
 7662TIP3   OH244476   4.369   3.760  11.935 -0.0487 -0.5704 -0.4558
 7662TIP3    H144477   4.300   3.819  11.965  2.1256  1.8285  0.0597
 7662TIP3    H244478   4.385   3.702  12.009 -0.7263 -0.4074 -0.1758
 7663TIP3   OH244479   5.180   4.012  14.381 -0.3246  0.0943 -0.6367
 7663TIP3    H144480   5.254   3.953  14.367  0.6812  1.3832 -0.9243
 7663TIP3    H244481   5.204   4.062  14.459 -1.2433 -0.0299 -0.2833
 7664TIP3   OH244482   5.878   1.931  17.192 -0.1908 -0.1453  0.2653
 7664TIP3    H144483   5.897   2.025  17.184 -2.0795  0.4132  2.0007
 7664TIP3    H244484   5.786   1.927  17.217  0.3456 -2.3801  2.0440
 7665TIP3   OH244485   2.778   5.639   1.561  0.2740 -0.3341 -0.5342
 7665TIP3    H144486   2.850   5.581   1.538 -0.9960 -1.8324 -0.8534
 7665TIP3    H244487   2.699   5.588   1.541 -0.8935 -0.2566  3.5681
 7666TIP3   OH244488   4.234   3.041   4.748 -0.0150  0.2387  0.0620
 7666TIP3    H144489   4.290   3.011   4.820 -0.5430  0.4818  0.5765
 7666TIP3    H244490   4.205   3.128   4.774 -0.4284  0.2228 -0.3221
 7667TIP3   OH244491   1.313   4.808  14.210  0.1316 -0.5878  0.7168
 7667TIP3    H144492   1.358   4.744  14.265  0.6716  0.0018  0.9647
 7667TIP3    H244493   1.342   4.893  14.243 -1.2312 -0.1996  0.9181
 7668TIP3   OH244494   5.679   0.894   4.521  0.2937 -0.6409 -0.6594
 7668TIP3    H144495   5.632   0.835   4.580  1.2694 -2.0578 -1.2625
 7668TIP3    H244496   5.720   0.958   4.579 -3.2105  1.2957 -0.1911
 7669TIP3   OH244497   5.333   4.709  10.274  0.2993 -0.4395 -0.5199
 7669TIP3    H144498   5.363   4.684  10.361  1.4785 -0.2557 -0.8639
 7669TIP3    H244499   5.333   4.628  10.224 -0.2134 -0.5170 -0.3882
 7670TIP3   OH244500   4.595   3.126  16.938  0.3467 -0.0146  0.2795
 7670TIP3    H144501   4.627   3.215  16.955 -0.6972  0.1619  1.4275
 7670TIP3    H244502   4.608   3.113  16.845 -0.5966  1.8149 -0.1415
 7671TIP3   OH244503   2.374   3.387  15.391  0.0544  0.2033 -0.2147
 7671TIP3    H144504   2.292   3.339  15.380  0.4553 -0.7893  1.0090
 7671TIP3    H244505   2.347   3.478  15.401 -0.8269  0.0223 -0.9389
 7672TIP3   OH244506   0.322   5.370   0.899 -0.0811 -0.6639 -0.7178
 7672TIP3    H144507   0.316   5.464   0.916  1.2892 -1.1322  2.6945
 7672TIP3    H244508   0.413   5.356   0.874  0.3060 -1.3768  1.0181
 7673TIP3   OH244509   0.442   6.533   3.750  0.7563  0.3043 -0.4606
 7673TIP3    H144510   0.482   6.584   3.820  1.1348  3.0473 -2.5770
 7673TIP3    H244511   0.360   6.579   3.731  1.3423  0.4644 -2.7510
 7674TIP3   OH244512   4.723   0.840  12.296  0.2154 -0.2703  0.2508
 7674TIP3    H144513   4.690   0.751  12.284 -0.2745 -0.3063  1.8256
 7674TIP3    H244514   4.649   0.890  12.329  0.6613  0.5876 -0.0143
 7675TIP3   OH244515   4.645   4.501  14.364 -0.6329  0.1603 -0.1104
 7675TIP3    H144516   4.736   4.495  14.335 -0.3947  0.0921  0.6471
 7675TIP3    H244517   4.650   4.534  14.454 -1.3155 -0.5245  0.1884
 7676TIP3   OH244518   6.520   0.957  16.304  0.7922  0.4200  0.5366
 7676TIP3    H144519   6.447   1.001  16.262  0.3184 -1.4299 -0.6651
 7676TIP3    H244520   6.525   0.995  16.392 -1.5818  0.6072  0.6106
 7677TIP3   OH244521   5.587   1.769   5.505 -0.1108 -0.3866 -0.2909
 7677TIP3    H144522   5.654   1.810   5.450 -0.3221  1.5315  0.8526
 7677TIP3    H244523   5.504   1.793   5.464 -0.1762 -1.1565 -0.6179
 7678TIP3   OH244524   0.694   0.416  16.261 -0.1381  0.2646  0.3825
 7678TIP3    H144525   0.690   0.368  16.344  0.3496 -1.7051 -0.7066
 7678TIP3    H244526   0.627   0.376  16.207  1.5234 -0.4618 -1.1845
 7679TIP3   OH244527   2.877   5.053  12.130  0.0332  0.0516  0.0270
 7679TIP3    H144528   2.859   5.119  12.198  0.9239  1.5094 -1.1237
 7679TIP3    H244529   2.972   5.057  12.118 -0.2727  0.9087 -2.3788
 7680TIP3   OH244530   5.072   4.473  14.835 -0.3122  0.1222  0.0193
 7680TIP3    H144531   5.072   4.507  14.746 -1.7335 -1.1080 -0.4788
 7680TIP3    H244532   5.130   4.397  14.832  0.9460  1.0485  0.5480
 7681TIP3   OH244533   6.426   5.900   1.018  0.4908 -0.0010  0.3410
 7681TIP3    H144534   6.499   5.866   0.965 -0.6387  0.4834 -1.5832
 7681TIP3    H244535   6.363   5.932   0.953 -0.6027  1.3049  2.0267
 7682TIP3   OH244536   0.644   4.969  15.001 -0.1050 -0.3250  0.4104
 7682TIP3    H144537   0.639   4.911  14.925  0.2409 -1.5836  1.3205
 7682TIP3    H244538   0.737   4.991  15.007 -0.3829  1.1834 -0.5408
 7683TIP3   OH244539   3.390   1.211  14.046 -0.2299  0.2281  0.1642
 7683TIP3    H144540   3.304   1.253  14.038 -0.5048 -0.0806  1.4334
 7683TIP3    H244541   3.403   1.201  14.140  0.5817 -1.0158 -0.0731
 7684TIP3   OH244542   0.622   2.501   3.636  0.5127 -0.6068  0.3209
 7684TIP3    H144543   0.601   2.577   3.690 -0.3054 -0.6364  0.0393
 7684TIP3    H244544   0.538   2.458   3.621  0.9820 -1.6177  0.5551
 7685TIP3   OH244545   4.609   5.039   3.377  0.4429 -0.7610 -0.4898
 7685TIP3    H144546   4.690   5.087   3.397 -0.8531  0.1874  2.7373
 7685TIP3    H244547   4.621   4.954   3.419 -0.0319 -0.8186 -0.4741
 7686TIP3   OH244548   6.175   2.797  13.239  0.2321 -0.3664  0.9013
 7686TIP3    H144549   6.170   2.703  13.223 -0.9268 -0.2336  0.4499
 7686TIP3    H244550   6.130   2.809  13.323 -1.1666 -0.0099  0.1202
 7687TIP3   OH244551   0.148   4.695  14.656 -0.1263  0.1540 -0.2675
 7687TIP3    H144552   0.143   4.645  14.575  1.3999 -0.8058  0.2133
 7687TIP3    H244553   0.088   4.651  14.716  1.5501 -1.4155  0.3007
 7688TIP3   OH244554   5.345   0.259  13.343  0.1441  0.3329 -0.1256
 7688TIP3    H144555   5.335   0.314  13.421  0.5899 -0.7410  0.6963
 7688TIP3    H244556   5.436   0.229  13.346 -0.0170 -0.2262 -0.7189
 7689TIP3   OH244557   1.436   2.182  13.023  0.4898  0.4585  0.5778
 7689TIP3    H144558   1.476   2.164  13.108  1.2457 -0.4112  0.0312
 7689TIP3    H244559   1.406   2.097  12.992 -0.6842  0.9190  0.4163
 7690TIP3   OH244560   1.720   6.219   5.770  0.2910 -0.2447  0.8631
 7690TIP3    H144561   1.747   6.139   5.725  0.0362 -1.2850  2.5279
 7690TIP3    H244562   1.792   6.280   5.755  0.2635 -0.6137 -0.8407
 7691TIP3   OH244563   0.110   0.377  17.292 -0.1833  0.1061  0.6434
 7691TIP3    H144564   0.084   0.458  17.247  0.3522  0.6668  1.3281
 7691TIP3    H244565   0.201   0.364  17.265 -0.4557 -0.5943  0.0624
 7692TIP3   OH244566   3.320   1.264   0.083  0.6326 -0.4243  0.0580
 7692TIP3    H144567   3.339   1.275   0.177  0.1292  0.6477  0.0393
 7692TIP3    H244568   3.401   1.229   0.046  0.3577 -2.3115  1.1512
 7693TIP3   OH244569   3.237   3.854   1.312  0.1163 -0.1966 -0.1126
 7693TIP3    H144570   3.239   3.835   1.218  1.1058 -2.2224  0.2800
 7693TIP3    H244571   3.190   3.780   1.350  0.7061  0.0408  1.0976
 7694TIP3   OH244572   0.682   2.058   4.172  0.2407  0.0913 -0.2461
 7694TIP3    H144573   0.716   2.102   4.250 -1.1901  1.1092 -0.1642
 7694TIP3    H244574   0.757   2.012   4.136  1.6315  1.9819  0.1196
 7695TIP3   OH244575   5.800   3.248  11.574 -0.3031  0.0150 -0.1321
 7695TIP3    H144576   5.828   3.289  11.492 -0.2295 -0.4000 -0.3170
 7695TIP3    H244577   5.877   3.201  11.605 -0.1967  0.5333  0.4089
 7696TIP3   OH244578   5.392   0.770   2.289  0.0898 -0.1484 -0.1591
 7696TIP3    H144579   5.473   0.727   2.258  0.9611  1.3684 -0.0428
 7696TIP3    H244580   5.365   0.718   2.364  1.4805 -0.1397  0.3633
 7697TIP3   OH244581   1.699   2.844   0.164 -0.3341 -0.0141  0.3116
 7697TIP3    H144582   1.674   2.865   0.254  0.9200  0.7674  0.4844
 7697TIP3    H244583   1.736   2.756   0.169 -0.3270  0.0019  0.5453
 7698TIP3   OH244584   0.253   3.304   0.813 -1.0539  0.1098 -0.2144
 7698TIP3    H144585   0.182   3.243   0.835 -0.2293 -0.9362 -0.4369
 7698TIP3    H244586   0.322   3.283   0.876  1.1897 -2.6426 -3.4698
 7699TIP3   OH244587   4.658   2.494  14.764 -0.7184  0.2071 -0.6699
 7699TIP3    H144588   4.581   2.452  14.728 -1.5561  0.2074  1.0437
 7699TIP3    H244589   4.652   2.585  14.735 -1.8998  0.4368  0.2348
 7700TIP3   OH244590   2.262   0.575   0.850  0.5205  0.2057 -0.2625
 7700TIP3    H144591   2.206   0.498   0.852 -1.2483  1.4316 -0.8910
 7700TIP3    H244592   2.303   0.577   0.937  0.1520 -1.1210 -0.0464
 7701TIP3   OH244593   3.037   1.318  10.923  0.0393 -0.5836  0.0856
 7701TIP3    H144594   2.968   1.300  10.858  1.0680  0.9302 -1.4685
 7701TIP3    H244595   3.009   1.398  10.967  0.1243 -0.7364  0.4206
 7702TIP3   OH244596   5.437   4.130  13.053  0.6281  0.0914 -0.0664
 7702TIP3    H144597   5.480   4.205  13.093 -0.2520 -0.2198  1.5138
 7702TIP3    H244598   5.346   4.135  13.083  0.1585 -0.6376 -1.3386
 7703TIP3   OH244599   5.374   2.505   1.758  0.6567 -0.2143 -0.2489
 7703TIP3    H144600   5.435   2.569   1.794 -0.9673  0.9970  0.4370
 7703TIP3    H244601   5.312   2.557   1.707 -0.3285 -1.3166 -0.1921
 7704TIP3   OH244602   3.710   6.153  11.135  1.0741 -0.1538 -0.3130
 7704TIP3    H144603   3.648   6.216  11.096  0.2226 -0.4689  0.5068
 7704TIP3    H244604   3.719   6.182  11.225 -0.3247 -1.9397  0.4269
 7705TIP3   OH244605   1.537   4.783   5.201  0.2775  0.6116 -0.1229
 7705TIP3    H144606   1.459   4.839   5.200  0.3044  0.6623  0.7237
 7705TIP3    H244607   1.502   4.695   5.184  0.0809  0.6918 -0.1430
 7706TIP3   OH244608   0.374   3.864  13.887 -0.3380  0.5882 -0.7715
 7706TIP3    H144609   0.346   3.773  13.902 -1.1382  1.1537  1.3290
 7706TIP3    H244610   0.458   3.855  13.842 -0.7349 -1.1886 -1.2244
 7707TIP3   OH244611   4.271   1.139  13.528  0.4066  0.2796 -0.6259
 7707TIP3    H144612   4.333   1.101  13.466  2.0229  0.8109  0.6558
 7707TIP3    H244613   4.325   1.177  13.597 -1.3501 -0.2173  1.0812
 7708TIP3   OH244614   5.874   1.364   0.968 -0.2188 -0.1230 -0.1975
 7708TIP3    H144615   5.883   1.312   1.048  0.5817 -0.2562 -0.3783
 7708TIP3    H244616   5.963   1.378   0.938 -0.5634 -1.0384 -1.6889
 7709TIP3   OH244617   6.694   0.412   6.606  0.4948 -0.7497  0.4510
 7709TIP3    H144618   6.681   0.413   6.511 -1.8841 -1.8047  0.7408
 7709TIP3    H244619   6.743   0.331   6.622  2.1623  0.1409  0.0057
 7710TIP3   OH244620   3.503   1.517  11.595  0.0443 -0.3827 -0.3581
 7710TIP3    H144621   3.432   1.568  11.633  0.7622 -0.0253  0.5413
 7710TIP3    H244622   3.582   1.569  11.613  0.9827 -2.4928  1.9285
 7711TIP3   OH244623   3.592   3.412   1.205  0.0786  0.1804  0.9051
 7711TIP3    H144624   3.527   3.344   1.183  0.8351  0.7413 -3.5552
 7711TIP3    H244625   3.541   3.493   1.209 -0.2091 -0.0584  2.2195
 7712TIP3   OH244626   2.206   3.683   1.490  0.1114  0.2916 -0.1994
 7712TIP3    H144627   2.126   3.724   1.523 -1.2911 -1.0419 -1.7900
 7712TIP3    H244628   2.240   3.746   1.427  1.2124  1.5649  1.6392
 7713TIP3   OH244629   3.318   6.373   4.211 -0.4726 -0.1798  0.5692
 7713TIP3    H144630   3.303   6.326   4.293 -0.4865 -0.9552  0.1325
 7713TIP3    H244631   3.382   6.319   4.164 -0.6027  0.1608 -0.0064
 7714TIP3   OH244632   6.770   5.425   2.763  0.1023 -0.2725  0.2696
 7714TIP3    H144633   6.858   5.389   2.756 -0.1737 -1.1903  1.4277
 7714TIP3    H244634   6.735   5.389   2.844 -0.5575  1.7842  0.9500
 7715TIP3   OH244635   4.662   6.702   2.352 -0.4014  0.1217 -0.1199
 7715TIP3    H144636   4.693   6.710   2.443  0.7768  2.1384 -0.6884
 7715TIP3    H244637   4.577   6.744   2.352 -1.0523 -1.1446  0.3409
 7716TIP3   OH244638   5.910   0.735   6.043 -0.1242 -0.0112  0.7134
 7716TIP3    H144639   5.991   0.734   6.093 -0.4770 -1.2514  1.2772
 7716TIP3    H244640   5.930   0.786   5.965  0.9591  0.3697  1.2390
 7717TIP3   OH244641   6.249   3.863  11.748 -0.0560 -1.1044 -0.4500
 7717TIP3    H144642   6.191   3.828  11.680 -1.9758  0.1645  0.4951
 7717TIP3    H244643   6.300   3.787  11.778  0.5673 -1.7559 -3.0255
 7718TIP3   OH244644   1.171   0.715  16.250 -0.2689  0.8551  0.3297
 7718TIP3    H144645   1.163   0.632  16.202 -2.0232  2.6609 -2.6824
 7718TIP3    H244646   1.117   0.702  16.328  0.2346 -1.1534  0.3777
 7719TIP3   OH244647   5.883   3.522   5.513  0.2643 -0.1387 -0.6683
 7719TIP3    H144648   5.884   3.463   5.437 -0.6062 -0.1328 -0.6836
 7719TIP3    H244649   5.799   3.567   5.507  0.7778  0.8486 -0.4588
 7720TIP3   OH244650   1.679   4.685  14.939 -0.7812 -0.1284  0.5000
 7720TIP3    H144651   1.686   4.635  15.020 -0.5166  0.8344  1.0909
 7720TIP3    H244652   1.596   4.732  14.948 -0.5447  0.3078  0.4111
 7721TIP3   OH244653   0.390   2.116   1.287 -0.7304  0.2425 -0.4679
 7721TIP3    H144654   0.349   2.037   1.252 -1.5381 -0.2774  1.6192
 7721TIP3    H244655   0.318   2.179   1.295 -0.5599  0.3374  0.3224
 7722TIP3   OH244656   2.716   0.708  14.750 -0.0586 -0.2892 -0.1729
 7722TIP3    H144657   2.749   0.687  14.663 -1.0588 -1.6441 -0.2305
 7722TIP3    H244658   2.784   0.678  14.810  0.5681  0.5184 -0.4658
 7723TIP3   OH244659   6.316   0.218   1.135  0.2439 -0.2783 -0.3437
 7723TIP3    H144660   6.259   0.274   1.083 -0.0822 -1.7195 -1.5649
 7723TIP3    H244661   6.403   0.257   1.126 -0.0394  0.2271 -0.9152
 7724TIP3   OH244662   5.833   1.367   5.216 -0.3657  0.2488 -1.2826
 7724TIP3    H144663   5.805   1.275   5.218  2.8030 -0.7677  0.2043
 7724TIP3    H244664   5.807   1.402   5.301  0.0370  0.1802 -1.1269
 7725TIP3   OH244665   4.371   6.060   1.532 -0.1273  0.1956  0.2903
 7725TIP3    H144666   4.420   5.983   1.561 -0.3801 -0.1905 -0.3017
 7725TIP3    H244667   4.286   6.052   1.574 -0.6687 -0.6253 -0.9268
 7726TIP3   OH244668   3.369   3.397  13.250 -0.1306 -0.6492  0.1560
 7726TIP3    H144669   3.356   3.308  13.215 -1.9934 -0.5091  0.3948
 7726TIP3    H244670   3.399   3.383  13.340  2.6447 -1.0118 -0.7928
 7727TIP3   OH244671   4.209   6.548  12.885 -0.0520 -0.4558 -0.4688
 7727TIP3    H144672   4.177   6.541  12.795 -0.9090  0.9939 -0.2892
 7727TIP3    H244673   4.143   6.503  12.938 -0.2031 -0.1823 -0.4254
 7728TIP3   OH244674   1.184   4.401  11.437 -0.2705  0.1130 -0.3214
 7728TIP3    H144675   1.210   4.324  11.489 -1.9050 -0.9739 -1.0930
 7728TIP3    H244676   1.200   4.375  11.347 -1.5165  0.4184 -0.6325
 7729TIP3   OH244677   5.589   0.704  14.449  0.3748  0.4636 -0.4167
 7729TIP3    H144678   5.526   0.646  14.405  0.7332  0.0447 -0.3789
 7729TIP3    H244679   5.658   0.645  14.480  0.5830  0.8732 -0.0997
 7730TIP3   OH244680   2.046   1.879   1.461  0.0663 -0.7659 -1.0338
 7730TIP3    H144681   2.082   1.790   1.461 -0.6918 -1.0802 -2.3663
 7730TIP3    H244682   2.028   1.897   1.554 -0.3929 -2.2499 -0.8137
 7731TIP3   OH244683   0.489   1.134  11.759 -0.5710  0.4462 -0.2869
 7731TIP3    H144684   0.490   1.038  11.762 -2.9542  0.3727 -0.4215
 7731TIP3    H244685   0.424   1.155  11.692  0.1392  2.1615 -0.4573
 7732TIP3   OH244686   1.882   0.177   5.744  0.0720 -0.3146  0.6958
 7732TIP3    H144687   1.867   0.245   5.678  0.0490  0.0817  1.1083
 7732TIP3    H244688   1.970   0.144   5.725 -0.6411 -1.5063 -0.7090
 7733TIP3   OH244689   6.157   5.062   2.078  0.1856 -0.2460 -0.2117
 7733TIP3    H144690   6.194   4.984   2.119 -0.8743 -1.1110 -0.8635
 7733TIP3    H244691   6.089   5.028   2.019 -0.4566  1.1874 -0.3154
 7734TIP3   OH244692   0.223   1.108   5.513 -0.3133  0.6052  0.0249
 7734TIP3    H144693   0.310   1.072   5.527 -0.5179  0.0382 -0.1518
 7734TIP3    H244694   0.163   1.043   5.552 -0.7934 -0.1910 -1.9922
 7735TIP3   OH244695   4.393   5.740   5.549 -0.5561 -0.3707 -0.1407
 7735TIP3    H144696   4.406   5.758   5.456  2.1331 -3.4321 -0.4429
 7735TIP3    H244697   4.432   5.814   5.595 -1.0949  0.7151 -1.4203
 7736TIP3   OH244698   0.959   1.736  12.049  0.4167 -0.4963 -0.1483
 7736TIP3    H144699   0.949   1.709  11.958 -0.1106 -1.4610  0.1926
 7736TIP3    H244700   1.046   1.775  12.054 -0.2099  1.1173 -1.4519
 7737TIP3   OH244701   3.884   5.442  13.379  0.7681 -0.6278 -0.2254
 7737TIP3    H144702   3.847   5.365  13.336 -1.3566  1.5069 -2.3257
 7737TIP3    H244703   3.978   5.425  13.382  0.7072 -1.8805 -3.5987
 7738TIP3   OH244704   1.059   6.394  13.935  0.0603  0.2294  0.2272
 7738TIP3    H144705   1.034   6.341  13.860  2.0407  1.0053 -1.0450
 7738TIP3    H244706   1.105   6.334  13.993  0.9551  0.1806 -0.5056
 7739TIP3   OH244707   2.095   0.385  16.145  0.4665  0.4022  0.7801
 7739TIP3    H144708   2.071   0.321  16.211  1.3121  1.2871  1.9671
 7739TIP3    H244709   2.065   0.469  16.180  0.5889  0.8416 -0.1348
 7740TIP3   OH244710   4.841   6.480  10.688  0.3326  0.1606  0.4983
 7740TIP3    H144711   4.785   6.410  10.720 -1.3732  0.8217 -0.9262
 7740TIP3    H244712   4.842   6.468  10.593  0.3528  1.8147  0.2781
 7741TIP3   OH244713   1.983   5.220   5.387 -0.1789 -0.0417  0.6023
 7741TIP3    H144714   1.963   5.146   5.330 -0.2357  1.0895 -0.9007
 7741TIP3    H244715   2.005   5.291   5.326  1.8383  0.6130  2.0465
 7742TIP3   OH244716   1.321   0.400  11.230  0.0073  0.2922  0.4610
 7742TIP3    H144717   1.226   0.411  11.221  0.1997  1.3999 -0.3437
 7742TIP3    H244718   1.336   0.400  11.325 -0.9036 -0.8770  0.6132
 7743TIP3   OH244719   4.995   4.914  13.130 -0.0688 -0.7129  0.0272
 7743TIP3    H144720   4.952   4.881  13.209 -1.7309 -0.1556 -0.6297
 7743TIP3    H244721   5.012   5.006  13.150  2.2556 -1.2781  0.8707
 7744TIP3   OH244722   1.231   2.110  13.270 -0.0692  0.6256 -0.4799
 7744TIP3    H144723   1.179   2.160  13.207 -1.6265  1.0567  1.1258
 7744TIP3    H244724   1.226   2.020  13.239 -1.3827  0.7362 -0.6309
 7745TIP3   OH244725   2.831   6.732  12.227  0.5016 -0.2251  0.1015
 7745TIP3    H144726   2.769   6.790  12.271 -0.5438 -0.9161 -0.4129
 7745TIP3    H244727   2.911   6.783  12.218 -0.3688  1.0960 -0.2621
 7746TIP3   OH244728   0.235   2.075   3.267  0.0696 -0.6187  0.4539
 7746TIP3    H144729   0.243   1.989   3.227  3.0085 -0.7874  1.3126
 7746TIP3    H244730   0.323   2.112   3.264 -1.0052  2.1170  0.6756
 7747TIP3   OH244731   2.254   4.876  12.726  0.5668  0.3288  0.6231
 7747TIP3    H144732   2.233   4.960  12.686 -0.1628 -0.2487 -0.2124
 7747TIP3    H244733   2.327   4.842  12.674 -1.6494 -1.3283 -1.5170
 7748TIP3   OH244734   2.748   5.572   6.023  0.2076  0.0060 -0.3913
 7748TIP3    H144735   2.823   5.521   6.054 -1.1974 -1.2196  1.0731
 7748TIP3    H244736   2.717   5.525   5.945 -0.4814 -0.8368  0.3840
 7749TIP3   OH244737   1.235   2.528   0.370  0.0252  0.1012  0.2577
 7749TIP3    H144738   1.249   2.596   0.435  1.8744  0.2843 -0.2885
 7749TIP3    H244739   1.258   2.446   0.415 -0.4216  0.0291  0.3597
 7750TIP3   OH244740   2.407   3.420  15.882  0.4934  0.2524 -0.3101
 7750TIP3    H144741   2.437   3.400  15.793 -0.1112  1.2668 -0.7486
 7750TIP3    H244742   2.487   3.441  15.930  0.7634  0.3019 -0.7752
 7751TIP3   OH244743   0.509   6.217   1.222 -0.3427  0.3340  0.0637
 7751TIP3    H144744   0.555   6.163   1.158  1.2595 -0.2141  1.6274
 7751TIP3    H244745   0.470   6.287   1.170  0.1040 -0.6281 -1.6285
 7752TIP3   OH244746   4.591   5.633   4.094  0.2139 -0.4516 -0.1814
 7752TIP3    H144747   4.509   5.670   4.062  0.1281 -1.2259 -0.9005
 7752TIP3    H244748   4.625   5.697   4.156 -0.6054  0.1767 -0.3825
 7753TIP3   OH244749   3.317   6.038   1.355  0.0830 -0.3384  0.3173
 7753TIP3    H144750   3.262   6.099   1.307 -0.6872 -1.8738 -0.8052
 7753TIP3    H244751   3.267   6.018   1.435  1.0767  1.7214  1.4994
 7754TIP3   OH244752   4.135   0.781   4.514 -0.1091 -0.2232  0.0112
 7754TIP3    H144753   4.109   0.701   4.560 -2.8917  1.0831  0.7853
 7754TIP3    H244754   4.058   0.806   4.464  1.2388  1.1910 -1.4120
 7755TIP3   OH244755   4.795   1.044  14.319  0.7170  0.3407 -0.2159
 7755TIP3    H144756   4.884   1.076  14.308  0.6194  0.4184 -0.7938
 7755TIP3    H244757   4.744   1.091  14.253  0.7408 -1.7069 -1.7441
 7756TIP3   OH244758   2.732   4.906   1.230  0.3803  0.9126  0.5583
 7756TIP3    H144759   2.779   4.967   1.173 -0.0951  4.2261  3.5215
 7756TIP3    H244760   2.800   4.856   1.274  0.8795  0.8269 -0.3160
 7757TIP3   OH244761   2.690   4.296  13.779 -0.2697 -0.2952 -0.3057
 7757TIP3    H144762   2.746   4.259  13.711 -0.6866 -0.8846 -0.3305
 7757TIP3    H244763   2.616   4.333  13.731  0.2186  0.7215 -0.2961
 7758TIP3   OH244764   4.668   4.598   0.861  0.5705 -0.1116  0.1373
 7758TIP3    H144765   4.573   4.605   0.850  0.8272  1.7319 -1.1613
 7758TIP3    H244766   4.694   4.529   0.801 -0.1035 -1.6797  1.5936
 7759TIP3   OH244767   2.723   2.984  11.585 -0.2004  0.5324 -0.0148
 7759TIP3    H144768   2.766   2.959  11.667 -1.9546 -2.3484  0.0761
 7759TIP3    H244769   2.773   2.939  11.517 -0.2786  0.8973 -0.3139
 7760TIP3   OH244770   1.780   0.250  11.183 -0.0708 -0.1135  0.0790
 7760TIP3    H144771   1.708   0.268  11.123  0.4275 -0.4099 -0.6215
 7760TIP3    H244772   1.856   0.235  11.126  0.1802 -1.4674  0.7348
 7761TIP3   OH244773   2.514   1.974  16.343  0.0157  0.4849  0.5193
 7761TIP3    H144774   2.494   2.025  16.422 -0.7725  0.9533  0.0286
 7761TIP3    H244775   2.487   1.885  16.366 -0.5967  0.6965  0.6427
 7762TIP3   OH244776   1.346   4.834   4.205  0.1850 -0.4779 -0.0572
 7762TIP3    H144777   1.326   4.743   4.228 -1.6356  0.2010  1.0776
 7762TIP3    H244778   1.261   4.875   4.191  1.0301  0.7393 -1.8806
 7763TIP3   OH244779   5.579   1.985   5.047  0.0859  0.1012  0.1807
 7763TIP3    H144780   5.526   1.950   4.976  0.0295  0.6385 -0.0483
 7763TIP3    H244781   5.663   2.007   5.005  0.4631 -0.6679  0.5215
 7764TIP3   OH244782   2.469   5.586   3.789  0.2561  0.0714 -0.3441
 7764TIP3    H144783   2.558   5.555   3.804  0.5631  1.1402  0.1137
 7764TIP3    H244784   2.466   5.608   3.696 -0.0606 -1.6048 -0.7397
 7765TIP3   OH244785   0.878   4.469   2.146 -0.3808 -0.1236  0.5988
 7765TIP3    H144786   0.951   4.426   2.102  0.7245  0.7938  1.4988
 7765TIP3    H244787   0.875   4.557   2.107 -0.5728  0.0721  1.0501
 7766TIP3   OH244788   1.052   4.149   3.658  0.2294  0.0548  0.1554
 7766TIP3    H144789   1.094   4.076   3.613 -1.2309  1.5912 -3.9454
 7766TIP3    H244790   0.969   4.113   3.691  1.9663 -1.4531  3.0422
 7767TIP3   OH244791   2.903   4.169   2.719 -0.0572 -0.7385  0.1141
 7767TIP3    H144792   2.821   4.186   2.765 -0.2821 -1.5742  0.0206
 7767TIP3    H244793   2.956   4.247   2.737 -0.3643 -0.7823  1.2949
 7768TIP3   OH244794   1.906   6.434  16.792 -0.4465  0.7144  1.3596
 7768TIP3    H144795   1.972   6.495  16.823  0.1456  0.9810 -0.3505
 7768TIP3    H244796   1.955   6.355  16.770 -0.3721  1.5720 -1.7633
 7769TIP3   OH244797   5.810   3.021  13.245 -0.7278 -0.5390  0.0609
 7769TIP3    H144798   5.844   3.027  13.335  1.8961 -1.3162 -0.8510
 7769TIP3    H244799   5.735   2.962  13.252  1.5978 -3.5126  1.1848
 7770TIP3   OH244800   5.328   0.566  12.252  0.3804  0.7528  0.2132
 7770TIP3    H144801   5.335   0.634  12.185  0.1219  0.4643 -0.1015
 7770TIP3    H244802   5.266   0.602  12.316 -0.0426  0.6533 -0.1404
 7771TIP3   OH244803   4.519   4.579  13.031  0.3446  0.3157  0.0706
 7771TIP3    H144804   4.529   4.669  13.000  0.4559  1.4987  3.3281
 7771TIP3    H244805   4.424   4.563  13.029  0.4380 -0.0314 -1.9027
 7772TIP3   OH244806   3.961   6.256   2.842  0.0344 -0.4840  0.2566
 7772TIP3    H144807   3.949   6.300   2.758  0.7861  0.8881  0.8463
 7772TIP3    H244808   3.988   6.326   2.902 -2.0681 -1.1413  2.0342
 7773TIP3   OH244809   5.750   2.487  12.805 -0.5067 -0.2974  0.5518
 7773TIP3    H144810   5.772   2.559  12.745 -0.1926 -1.9558 -1.3458
 7773TIP3    H244811   5.660   2.465  12.784 -0.5254 -0.6212  0.9663
 7774TIP3   OH244812   1.740   0.482  13.898  0.1036  0.0559  0.1391
 7774TIP3    H144813   1.674   0.441  13.843  0.4491 -0.7952  0.3585
 7774TIP3    H244814   1.814   0.498  13.838  0.4440 -0.7843  0.3360
 7775TIP3   OH244815   1.165   3.774   4.188 -0.0475  0.3063 -0.2624
 7775TIP3    H144816   1.078   3.737   4.176 -0.6084  0.7170  2.2662
 7775TIP3    H244817   1.171   3.791   4.282  2.9926 -0.2727 -0.3093
 7776TIP3   OH244818   5.109   6.426  12.799  0.8169  0.8073 -0.1988
 7776TIP3    H144819   5.168   6.487  12.844  2.0922  0.2201 -1.0483
 7776TIP3    H244820   5.051   6.482  12.748  1.1121  1.3660  0.0701
 7777TIP3   OH244821   2.116   3.470   1.344  0.0655  0.3188  0.2946
 7777TIP3    H144822   2.040   3.511   1.302 -0.0218  0.9363  1.0283
 7777TIP3    H244823   2.144   3.535   1.409 -0.4731 -1.0475  1.9467
 7778TIP3   OH244824   0.544   4.637  14.300 -0.3062 -0.5530  0.3210
 7778TIP3    H144825   0.550   4.716  14.246  1.3050 -0.3393  0.7922
 7778TIP3    H244826   0.481   4.659  14.368  0.1258  0.3353  0.4419
 7779TIP3   OH244827   2.866   3.613  13.981  0.7621  0.0607 -0.2692
 7779TIP3    H144828   2.891   3.612  14.074  0.1604  0.8853 -0.0910
 7779TIP3    H244829   2.771   3.613  13.982  0.7181 -1.7869 -0.9271
 7780TIP3   OH244830   3.991   2.949   0.102  0.7334  0.1678  0.3942
 7780TIP3    H144831   3.937   2.873   0.123  1.0836 -0.5322 -1.1739
 7780TIP3    H244832   3.987   3.003   0.181 -1.9260 -0.0551  0.4694
 7781TIP3   OH244833   3.673   3.678  15.462  0.0195 -0.0293  0.1304
 7781TIP3    H144834   3.616   3.632  15.523  1.2913 -1.2922  0.4064
 7781TIP3    H244835   3.688   3.615  15.391  1.3686  0.1403  0.2559
 7782TIP3   OH244836   3.996   0.331   0.192 -0.3382 -0.6522  1.0596
 7782TIP3    H144837   3.968   0.341   0.100 -0.1437 -1.4741  0.9091
 7782TIP3    H244838   4.059   0.259   0.190  1.2350  0.6707  1.5171
 7783TIP3   OH244839   0.425   4.205   3.046  0.0057  0.8166  0.3329
 7783TIP3    H144840   0.432   4.235   3.136 -0.1181  1.8307  0.0038
 7783TIP3    H244841   0.447   4.112   3.050 -0.6384  0.7080  1.5044
 7784TIP3   OH244842   6.477   2.064   2.464 -0.1559  0.4675  0.1200
 7784TIP3    H144843   6.463   2.005   2.390  0.7378  1.1527 -0.6028
 7784TIP3    H244844   6.453   2.012   2.541  0.7654 -0.8812 -0.4913
 7785TIP3   OH244845   2.401   3.867   4.633  0.1137  0.0307 -0.7245
 7785TIP3    H144846   2.307   3.846   4.631 -0.3364  1.9248 -1.0306
 7785TIP3    H244847   2.432   3.830   4.716 -1.3377  0.9969  0.3014
 7786TIP3   OH244848   6.271   0.604   3.568 -0.2026 -0.2501 -0.1883
 7786TIP3    H144849   6.195   0.582   3.514  0.4218  0.2522 -1.3099
 7786TIP3    H244850   6.290   0.524   3.617 -0.9371 -0.6478 -0.5421
 7787TIP3   OH244851   6.171   3.768   3.335  0.2387  0.0730  0.3015
 7787TIP3    H144852   6.152   3.772   3.241  1.6765 -2.7015 -0.1634
 7787TIP3    H244853   6.260   3.802   3.343  1.6344 -3.3398  0.0694
 7788TIP3   OH244854   4.534   2.728   2.227  0.5261 -0.4911  0.1452
 7788TIP3    H144855   4.450   2.722   2.181  0.5220  0.2686  0.0439
 7788TIP3    H244856   4.593   2.769   2.164  0.7559 -0.2814  0.4915
 7789TIP3   OH244857   5.165   6.447  11.849  0.2687 -0.1656 -0.7546
 7789TIP3    H144858   5.141   6.469  11.759 -0.1318  3.9329  0.2578
 7789TIP3    H244859   5.086   6.465  11.900  1.7570  1.7233  0.9556
 7790TIP3   OH244860   5.359   1.227   1.066 -0.1773  0.8438  0.7035
 7790TIP3    H144861   5.360   1.238   1.161  0.5960  0.7974  0.7031
 7790TIP3    H244862   5.422   1.291   1.033 -0.3274  0.7567  0.2365
 7791TIP3   OH244863   1.044   2.930   0.294 -0.4620  0.2180  0.1206
 7791TIP3    H144864   0.971   2.977   0.334  0.5043  1.2965  0.6289
 7791TIP3    H244865   1.051   2.850   0.346 -0.2858  0.8377  1.0603
 7792TIP3   OH244866   4.751   2.290   2.203  0.2084 -0.0547 -0.1024
 7792TIP3    H144867   4.709   2.359   2.254 -0.1637 -0.7828  0.5932
 7792TIP3    H244868   4.741   2.211   2.257  0.7642 -0.6203 -0.8136
 7793TIP3   OH244869   6.120   2.405   5.934 -0.1574  0.2540  0.3092
 7793TIP3    H144870   6.105   2.380   6.025 -3.3761 -0.7826 -0.4392
 7793TIP3    H244871   6.095   2.327   5.884  1.5615  0.8224 -1.4754
 7794TIP3   OH244872   3.721   5.534   3.123 -0.0585  0.3756  0.2910
 7794TIP3    H144873   3.790   5.507   3.062 -0.5300  1.2433 -0.6439
 7794TIP3    H244874   3.649   5.472   3.106  0.1137  0.1113  0.5344
 7795TIP3   OH244875   3.210   0.679   4.190 -0.0981 -0.1190 -0.3230
 7795TIP3    H144876   3.216   0.747   4.257 -0.5447 -0.1040 -0.2905
 7795TIP3    H244877   3.194   0.727   4.109  2.1947 -0.0285 -0.7449
 7796TIP3   OH244878   0.540   1.886   3.946 -0.2456 -0.2237 -0.2459
 7796TIP3    H144879   0.588   1.942   4.007 -1.5487  0.8827 -0.2009
 7796TIP3    H244880   0.518   1.808   3.997  2.6254 -1.3447 -0.6530
 7797TIP3   OH244881   6.034   2.253  11.936 -0.2244 -0.1056  0.6325
 7797TIP3    H144882   6.011   2.285  12.023  1.9170  0.7216  0.9217
 7797TIP3    H244883   6.110   2.305  11.911 -1.1588  0.0670 -1.9768
 7798TIP3   OH244884   0.360   4.187   0.068 -0.0154  0.0344 -0.4926
 7798TIP3    H144885   0.388   4.101   0.036 -2.3845 -0.3856 -1.5481
 7798TIP3    H244886   0.355   4.177   0.163  2.2505 -0.1976 -0.3756
 7799TIP3   OH244887   3.777   3.254   0.517 -0.3412  0.2668  0.2955
 7799TIP3    H144888   3.784   3.299   0.432 -2.2693  1.2231  0.6119
 7799TIP3    H244889   3.718   3.180   0.500 -0.8596  0.5536  0.8313
 7800TIP3   OH244890   5.650   2.736   2.293  0.2253  0.2423  0.0354
 7800TIP3    H144891   5.554   2.740   2.301  0.3644  3.1101  0.6587
 7800TIP3    H244892   5.680   2.710   2.380  0.1026  1.3625  0.4225
 7801TIP3   OH244893   1.422   0.531  14.226 -0.3076 -0.0780 -0.3330
 7801TIP3    H144894   1.399   0.526  14.133  0.9582  0.7388 -0.7046
 7801TIP3    H244895   1.422   0.440  14.256  0.2392 -0.4317 -1.3833
 7802TIP3   OH244896   2.374   2.850  12.870 -0.0162 -0.4288 -0.3267
 7802TIP3    H144897   2.350   2.888  12.785  0.7586 -0.0803 -0.4032
 7802TIP3    H244898   2.293   2.848  12.920  0.0541  2.1987 -0.0105
 7803TIP3   OH244899   3.448   4.202   5.088 -0.0749 -0.1976 -0.6946
 7803TIP3    H144900   3.506   4.138   5.130  0.8982 -0.0065 -1.7192
 7803TIP3    H244901   3.429   4.266   5.157 -1.4685 -1.8314  0.4942
 7804TIP3   OH244902   3.175   1.968   3.047 -0.0547  1.1552 -0.2152
 7804TIP3    H144903   3.193   2.039   3.109  1.3152  1.7350 -1.2378
 7804TIP3    H244904   3.122   2.009   2.978 -1.3793  0.5685  0.4405
 7805TIP3   OH244905   5.249   3.225   4.819 -0.1464 -0.1612 -0.2355
 7805TIP3    H144906   5.161   3.258   4.838 -0.2064 -0.6575  0.3439
 7805TIP3    H244907   5.239   3.130   4.818  0.8368 -0.3041  2.0575
 7806TIP3   OH244908   0.578   3.564   1.592  0.2954 -0.5295  0.3972
 7806TIP3    H144909   0.598   3.595   1.504 -2.6086  1.3778  0.3383
 7806TIP3    H244910   0.656   3.583   1.643  0.7561  1.5106 -1.0161
 7807TIP3   OH244911   1.780   3.025   4.567 -0.2081 -0.4940 -0.3962
 7807TIP3    H144912   1.786   2.933   4.592 -0.0501  0.0118  1.4602
 7807TIP3    H244913   1.737   3.068   4.641 -1.9441  0.6281 -1.9958
 7808TIP3   OH244914   3.731   5.839  13.959 -0.1388 -1.1580  0.3564
 7808TIP3    H144915   3.757   5.917  14.008 -0.1904 -0.5145 -0.6037
 7808TIP3    H244916   3.707   5.775  14.025  2.3923 -1.2566  1.2496
 7809TIP3   OH244917   3.889   5.618   4.259 -0.3845  0.0867  0.4949
 7809TIP3    H144918   3.899   5.682   4.329 -0.2081  1.0906 -0.4404
 7809TIP3    H244919   3.967   5.627   4.205 -0.2749 -1.0348  0.4441
 7810TIP3   OH244920   0.391   4.320  10.742  0.1288 -0.8726 -0.7676
 7810TIP3    H144921   0.479   4.285  10.732  0.9912  1.2119 -0.8753
 7810TIP3    H244922   0.349   4.306  10.657  0.7700 -0.7923 -1.0996
 7811TIP3   OH244923   2.196   0.099   6.004 -0.1532 -0.3724 -0.5283
 7811TIP3    H144924   2.157   0.075   5.920  0.6531 -1.4555 -0.5998
 7811TIP3    H244925   2.283   0.133   5.981  0.1382 -0.8385 -0.1132
 7812TIP3   OH244926   3.516   3.527  16.455  0.4004  0.5643 -0.0250
 7812TIP3    H144927   3.458   3.600  16.434  1.4391  1.4349  0.0856
 7812TIP3    H244928   3.466   3.473  16.516 -0.0807  1.6156  0.5103
 7813TIP3   OH244929   2.440   0.808  12.255 -0.3611 -0.5408 -0.6260
 7813TIP3    H144930   2.418   0.894  12.291 -2.8557 -0.3692 -2.4148
 7813TIP3    H244931   2.518   0.781  12.303 -0.0436  2.3345  0.5770
 7814TIP3   OH244932   4.364   0.289  11.684  0.0868 -0.0850  0.3045
 7814TIP3    H144933   4.407   0.312  11.766  0.2049 -1.2968  0.5770
 7814TIP3    H244934   4.293   0.353  11.677  1.3092  1.3126  0.3280
 7815TIP3   OH244935   2.184   3.497  12.712 -0.2246  0.0822  0.0522
 7815TIP3    H144936   2.232   3.415  12.722 -0.0540  0.1440 -0.2519
 7815TIP3    H244937   2.188   3.516  12.618 -0.1114  0.5247  0.1445
 7816TIP3   OH244938   0.274   0.451   2.339 -0.1055 -0.8310  0.3381
 7816TIP3    H144939   0.253   0.530   2.389  1.3332 -0.2758  0.0762
 7816TIP3    H244940   0.202   0.443   2.276 -1.0773 -0.6228  1.4165
 7817TIP3   OH244941   4.995   6.181  12.190  0.3839  0.5383  0.3673
 7817TIP3    H144942   5.003   6.088  12.210 -0.6244  0.3596 -0.0284
 7817TIP3    H244943   5.083   6.207  12.161  0.6591 -0.2941  0.4334
 7818TIP3   OH244944   0.201   0.443   3.907  0.2161 -0.3721  0.3195
 7818TIP3    H144945   0.245   0.447   3.822 -0.9636 -1.3985 -0.3429
 7818TIP3    H244946   0.258   0.387   3.960  1.3040  0.8135  0.4310
 7819TIP3   OH244947   1.909   5.666  14.442 -0.2343 -0.4199  0.5891
 7819TIP3    H144948   1.827   5.673  14.393 -0.7608  0.6460  1.5917
 7819TIP3    H244949   1.978   5.667  14.375 -0.9911 -0.2291 -0.1869
 7820TIP3   OH244950   5.741   2.706   2.547 -0.4261  0.4241  0.1668
 7820TIP3    H144951   5.674   2.656   2.592  0.8440 -0.9612  0.5726
 7820TIP3    H244952   5.793   2.746   2.617 -0.4119  0.9200 -0.1232
 7821TIP3   OH244953   2.799   1.744   0.171  0.0571 -0.6800 -0.4179
 7821TIP3    H144954   2.876   1.798   0.186  0.3470 -1.2520  0.2111
 7821TIP3    H244955   2.729   1.806   0.151  0.3893 -0.0749  0.2672
 7822TIP3   OH244956   6.437   5.275  13.098  0.5895 -0.7662 -0.5756
 7822TIP3    H144957   6.439   5.188  13.059 -1.2802 -0.6852 -0.9246
 7822TIP3    H244958   6.355   5.277  13.147  1.6353  0.0629  1.1967
 7823TIP3   OH244959   4.382   6.625  13.977  0.0015  0.4440  0.0650
 7823TIP3    H144960   4.414   6.637  13.887 -0.6992 -0.2771 -0.2874
 7823TIP3    H244961   4.460   6.598  14.026  0.1701 -0.2489 -0.5610
 7824TIP3   OH244962   4.835   5.063   4.819 -0.5838  0.2444  0.1444
 7824TIP3    H144963   4.840   5.111   4.902 -0.5654  0.4610  0.0171
 7824TIP3    H244964   4.757   5.008   4.829 -1.5787  1.5492 -0.3719
 7825TIP3   OH244965   2.114   5.461   1.424  0.0325  0.4743  0.5945
 7825TIP3    H144966   2.169   5.427   1.354 -2.5652  2.1826 -2.4452
 7825TIP3    H244967   2.152   5.426   1.505  1.4120 -4.0521 -1.8340
 7826TIP3   OH244968   1.952   1.641  16.976  0.3404  1.0531 -0.2848
 7826TIP3    H144969   1.980   1.640  17.068  1.2855  0.3483 -0.5690
 7826TIP3    H244970   1.882   1.706  16.973 -1.2256 -0.4931  1.4016
 7827TIP3   OH244971   6.380   4.595  13.761 -0.3492  0.3454  0.0159
 7827TIP3    H144972   6.378   4.659  13.832  1.2387 -0.5329  0.8874
 7827TIP3    H244973   6.446   4.627  13.700  0.1521 -0.2305  0.2469
 7828TIP3   OH244974   5.897   6.095  13.006 -0.1188  0.4970  0.0204
 7828TIP3    H144975   5.962   6.164  13.021  0.9470 -0.3276 -0.7168
 7828TIP3    H244976   5.893   6.086  12.911 -0.4959 -0.2200  0.1040
 7829TIP3   OH244977   5.253   1.512   1.702  0.1918 -0.8176  0.4052
 7829TIP3    H144978   5.346   1.490   1.714  0.2623 -0.1599  1.0765
 7829TIP3    H244979   5.233   1.570   1.775 -0.8834 -1.3639  0.5475
 7830TIP3   OH244980   5.689   2.523   4.600 -0.1975 -0.4221 -0.1152
 7830TIP3    H144981   5.657   2.599   4.650  2.7228  0.0897  1.0229
 7830TIP3    H244982   5.693   2.555   4.509  2.8672  1.4704  0.6215
 7831TIP3   OH244983   4.136   2.606   0.722  0.0931  0.4645  0.3708
 7831TIP3    H144984   4.203   2.627   0.657  3.1930 -1.4337  2.8109
 7831TIP3    H244985   4.157   2.661   0.797 -0.5127 -0.8629  1.5296
 7832TIP3   OH244986   4.182   1.608   4.756 -0.2797 -0.9611  0.1027
 7832TIP3    H144987   4.152   1.627   4.845 -0.2703  1.7387 -0.4315
 7832TIP3    H244988   4.277   1.599   4.764  0.2411  3.4134 -0.2276
 7833TIP3   OH244989   2.559   4.074  17.227 -0.0830  0.3225  0.0253
 7833TIP3    H144990   2.505   4.151  17.209 -2.1465 -0.9947  0.3605
 7833TIP3    H244991   2.581   4.081  17.319 -2.0099 -0.4844  0.5884
 7834TIP3   OH244992   6.416   6.043  14.667 -0.1255  0.2045  0.6294
 7834TIP3    H144993   6.476   5.973  14.643 -2.4106 -1.7855  0.4655
 7834TIP3    H244994   6.461   6.091  14.736  1.9657 -0.7412 -0.0460
 7835TIP3   OH244995   1.436   2.205   5.926 -0.2828  0.2880  0.1686
 7835TIP3    H144996   1.417   2.239   6.013  2.1091  3.2179 -0.3605
 7835TIP3    H244997   1.497   2.132   5.941  1.4330  1.8328  0.9149
 7836TIP3   OH244998   0.364   2.845  11.777  0.1309 -0.5946 -0.0411
 7836TIP3    H144999   0.357   2.866  11.684  1.4466 -1.3043 -0.3104
 7836TIP3    H245000   0.458   2.839  11.793 -0.0908 -0.5900  1.3126
 7837TIP3   OH245001   4.359   4.751   6.564 -0.4792  0.3860  0.1011
 7837TIP3    H145002   4.366   4.773   6.657 -0.2679 -0.3696  0.2690
 7837TIP3    H245003   4.374   4.834   6.519  1.9385  0.3072  0.6830
 7838TIP3   OH245004   3.795   6.477   4.915 -0.2320 -0.7616 -0.7014
 7838TIP3    H145005   3.715   6.529   4.926 -0.0298 -0.5187 -0.3665
 7838TIP3    H245006   3.785   6.404   4.976  0.6468  0.2934  0.7277
 7839TIP3   OH245007   3.674   1.001  14.620  0.4966 -0.0756  0.4570
 7839TIP3    H145008   3.754   1.055  14.621  0.4638 -0.0347  1.8828
 7839TIP3    H245009   3.694   0.929  14.561  1.1332  0.6175 -0.1868
 7840TIP3   OH245010   5.350   6.367  13.305  0.0591  0.8677 -0.0006
 7840TIP3    H145011   5.305   6.341  13.224  1.6010 -1.8459 -0.0666
 7840TIP3    H245012   5.442   6.376  13.279  0.4023  1.0038  1.2376
 7841TIP3   OH245013   3.284   0.479  14.573 -0.0988 -0.4095  0.0371
 7841TIP3    H145014   3.228   0.431  14.636  0.4244 -2.9370 -1.3406
 7841TIP3    H245015   3.230   0.487  14.495 -0.3934  1.8855  0.4379
 7842TIP3   OH245016   1.962   1.936   0.816  0.0223  0.4843  0.4458
 7842TIP3    H145017   2.003   2.015   0.850 -0.6461  1.1386 -0.2464
 7842TIP3    H245018   1.885   1.924   0.872 -0.1124  0.5736  0.2817
 7843TIP3   OH245019   3.446   3.509   0.869  0.0032 -0.0022  0.1052
 7843TIP3    H145020   3.534   3.536   0.896  0.1209 -0.8245  0.5419
 7843TIP3    H245021   3.389   3.578   0.903  0.3876  0.1037  0.5380
 7844TIP3   OH245022   0.991   1.164   5.319 -0.1583 -0.2711 -0.6857
 7844TIP3    H145023   0.973   1.133   5.408  0.8627  0.0686 -0.3625
 7844TIP3    H245024   0.907   1.154   5.274 -1.0594  0.8264  0.6891
 7845TIP3   OH245025   4.646   0.111   0.491 -1.0046 -0.4622  0.4665
 7845TIP3    H145026   4.715   0.149   0.546  0.1908 -2.5451  0.4418
 7845TIP3    H245027   4.655   0.155   0.407 -0.0306 -0.3704  0.6141
 7846TIP3   OH245028   4.269   6.639   2.359 -0.1487  0.1335 -0.1388
 7846TIP3    H145029   4.255   6.564   2.417 -1.9007  0.0644 -0.6405
 7846TIP3    H245030   4.292   6.600   2.274  0.1469  0.1970 -0.0903
 7847TIP3   OH245031   5.277   1.648  13.964 -0.3166 -0.0828  0.1907
 7847TIP3    H145032   5.200   1.607  14.003 -0.4898  0.8993  0.9132
 7847TIP3    H245033   5.352   1.602  14.002 -0.4890  0.7196  1.5354
 7848TIP3   OH245034   5.606   3.033  17.225  0.6052 -0.1396  0.0079
 7848TIP3    H145035   5.532   3.094  17.229  1.7673  1.2461  0.7393
 7848TIP3    H245036   5.643   3.035  17.313 -0.4588 -3.3564  0.6085
 7849TIP3   OH245037   1.242   5.285   0.459  0.1560  0.1914 -0.7482
 7849TIP3    H145038   1.152   5.268   0.488  1.1352 -2.6876  0.8085
 7849TIP3    H245039   1.264   5.209   0.405  1.7049  0.8208 -1.0085
 7850TIP3   OH245040   3.825   4.744  16.220  0.5968  0.4289 -0.0465
 7850TIP3    H145041   3.874   4.744  16.138  0.8997  3.3880  0.0796
 7850TIP3    H245042   3.764   4.671  16.212  0.7308  0.5728 -2.8489
 7851TIP3   OH245043   6.252   5.042   4.388  0.2952 -0.0481  0.1030
 7851TIP3    H145044   6.235   5.110   4.322 -1.4779 -0.2599  0.3315
 7851TIP3    H245045   6.175   5.044   4.445  0.8488 -1.3373  0.9097
 7852TIP3   OH245046   3.716   6.176   3.205 -0.3046 -0.0217 -0.0524
 7852TIP3    H145047   3.673   6.217   3.280  0.5523 -0.7787  0.8664
 7852TIP3    H245048   3.700   6.236   3.132 -0.2856  1.2280  0.9583
 7853TIP3   OH245049   3.514   4.843   3.375 -0.0108 -0.0909 -0.4506
 7853TIP3    H145050   3.464   4.920   3.399  0.8960  1.1339 -2.4193
 7853TIP3    H245051   3.453   4.790   3.324 -0.7635 -0.9335  1.2465
 7854TIP3   OH245052   0.433   2.208   6.462 -0.0663  0.6255 -0.3977
 7854TIP3    H145053   0.527   2.199   6.448 -0.1670 -1.3658  0.1283
 7854TIP3    H245054   0.394   2.192   6.376  0.1750  3.8530 -1.1685
 7855TIP3   OH245055   6.715   0.689   0.872 -0.4435 -0.1131  0.5284
 7855TIP3    H145056   6.801   0.656   0.898 -1.3999 -1.8687  1.6016
 7855TIP3    H245057   6.720   0.698   0.777  1.0150  0.0700  0.6191
 7856TIP3   OH245058   3.230   5.056  12.576 -0.1360 -0.1617 -0.1167
 7856TIP3    H145059   3.290   5.119  12.535 -1.0445  0.6592 -0.2026
 7856TIP3    H245060   3.259   5.051  12.667  0.4574 -0.2478 -0.3063
 7857TIP3   OH245061   4.379   1.072   2.562 -0.2915 -0.2126  0.1698
 7857TIP3    H145062   4.469   1.053   2.535 -0.0360  1.1607 -0.0190
 7857TIP3    H245063   4.356   1.002   2.622  1.4286  0.2025  1.3540
 7858TIP3   OH245064   2.485   0.670  16.570  0.2504  0.3529  0.0758
 7858TIP3    H145065   2.427   0.736  16.608 -3.7556 -1.1178 -3.1608
 7858TIP3    H245066   2.473   0.679  16.475  3.0161 -2.1079 -0.5766
 7859TIP3   OH245067   1.363   5.055  14.289 -0.5175 -0.4296  0.2824
 7859TIP3    H145068   1.278   5.089  14.317 -0.2459 -1.7119  2.8238
 7859TIP3    H245069   1.404   5.025  14.370  2.2787 -0.0450 -0.9467
 7860TIP3   OH245070   3.446   1.468  16.768  0.4116  0.3525 -0.3728
 7860TIP3    H145071   3.415   1.384  16.733 -0.0458  1.0478 -1.6712
 7860TIP3    H245072   3.367   1.516  16.791  0.6654  0.4956  0.2003
 7861TIP3   OH245073   4.368   4.020   0.367  0.3585 -0.5892 -0.4681
 7861TIP3    H145074   4.353   4.040   0.459 -1.8799 -1.0514 -0.7052
 7861TIP3    H245075   4.433   4.085   0.339  1.1759 -0.5480  1.4538
 7862TIP3   OH245076   2.815   2.034   6.095  0.0208  0.1082 -0.3783
 7862TIP3    H145077   2.906   2.004   6.099 -0.1974 -0.5419 -0.1558
 7862TIP3    H245078   2.803   2.084   6.176 -0.0208 -0.4095 -0.0564
 7863TIP3   OH245079   6.494   3.926  14.037 -0.3484  0.0046 -0.2002
 7863TIP3    H145080   6.486   3.878  13.955  3.1952  0.7880 -1.0792
 7863TIP3    H245081   6.485   4.018  14.013 -1.3489  0.1332  0.6198
 7864TIP3   OH245082   6.474   3.615  13.960 -0.0656  0.4102 -0.4526
 7864TIP3    H145083   6.472   3.660  14.044 -0.4082 -1.6244  0.6660
 7864TIP3    H245084   6.498   3.525  13.981 -0.3771 -0.1984 -2.5071
 7865TIP3   OH245085   6.274   2.386  11.852 -0.1432 -0.1208  0.6448
 7865TIP3    H145086   6.266   2.420  11.762 -1.0023 -0.6945  0.4978
 7865TIP3    H245087   6.302   2.462  11.904 -0.8334  0.5136  0.1067
 7866TIP3   OH245088   3.846   5.153   5.399  0.2018 -0.4294  0.0904
 7866TIP3    H145089   3.783   5.155   5.327 -1.6995 -0.8844  1.7207
 7866TIP3    H245090   3.832   5.069   5.441  1.6750 -0.3942  0.6752
 7867TIP3   OH245091   3.514   3.645  12.386 -0.4040 -0.0146  0.0146
 7867TIP3    H145092   3.439   3.696  12.357  0.1162 -1.1613 -3.5944
 7867TIP3    H245093   3.494   3.555  12.359  1.4417 -0.6543  0.6799
 7868TIP3   OH245094   5.275   6.744  15.653 -0.0598  0.2791 -0.0412
 7868TIP3    H145095   5.303   6.655  15.677  1.1649  0.7462  0.3103
 7868TIP3    H245096   5.251   6.784  15.737  1.5785  1.0187  0.0800
 7869TIP3   OH245097   5.063   5.101  13.994  0.0602  0.0837 -0.2874
 7869TIP3    H145098   5.144   5.149  14.013  0.3806 -0.1584 -1.0468
 7869TIP3    H245099   5.010   5.163  13.943  0.4368 -0.3323 -1.1906
 7870TIP3   OH245100   1.317   0.544   0.919  0.4765 -0.4625  0.0942
 7870TIP3    H145101   1.237   0.544   0.867  0.4112 -0.0617  0.1889
 7870TIP3    H245102   1.295   0.492   0.997 -0.2361  1.0241  0.9213
 7871TIP3   OH245103   4.758   1.224   1.292  0.3191  0.0259 -0.2300
 7871TIP3    H145104   4.799   1.138   1.276 -0.3023 -0.3363  0.1155
 7871TIP3    H245105   4.665   1.208   1.281  0.1122  0.4207  0.8848
 7872TIP3   OH245106   0.112   3.736  15.692 -0.1990  0.0878  0.0402
 7872TIP3    H145107   0.099   3.701  15.604  0.9435 -0.2817  0.0061
 7872TIP3    H245108   0.044   3.802  15.702 -0.2496  0.2291 -1.1679
 7873TIP3   OH245109   1.302   3.102  14.770  0.8931  0.0584  0.0899
 7873TIP3    H145110   1.369   3.111  14.702 -0.2125  0.8492 -0.9126
 7873TIP3    H245111   1.326   3.167  14.836  0.6666  0.9265 -0.6614
 7874TIP3   OH245112   5.009   1.777   0.461  0.2397 -0.3543 -0.1315
 7874TIP3    H145113   4.916   1.794   0.475  0.8945  2.9116  0.5696
 7874TIP3    H245114   5.035   1.840   0.394  2.0763 -0.9004  0.0361
 7875TIP3   OH245115   5.770   5.435   4.405  0.3786  0.0893 -0.1039
 7875TIP3    H145116   5.689   5.439   4.456 -0.1966 -0.2988 -0.9803
 7875TIP3    H245117   5.760   5.503   4.338  0.8392  0.1405 -0.1240
 7876TIP3   OH245118   2.513   4.639  13.470  0.2220  0.5924  0.2401
 7876TIP3    H145119   2.597   4.617  13.510  0.2032  1.7328  0.9221
 7876TIP3    H245120   2.455   4.567  13.496  1.0881 -0.4471 -0.6268
 7877TIP3   OH245121   5.678   3.179  14.170 -0.0311  0.2317  0.0278
 7877TIP3    H145122   5.734   3.232  14.227  1.4874 -1.6208  0.3475
 7877TIP3    H245123   5.691   3.214  14.083  0.6247  0.6697  0.2971
 7878TIP3   OH245124   1.174   5.692  12.560 -0.0451  0.5949  0.0238
 7878TIP3    H145125   1.142   5.694  12.470  0.7437  1.4201 -0.2523
 7878TIP3    H245126   1.178   5.599  12.582  1.0737  0.3161 -1.2880
 7879TIP3   OH245127   2.723   3.798   5.868 -0.0419 -0.3898 -0.4951
 7879TIP3    H145128   2.769   3.882   5.870 -1.0765  0.1680  0.1625
 7879TIP3    H245129   2.678   3.793   5.952 -0.2327 -1.4755 -0.6509
 7880TIP3   OH245130   0.613   2.578  13.909  0.7316 -0.2794  0.5208
 7880TIP3    H145131   0.603   2.653  13.849  2.2243 -0.3274  0.1748
 7880TIP3    H245132   0.651   2.510  13.854  1.0994 -0.6838  1.2793
 7881TIP3   OH245133   5.244   1.767   1.563  0.3889  0.0300  0.3271
 7881TIP3    H145134   5.175   1.832   1.580  0.3263  0.4804 -1.4939
 7881TIP3    H245135   5.198   1.683   1.562  0.0908  0.1890  0.4910
 7882TIP3   OH245136   6.022   3.114  12.704  1.1300 -0.3925  0.2720
 7882TIP3    H145137   6.036   3.029  12.747 -0.7626 -1.7549 -1.7417
 7882TIP3    H245138   5.955   3.098  12.638 -0.3166  2.9918  0.7706
 7883TIP3   OH245139   1.676   3.831  11.689  0.1207 -0.3656 -0.1021
 7883TIP3    H145140   1.583   3.807  11.689  0.4147 -1.5345  1.0500
 7883TIP3    H245141   1.701   3.828  11.596 -1.7830  3.2135 -0.8624
 7884TIP3   OH245142   2.759   6.231  17.223 -0.7798 -0.3785  0.3138
 7884TIP3    H145143   2.725   6.153  17.268 -1.2726 -0.9773 -1.0880
 7884TIP3    H245144   2.806   6.196  17.148 -0.7979  0.6708 -0.1821
 7885TIP3   OH245145   0.744   6.661  11.481  0.3387 -0.5763  0.2962
 7885TIP3    H145146   0.784   6.597  11.422 -0.1247  0.2378 -0.9020
 7885TIP3    H245147   0.750   6.744  11.435 -0.0971  0.0573  1.3672
 7886TIP3   OH245148   6.310   4.793   2.183 -0.3564  0.6312  0.4128
 7886TIP3    H145149   6.320   4.702   2.155 -2.4068  0.8269 -1.0330
 7886TIP3    H245150   6.294   4.787   2.278 -0.3738 -0.4781  0.3475
 7887TIP3   OH245151   3.198   2.654   0.302 -0.1719  0.6558 -0.7812
 7887TIP3    H145152   3.137   2.727   0.293 -1.0669 -0.1352 -1.2264
 7887TIP3    H245153   3.188   2.604   0.221 -1.1004 -1.1206  0.3984
 7888TIP3   OH245154   5.631   3.236   2.611 -0.0000  0.0517 -0.2152
 7888TIP3    H145155   5.566   3.277   2.554  1.1719  2.7176  0.3189
 7888TIP3    H245156   5.599   3.146   2.623 -1.6401  0.2372 -2.8982
 7889TIP3   OH245157   4.062   5.360   1.812 -0.2285 -0.1466 -1.1778
 7889TIP3    H145158   4.139   5.303   1.809  0.2560  0.4588 -0.4847
 7889TIP3    H245159   4.028   5.351   1.900  0.2064  1.0779 -0.8730
 7890TIP3   OH245160   5.003   2.871   3.786  0.2240 -0.2621 -0.5177
 7890TIP3    H145161   4.942   2.896   3.856 -2.7330 -2.4839 -2.1869
 7890TIP3    H245162   5.002   2.946   3.726 -0.5738 -0.1433 -0.3597
 7891TIP3   OH245163   5.346   0.321   3.112 -0.2034 -0.1668 -0.2533
 7891TIP3    H145164   5.412   0.259   3.144  0.7466  1.3793  0.8516
 7891TIP3    H245165   5.349   0.312   3.017 -1.0504 -2.7870 -0.0696
 7892TIP3   OH245166   1.813   5.337  12.390 -0.0085  0.4645 -0.7122
 7892TIP3    H145167   1.901   5.358  12.420 -0.7546  1.6395  0.7196
 7892TIP3    H245168   1.795   5.249  12.424  0.5800  0.2482 -0.9636
 7893TIP3   OH245169   5.851   6.632  11.051 -0.2338  0.2631  0.4208
 7893TIP3    H145170   5.908   6.569  11.006 -0.1214  2.0832 -2.0498
 7893TIP3    H245171   5.889   6.717  11.031 -2.1851  1.3328  1.1479
 7894TIP3   OH245172   3.767   3.391   2.007  0.7098  0.5397 -1.4164
 7894TIP3    H145173   3.675   3.366   1.996  0.4145  0.6077  0.6061
 7894TIP3    H245174   3.766   3.487   2.002  0.7641  0.5089 -2.0178
 7895TIP3   OH245175   0.340   4.964   0.620 -0.7496 -0.3037  0.3934
 7895TIP3    H145176   0.301   4.876   0.622 -2.8010  0.5960  0.9982
 7895TIP3    H245177   0.265   5.023   0.630  0.4990  1.5507 -1.0262
 7896TIP3   OH245178   4.424   5.879   3.778  0.0402  0.1402 -0.2635
 7896TIP3    H145179   4.405   5.800   3.828 -0.2520  1.0900  1.1731
 7896TIP3    H245180   4.339   5.905   3.741 -0.1882  0.6740  0.6172
 7897TIP3   OH245181   2.085   0.570  15.686 -0.2298  0.1309  0.2895
 7897TIP3    H145182   2.096   0.591  15.779  1.1395 -1.6185  0.5544
 7897TIP3    H245183   1.995   0.538  15.680 -0.3413  0.3006  1.0020
 7898TIP3   OH245184   6.185   1.033  12.145  0.1057  0.6316 -0.2692
 7898TIP3    H145185   6.187   1.110  12.087 -0.7273  0.1981 -0.8865
 7898TIP3    H245186   6.250   1.053  12.213 -0.1396  1.9165 -0.3840
 7899TIP3   OH245187   1.144   0.345   4.146 -0.5938  0.2999 -0.2972
 7899TIP3    H145188   1.183   0.382   4.225 -0.2485  0.8796 -0.7309
 7899TIP3    H245189   1.050   0.346   4.162 -0.6219  1.7647 -0.4579
 7900TIP3   OH245190   1.223   3.897   2.062  0.3981 -0.3240  0.0901
 7900TIP3    H145191   1.130   3.918   2.067  0.2727 -0.9022  0.1259
 7900TIP3    H245192   1.236   3.826   2.124  0.7054 -0.8071 -0.5200
 7901TIP3   OH245193   1.747   1.670  15.113  0.0378  0.1606  0.3541
 7901TIP3    H145194   1.742   1.620  15.194  1.5461 -0.4782  0.0627
 7901TIP3    H245195   1.791   1.751  15.137  0.3761  0.0235  0.1893
 7902TIP3   OH245196   3.806   4.161   1.378 -0.3948 -0.3842  0.1493
 7902TIP3    H145197   3.756   4.189   1.301  0.2437 -1.0712 -0.5191
 7902TIP3    H245198   3.748   4.180   1.452 -0.6348  1.1468 -0.4131
 7903TIP3   OH245199   4.996   4.369  10.652 -0.5157  0.4337 -0.0810
 7903TIP3    H145200   4.959   4.330  10.731  0.5387  0.8396  0.6249
 7903TIP3    H245201   5.019   4.294  10.597 -3.8080  0.2004 -1.2242
 7904TIP3   OH245202   3.554   1.192  11.192  0.6127  0.3475  0.2591
 7904TIP3    H145203   3.586   1.281  11.174  0.3197  0.1846 -1.1381
 7904TIP3    H245204   3.632   1.145  11.222  0.6560  1.2135  1.5234
 7905TIP3   OH245205   1.799   3.421   3.036  0.2618  0.3918 -0.7602
 7905TIP3    H145206   1.752   3.422   3.119  1.1973 -0.0542 -0.2215
 7905TIP3    H245207   1.795   3.330   3.007  4.1020 -0.5187  1.2157
 7906TIP3   OH245208   2.253   6.155   0.628 -0.3909  0.4464  0.0414
 7906TIP3    H145209   2.271   6.212   0.703  1.4874  0.5339 -0.4462
 7906TIP3    H245210   2.304   6.075   0.646 -1.3929 -0.2691 -0.2566
 7907TIP3   OH245211   0.045   5.633   5.921  0.6428 -0.6790  0.2123
 7907TIP3    H145212   0.080   5.691   5.988  0.4637  0.8040 -0.9558
 7907TIP3    H245213  -0.037   5.601   5.958  0.7229 -0.1632  0.8432
 7908TIP3   OH245214   6.320   1.054  13.840  0.4508 -0.1422 -0.5560
 7908TIP3    H145215   6.245   1.053  13.780 -0.5771  1.1005  0.6882
 7908TIP3    H245216   6.292   1.109  13.913  0.5173 -4.0759  2.6050
 7909TIP3   OH245217   6.724   3.917  14.858 -0.5288  0.3407 -0.6213
 7909TIP3    H145218   6.697   4.001  14.895  1.3811  1.2562 -1.2109
 7909TIP3    H245219   6.766   3.941  14.775  2.4675 -0.9299  0.4683
 7910TIP3   OH245220   0.868   3.706  14.425 -0.1775  0.0776  0.2682
 7910TIP3    H145221   0.954   3.676  14.455 -0.7034 -0.7295  0.9792
 7910TIP3    H245222   0.857   3.665  14.339 -0.3886 -0.8274  0.7264
 7911TIP3   OH245223   1.367   5.908   3.325  0.2848  0.1268 -0.3635
 7911TIP3    H145224   1.341   5.969   3.256 -0.4623 -0.5419 -0.6745
 7911TIP3    H245225   1.317   5.829   3.307 -1.6465  0.6790  2.2625
 7912TIP3   OH245226   4.617   3.264  14.376 -0.1201 -0.6294 -0.1078
 7912TIP3    H145227   4.553   3.203  14.339  0.7195 -1.1517 -0.7186
 7912TIP3    H245228   4.576   3.294  14.457 -0.2366 -2.5857  0.6070
 7913TIP3   OH245229   4.957   5.982  13.928 -0.4551 -0.4059 -0.3517
 7913TIP3    H145230   4.888   5.999  13.992 -0.1187 -0.2729 -0.0207
 7913TIP3    H245231   5.020   5.927  13.975  0.8895  1.4947  0.1407
 7914TIP3   OH245232   4.266   1.017   3.981 -0.3564  0.6669 -0.6203
 7914TIP3    H145233   4.311   1.039   3.899  1.4630 -0.4431  0.0326
 7914TIP3    H245234   4.266   0.922   3.983  0.9292  0.6669  1.3216
 7915TIP3   OH245235   5.213   6.272   2.115 -0.4944  0.2896 -0.1795
 7915TIP3    H145236   5.261   6.194   2.088 -1.3074 -0.3461  0.2372
 7915TIP3    H245237   5.278   6.324   2.162 -0.1838 -0.5335  0.3065
 7916TIP3   OH245238   1.683   6.094   1.419 -0.0893 -0.3180  0.0999
 7916TIP3    H145239   1.681   6.138   1.334  0.5989 -0.4660  0.0009
 7916TIP3    H245240   1.591   6.081   1.442 -0.3068  1.5502  0.3452
 7917TIP3   OH245241   4.567   3.724   0.334 -0.5195 -0.3442  0.0625
 7917TIP3    H145242   4.618   3.684   0.404  1.4333 -0.3455 -1.3201
 7917TIP3    H245243   4.577   3.818   0.348  0.9276 -0.3337 -0.9254
 7918TIP3   OH245244   5.211   1.081  12.432  0.0222 -0.2642 -0.4099
 7918TIP3    H145245   5.264   1.159  12.414 -0.9524  0.5005 -0.0746
 7918TIP3    H245246   5.159   1.105  12.509 -1.1345 -0.8162 -0.9992
 7919TIP3   OH245247   5.001   2.427  11.822 -0.0364 -0.0542 -0.2102
 7919TIP3    H145248   5.071   2.380  11.867  1.3855  0.2993 -2.0357
 7919TIP3    H245249   4.920   2.391  11.860  1.0854 -1.3552  0.9965
 7920TIP3   OH245250   2.389   3.699  12.833 -0.0698 -0.0251 -0.2344
 7920TIP3    H145251   2.328   3.771  12.847 -1.6560 -1.2397 -0.6571
 7920TIP3    H245252   2.336   3.620  12.845  2.0936 -1.1564  2.2663
 7921TIP3   OH245253   5.252   3.262  16.784 -0.1582  0.4065  0.2497
 7921TIP3    H145254   5.239   3.309  16.702  0.8288  0.2823  0.0198
 7921TIP3    H245255   5.169   3.216  16.799 -0.2414  0.2078 -0.8200
 7922TIP3   OH245256   0.865   1.371   3.218  0.3702  1.2665  0.3149
 7922TIP3    H145257   0.943   1.333   3.259  0.1109 -0.0591 -0.4333
 7922TIP3    H245258   0.798   1.368   3.287 -0.0375 -0.8780 -0.1556
 7923TIP3   OH245259   6.022   6.578  13.730  0.1798 -0.2095 -0.3590
 7923TIP3    H145260   6.114   6.603  13.737  0.4744 -2.2282  4.4163
 7923TIP3    H245261   6.023   6.500  13.675  0.9412  1.3497 -2.6345
 7924TIP3   OH245262   1.333   6.744  14.580  0.0695  0.5514  0.5699
 7924TIP3    H145263   1.295   6.707  14.500  0.8717  1.3778 -0.2014
 7924TIP3    H245264   1.342   6.837  14.561 -0.4051  0.8843  1.8965
 7925TIP3   OH245265   5.370   4.689   1.936 -0.5655  0.2710  0.0107
 7925TIP3    H145266   5.414   4.659   1.857 -2.9061 -0.5773 -1.0036
 7925TIP3    H245267   5.339   4.609   1.979 -1.6800  0.8655  0.3457
 7926TIP3   OH245268   5.840   3.194   2.392 -0.2029  0.0826 -0.5671
 7926TIP3    H145269   5.825   3.258   2.322 -0.9816 -0.5772 -1.0088
 7926TIP3    H245270   5.763   3.203   2.448 -0.8952 -1.2844 -1.2720
 7927TIP3   OH245271   1.892   4.168   5.058 -0.6178  0.2019  0.4731
 7927TIP3    H145272   1.827   4.210   5.114  1.5342  1.1681  2.3449
 7927TIP3    H245273   1.971   4.164   5.112  0.6822 -1.5888 -1.4771
 7928TIP3   OH245274   2.541   3.207   2.755 -0.2101 -0.3821 -0.3324
 7928TIP3    H145275   2.502   3.139   2.700 -1.3688 -0.4813  0.5981
 7928TIP3    H245276   2.524   3.289   2.708  1.1563 -0.7170 -1.4366
 7929TIP3   OH245277   5.907   5.089   4.960 -0.3344 -0.0945  0.3817
 7929TIP3    H145278   5.826   5.045   4.935 -0.0997 -1.1667  1.4642
 7929TIP3    H245279   5.879   5.172   4.997 -1.0811 -1.2935  2.5657
 7930TIP3   OH245280   0.570   1.289   0.226  0.2146 -0.0616 -0.6855
 7930TIP3    H145281   0.585   1.195   0.229 -0.1288 -0.1008  0.0040
 7930TIP3    H245282   0.655   1.328   0.243  0.1498 -0.2565  0.0972
 7931TIP3   OH245283   4.195   3.290  17.159 -0.0400  0.4009 -0.0999
 7931TIP3    H145284   4.134   3.223  17.188  0.9889 -1.9149 -3.0096
 7931TIP3    H245285   4.168   3.309  17.069  2.3828  0.6320 -0.8259
 7932TIP3   OH245286   0.667   1.316   4.919  0.4301  0.1636 -0.2526
 7932TIP3    H145287   0.763   1.322   4.915  0.2643  3.0603 -0.7429
 7932TIP3    H245288   0.638   1.322   4.828 -0.2510 -0.4352 -0.0824
 7933TIP3   OH245289   0.348   5.277  10.813 -0.0185 -0.1485  0.1019
 7933TIP3    H145290   0.311   5.345  10.869  0.1446  1.8291 -2.0942
 7933TIP3    H245291   0.310   5.195  10.846 -1.8064  1.2160  1.5274
 7934TIP3   OH245292   0.883   5.373  16.507  0.0210  0.1654  0.2739
 7934TIP3    H145293   0.916   5.291  16.543  0.2283 -0.6176 -1.6512
 7934TIP3    H245294   0.934   5.441  16.551  0.8834 -0.8085  0.7943
 7935TIP3   OH245295   0.741   2.952  11.549 -0.4559  0.0787 -0.2674
 7935TIP3    H145296   0.780   2.971  11.463  0.2504 -0.7814 -0.1440
 7935TIP3    H245297   0.648   2.937  11.530 -0.6505  1.6428 -0.6310
 7936TIP3   OH245298   4.992   2.323   3.122 -0.3721  0.1877  0.2363
 7936TIP3    H145299   5.019   2.237   3.155  1.1947  1.2679  1.8732
 7936TIP3    H245300   5.075   2.369   3.107 -1.1981  1.3476 -0.8016
 7937TIP3   OH245301   3.299   3.767   5.048 -0.1165  0.5098 -0.6035
 7937TIP3    H145302   3.272   3.702   5.113 -0.1791 -0.5413 -1.6617
 7937TIP3    H245303   3.252   3.847   5.073 -0.3907  0.0276  0.4439
 7938TIP3   OH245304   1.017   5.411  16.263  0.5087  0.2461 -0.1757
 7938TIP3    H145305   0.979   5.382  16.346 -1.4263  0.8900 -0.7927
 7938TIP3    H245306   1.048   5.331  16.221 -2.1289 -0.6437 -0.5599
 7939TIP3   OH245307   0.601   1.896  12.131 -0.3141 -0.8563  0.2583
 7939TIP3    H145308   0.643   1.968  12.084  2.2507 -2.0305  0.6567
 7939TIP3    H245309   0.591   1.928  12.221  0.3904 -0.8230  0.3258
 7940TIP3   OH245310   6.580   6.747  14.579 -0.1333  0.0670 -0.4909
 7940TIP3    H145311   6.568   6.841  14.569  0.4867 -0.0025 -1.9540
 7940TIP3    H245312   6.511   6.708  14.526  0.0420 -0.3022 -0.4527
 7941TIP3   OH245313   2.795   2.756  16.899  0.0556  0.0922  0.5053
 7941TIP3    H145314   2.824   2.717  16.817  1.5801  0.1773  0.9861
 7941TIP3    H245315   2.730   2.822  16.873 -0.2913 -0.6562 -0.5327
 7942TIP3   OH245316   5.150   6.196  14.020 -0.8236 -0.4377  0.1186
 7942TIP3    H145317   5.114   6.246  13.947 -0.1288 -1.6317 -1.0621
 7942TIP3    H245318   5.096   6.117  14.024 -0.4281 -0.6938  0.4504
 7943TIP3   OH245319   1.768   3.933  15.534 -0.7415  0.0704  0.4426
 7943TIP3    H145320   1.856   3.901  15.555 -1.0297  0.0826  1.7157
 7943TIP3    H245321   1.749   3.996  15.603 -1.9008 -0.2127  0.3791
 7944TIP3   OH245322   4.305   2.890  13.560 -0.5352 -0.6109  0.1546
 7944TIP3    H145323   4.340   2.812  13.604 -0.5151  1.2704  3.6739
 7944TIP3    H245324   4.232   2.918  13.615 -1.5775  0.9571 -1.9474
 7945TIP3   OH245325   3.935   1.317   4.590  0.3170 -0.0690 -0.5480
 7945TIP3    H145326   3.954   1.233   4.547  0.2155 -0.8275  0.8406
 7945TIP3    H245327   3.973   1.307   4.678  0.6143  1.4767 -0.4944
 7946TIP3   OH245328   2.424   1.503   3.536 -0.2523 -0.0032 -0.2219
 7946TIP3    H145329   2.411   1.498   3.442 -1.8375  1.0669 -0.0880
 7946TIP3    H245330   2.366   1.435   3.572 -1.3433  1.0867  0.0939
 7947TIP3   OH245331   6.517   3.785   6.508 -0.0610  0.3077  0.5218
 7947TIP3    H145332   6.479   3.709   6.551  2.5331  0.1785  2.6673
 7947TIP3    H245333   6.541   3.844   6.579  0.3915  1.9828 -0.9770
 7948TIP3   OH245334   3.312   2.660   2.404  0.4570 -1.2042  0.7627
 7948TIP3    H145335   3.311   2.573   2.364 -0.4126 -0.7903 -0.1081
 7948TIP3    H245336   3.238   2.706   2.365  1.6128  0.3408  0.3317
 7949TIP3   OH245337   5.262   6.686  14.554 -0.2534  0.3700 -0.3349
 7949TIP3    H145338   5.318   6.609  14.542 -1.1773 -0.4097  0.2851
 7949TIP3    H245339   5.323   6.758  14.569  0.6163 -0.2565 -0.8421
 7950TIP3   OH245340   5.051   3.644   1.566  0.2869 -0.1126  0.2822
 7950TIP3    H145341   5.030   3.715   1.504  3.5498  1.1081  0.4832
 7950TIP3    H245342   5.059   3.566   1.512 -0.7433  0.1746 -0.2952
 7951TIP3   OH245343   5.362   1.993   3.161 -0.3220  0.4730 -0.0710
 7951TIP3    H145344   5.369   2.088   3.161  2.6824  0.2983 -0.2345
 7951TIP3    H245345   5.370   1.969   3.068 -0.0710  0.0240  0.0639
 7952TIP3   OH245346   0.554   4.306   3.339 -0.1909  0.6342 -0.0285
 7952TIP3    H145347   0.546   4.231   3.399 -3.9493  0.5624 -0.5128
 7952TIP3    H245348   0.577   4.380   3.396 -2.3220  0.2759  1.3531
 7953TIP3   OH245349   5.632   5.096  11.414  0.0616 -0.3179 -0.0413
 7953TIP3    H145350   5.608   5.061  11.500  2.1798 -0.5795  0.4744
 7953TIP3    H245351   5.624   5.021  11.355 -0.1151 -0.4724  0.1762
 7954TIP3   OH245352   4.384   1.893   2.803  0.0620 -0.5442 -0.1217
 7954TIP3    H145353   4.319   1.831   2.837  0.6676 -0.0737  1.9655
 7954TIP3    H245354   4.341   1.978   2.809  0.3114 -0.4110 -0.2184
 7955TIP3   OH245355   6.003   4.991   1.438 -0.0256 -0.1110 -0.0257
 7955TIP3    H145356   6.083   4.948   1.408 -1.3587 -0.2080 -3.6501
 7955TIP3    H245357   6.034   5.075   1.472  1.7566 -0.6513 -0.2154
 7956TIP3   OH245358   3.306   6.646  13.304 -0.1922 -0.4346  0.1133
 7956TIP3    H145359   3.218   6.615  13.328  0.2455 -1.2638  0.6472
 7956TIP3    H245360   3.308   6.736  13.337 -0.9326 -0.3231 -0.1223
 7957TIP3   OH245361   0.281   2.862  15.781  0.0959  0.0423  0.3204
 7957TIP3    H145362   0.315   2.904  15.860  1.9121  0.2907 -0.5693
 7957TIP3    H245363   0.350   2.801  15.754 -1.2180 -1.2861 -0.1363
 7958TIP3   OH245364   4.986   0.397   5.909  0.0592  0.1142  0.8010
 7958TIP3    H145365   4.936   0.374   5.831  0.6981 -1.1299  0.7342
 7958TIP3    H245366   5.030   0.479   5.887 -0.5840  0.3057  0.2347
 7959TIP3   OH245367   6.355   4.906  14.226 -0.1763 -0.4092  0.0326
 7959TIP3    H145368   6.339   4.816  14.255  0.4221  0.0097  1.7600
 7959TIP3    H245369   6.450   4.914  14.225 -0.2281  0.1779 -0.1608
 7960TIP3   OH245370   4.240   4.586  13.020 -0.1920 -0.6857  0.3057
 7960TIP3    H145371   4.245   4.616  13.110  0.3824  0.9971 -0.2782
 7960TIP3    H245372   4.161   4.626  12.985  0.7738  0.4690 -0.5840
 7961TIP3   OH245373   0.116   4.865   0.330 -0.3435 -0.3867 -0.0942
 7961TIP3    H145374   0.184   4.916   0.287 -0.7960 -0.0241 -0.3893
 7961TIP3    H245375   0.061   4.930   0.373  0.1968 -0.7611  1.1734
 7962TIP3   OH245376   1.602   3.262  12.597 -0.4675  0.4009 -0.1119
 7962TIP3    H145377   1.560   3.184  12.562  1.1889  0.1857 -1.7029
 7962TIP3    H245378   1.674   3.229  12.651 -1.0834  0.7980  0.9623
 7963TIP3   OH245379   3.349   6.505   2.330 -0.0308 -0.0918 -0.1350
 7963TIP3    H145380   3.433   6.494   2.288 -0.0245 -1.7048  0.2668
 7963TIP3    H245381   3.307   6.578   2.284  1.2454  0.1872 -0.8471
 7964TIP3   OH245382   5.619   0.038  17.283  0.3420 -0.9773  0.0970
 7964TIP3    H145383   5.635   0.033  17.377 -1.9763  0.5391  0.6142
 7964TIP3    H245384   5.706   0.050  17.244  0.8802  3.6524  2.4443
 7965TIP3   OH245385   2.415   2.783  12.155  0.2393  0.1457  0.0009
 7965TIP3    H145386   2.458   2.705  12.188  1.0354  0.3263 -0.6084
 7965TIP3    H245387   2.322   2.769  12.175  0.2669 -1.3103 -0.8045
 7966TIP3   OH245388   1.605   2.873  10.898 -0.6583  0.3081  0.4331
 7966TIP3    H145389   1.592   2.778  10.904  1.3779 -0.0549 -0.2864
 7966TIP3    H245390   1.658   2.885  10.819 -0.3413  1.9783  0.8708
 7967TIP3   OH245391   3.723   4.222  12.245 -0.3127  0.5326  0.2320
 7967TIP3    H145392   3.818   4.216  12.242 -0.4015 -2.4391  1.6131
 7967TIP3    H245393   3.693   4.189  12.160 -0.1381 -0.3497  0.5036
 7968TIP3   OH245394   3.073   1.283   1.672  0.0836  0.1837  0.6126
 7968TIP3    H145395   2.989   1.327   1.662 -0.1135 -0.2950  0.1386
 7968TIP3    H245396   3.138   1.353   1.659 -0.2309  0.4206  0.2789
 7969TIP3   OH245397   2.799   6.499  15.569 -0.7092 -0.2646  0.0221
 7969TIP3    H145398   2.853   6.433  15.611  0.5703  0.6745 -0.1317
 7969TIP3    H245399   2.750   6.451  15.502  1.5635 -0.7390 -1.3196
 7970TIP3   OH245400   1.198   3.703   2.958  0.5567 -0.2129  0.1359
 7970TIP3    H145401   1.271   3.762   2.939  0.6423  0.6103  2.8309
 7970TIP3    H245402   1.123   3.742   2.913  0.8376  1.3866  1.0251
 7971TIP3   OH245403   6.616   3.284  17.094 -0.3279 -0.7355 -0.3312
 7971TIP3    H145404   6.612   3.228  17.017 -0.0540  0.3470 -1.1410
 7971TIP3    H245405   6.632   3.372  17.060  2.0414 -0.5800  1.1117
 7972TIP3   OH245406   5.228   3.326   1.589 -0.4736 -0.0974 -0.5294
 7972TIP3    H145407   5.252   3.340   1.497 -0.1176 -1.0809 -0.5944
 7972TIP3    H245408   5.204   3.413   1.621 -0.5241  0.2684 -1.5332
 7973TIP3   OH245409   2.757   1.111   1.400  0.0839  0.3558 -0.3885
 7973TIP3    H145410   2.804   1.083   1.478 -0.4908  1.2164  0.2650
 7973TIP3    H245411   2.702   1.183   1.429  2.5794  3.1758 -2.2903
 7974TIP3   OH245412   3.773   6.066  14.099 -0.1383 -0.2149  0.5886
 7974TIP3    H145413   3.813   6.121  14.032 -2.8070  1.0567 -0.0179
 7974TIP3    H245414   3.773   6.121  14.178 -0.9035 -0.1253  0.5268
 7975TIP3   OH245415   5.086   1.899   2.509  0.3324 -0.2693 -0.3816
 7975TIP3    H145416   4.994   1.917   2.529  0.1181 -2.1832  0.4194
 7975TIP3    H245417   5.134   1.961   2.564 -0.4120 -1.5931  1.8492
 7976TIP3   OH245418   5.011   3.159   1.446 -0.9889 -0.9576 -0.4855
 7976TIP3    H145419   5.021   3.111   1.364 -0.9787 -0.4691 -0.7717
 7976TIP3    H245420   5.099   3.158   1.485 -1.2331 -2.1772  0.0832
 7977TIP3   OH245421   3.755   5.504  14.108  0.3367 -0.0494 -0.3921
 7977TIP3    H145422   3.809   5.515  14.186 -0.2473 -0.4582  0.0709
 7977TIP3    H245423   3.669   5.536  14.133  0.2308  0.1277 -0.9759
 7978TIP3   OH245424   5.614   3.963  17.274 -0.1784 -0.5202 -0.0165
 7978TIP3    H145425   5.629   3.883  17.223 -1.8436 -0.3768 -0.7451
 7978TIP3    H245426   5.669   4.028  17.232  0.6634 -1.1046  0.1594
 7979TIP3   OH245427   5.062   5.112   2.463  0.2304 -0.0588  0.0964
 7979TIP3    H145428   5.025   5.050   2.526 -1.9304  0.9385 -0.1444
 7979TIP3    H245429   5.094   5.185   2.517 -1.4879  0.7296  0.0792
 7980TIP3   OH245430   4.821   1.460   1.401  0.1327  0.2588  0.1720
 7980TIP3    H145431   4.793   1.379   1.358 -1.1060  0.7878 -0.0468
 7980TIP3    H245432   4.910   1.442   1.432 -0.7456 -1.7605  1.6251
 7981TIP3   OH245433   2.243   0.181   3.813 -0.1364  0.3288  0.2575
 7981TIP3    H145434   2.206   0.132   3.740  0.3689 -0.4996  0.5505
 7981TIP3    H245435   2.220   0.272   3.795 -0.5429  0.0589 -0.6114
 7982TIP3   OH245436   1.689   5.929   1.845 -0.0022  0.2407 -0.7925
 7982TIP3    H145437   1.699   5.844   1.802  1.3889 -0.3771  0.7299
 7982TIP3    H245438   1.777   5.953   1.872 -0.9667  0.0314  2.7937
 7983TIP3   OH245439   2.516   5.870  16.908 -0.0971  0.0681  0.6089
 7983TIP3    H145440   2.575   5.795  16.916  2.3606  2.1175  3.0218
 7983TIP3    H245441   2.548   5.918  16.832 -0.8389 -0.6176 -0.1420
 7984TIP3   OH245442   2.460   6.719  16.289  0.4307  0.2784  0.4404
 7984TIP3    H145443   2.428   6.631  16.270  0.9028 -0.3112  2.3097
 7984TIP3    H245444   2.382   6.768  16.313  0.4591 -0.2109  1.5305
 7985TIP3   OH245445   1.349   3.387   5.593  0.1519  0.0220  0.4597
 7985TIP3    H145446   1.394   3.388   5.508 -1.7130 -1.1557 -0.6003
 7985TIP3    H245447   1.256   3.396   5.570 -0.3501  0.0031  2.4173
 7986TIP3   OH245448   3.911   4.297  13.276  0.4983  0.1875 -0.1847
 7986TIP3    H145449   3.950   4.210  13.264 -2.1327 -0.7825 -2.0145
 7986TIP3    H245450   3.817   4.280  13.283 -0.2273  3.0071 -2.3102
 7987TIP3   OH245451   4.595   3.085  15.587 -0.4829 -0.3110  0.3167
 7987TIP3    H145452   4.501   3.072  15.600 -0.6394 -0.4466 -0.8956
 7987TIP3    H245453   4.624   3.132  15.665 -1.9093  1.3638 -0.1489
 7988TIP3   OH245454   5.646   4.463   2.646 -0.2652 -0.1645 -0.2120
 7988TIP3    H145455   5.663   4.541   2.699 -0.4095  0.6465 -1.3398
 7988TIP3    H245456   5.726   4.452   2.594 -0.3374 -0.6378 -0.2206
 7989TIP3   OH245457   0.398   0.467   3.210  0.5692 -0.1023 -0.3016
 7989TIP3    H145458   0.455   0.539   3.240 -0.0731  1.3979 -2.5255
 7989TIP3    H245459   0.441   0.435   3.130 -0.2209 -0.8631 -0.4272
 7990TIP3   OH245460   6.027   1.654  12.021 -0.2311 -0.1832 -0.2045
 7990TIP3    H145461   5.995   1.566  12.040 -0.7735  0.4002  1.7117
 7990TIP3    H245462   5.990   1.676  11.936 -0.9715 -1.3903 -0.2008
 7991TIP3   OH245463   2.615   2.616   1.074  0.2273  0.1215  0.3746
 7991TIP3    H145464   2.529   2.597   1.112 -0.0421  1.2876  0.3608
 7991TIP3    H245465   2.596   2.666   0.995  0.9652  1.7622  1.1998
 7992TIP3   OH245466   0.947   2.363  12.692  0.1444  0.6799 -0.0995
 7992TIP3    H145467   0.990   2.295  12.640  3.2233  1.4809  1.2466
 7992TIP3    H245468   0.985   2.354  12.780 -0.6375  3.0215  0.5310
 7993TIP3   OH245469   3.310   6.098   6.345  0.5507  0.1471 -0.3228
 7993TIP3    H145470   3.311   6.099   6.249 -0.9036  0.5788 -0.3393
 7993TIP3    H245471   3.376   6.162   6.370  0.3488  0.6489 -1.0448
 7994TIP3   OH245472   3.110   0.134  10.672 -0.0830  0.1064  0.5289
 7994TIP3    H145473   3.059   0.082  10.734 -0.8924 -0.0037 -0.2212
 7994TIP3    H245474   3.116   0.079  10.594 -0.3050  0.8211  0.0002
 7995TIP3   OH245475   1.574   4.912   4.488 -0.1242 -0.7355  0.5281
 7995TIP3    H145476   1.508   4.979   4.470  0.0752 -0.2331  1.6239
 7995TIP3    H245477   1.525   4.841   4.529 -0.3022 -1.1798 -0.4478
 7996TIP3   OH245478   0.007   0.808  13.751  0.2388  0.0044 -0.2292
 7996TIP3    H145479   0.091   0.763  13.762 -0.1733 -0.1354  2.8012
 7996TIP3    H245480  -0.059   0.741  13.770 -0.5066  0.6137 -0.6349
 7997TIP3   OH245481   2.246   6.565  10.747 -0.3208 -0.2851 -0.3304
 7997TIP3    H145482   2.303   6.506  10.698 -0.5653 -1.6847  1.0509
 7997TIP3    H245483   2.298   6.590  10.824 -0.5188  0.6816 -0.4960
 7998TIP3   OH245484   2.049   6.322   1.616 -0.9037  0.3017 -0.4214
 7998TIP3    H145485   2.088   6.408   1.604 -0.3083  0.1242  0.2039
 7998TIP3    H245486   2.056   6.280   1.531 -0.5657  0.6158 -0.5500
 7999TIP3   OH245487   0.799   2.327   2.191  0.2598  0.8859 -0.0579
 7999TIP3    H145488   0.739   2.368   2.129 -0.6354 -2.6984 -1.7079
 7999TIP3    H245489   0.748   2.315   2.271 -0.6464 -0.3972 -0.8179
 8000TIP3   OH245490   4.185   6.068  16.453  0.0742 -0.4918  0.1423
 8000TIP3    H145491   4.090   6.065  16.461 -0.2110  1.0216 -2.1452
 8000TIP3    H245492   4.211   6.147  16.501  0.1941 -0.9133  0.7791
 8001TIP3   OH245493   4.579   4.664  14.591  0.9938 -0.5353 -0.0715
 8001TIP3    H145494   4.650   4.700  14.645 -0.0051  0.3816  0.6647
 8001TIP3    H245495   4.503   4.662  14.650  0.6254 -2.3977 -0.5728
 8002TIP3   OH245496   4.955   6.528  14.098  0.1169  0.1741 -0.3135
 8002TIP3    H145497   5.047   6.510  14.117  0.0537  1.1778  1.0255
 8002TIP3    H245498   4.907   6.487  14.170 -0.2874  1.9698  0.4810
 8003TIP3   OH245499   3.362   4.144   0.363 -0.0065  0.0188 -0.1654
 8003TIP3    H145500   3.272   4.157   0.394  0.8934  2.9717  1.4968
 8003TIP3    H245501   3.415   4.146   0.443  1.6464 -0.3887 -1.2237
 8004TIP3   OH245502   6.747   1.161   3.988 -0.0285 -0.1729 -0.7011
 8004TIP3    H145503   6.688   1.120   3.924 -0.5508 -2.1252  0.9636
 8004TIP3    H245504   6.707   1.246   4.006 -1.8180 -1.0566 -0.3615
 8005TIP3   OH245505   1.442   3.244  16.476  0.1439  0.7151  0.2721
 8005TIP3    H145506   1.442   3.178  16.545  1.0684 -1.4779 -1.7522
 8005TIP3    H245507   1.351   3.274  16.471 -0.4850 -1.0699  0.6245
 8006TIP3   OH245508   5.522   4.999   5.159 -0.0090  0.0851 -0.0909
 8006TIP3    H145509   5.471   4.927   5.197  0.3842 -0.1606 -0.0189
 8006TIP3    H245510   5.457   5.057   5.120 -0.4660  0.6451  1.4719
 8007TIP3   OH245511   1.081   1.215   1.634  0.7525 -0.2126  0.5405
 8007TIP3    H145512   1.112   1.144   1.579 -0.7558 -0.4079 -0.0755
 8007TIP3    H245513   1.028   1.172   1.701  0.5239  0.2601  0.6635
 8008TIP3   OH245514   1.905   4.608  16.756 -0.4520  0.0482 -0.2871
 8008TIP3    H145515   1.905   4.562  16.840 -0.7782  0.6838  0.0661
 8008TIP3    H245516   1.823   4.658  16.756 -1.2115 -1.1866 -1.6760
 8009TIP3   OH245517   0.953   0.234  15.277  0.0663  0.7562  0.5008
 8009TIP3    H145518   0.938   0.203  15.366  1.6112  2.7687  1.4856
 8009TIP3    H245519   0.933   0.327  15.280 -0.0488  0.8044 -1.3152
 8010TIP3   OH245520   4.790   0.254   5.623  0.7565 -0.3308 -0.3181
 8010TIP3    H145521   4.878   0.256   5.660  0.0445 -1.5369  1.5305
 8010TIP3    H245522   4.767   0.161   5.619 -1.7853  0.0715  2.6730
 8011TIP3   OH245523   2.647   5.865  13.898 -0.2253  0.3566 -0.3351
 8011TIP3    H145524   2.626   5.798  13.833  0.1848  1.4197 -1.5701
 8011TIP3    H245525   2.740   5.885  13.883 -0.4170  1.4072 -0.1689
 8012TIP3   OH245526   3.701   0.953  15.185 -0.8429  0.7414  0.4900
 8012TIP3    H145527   3.620   0.931  15.231 -0.5462 -0.9263  0.2580
 8012TIP3    H245528   3.674   1.017  15.119 -1.8385  0.7332  0.8812
 8013TIP3   OH245529   6.463   1.331   4.024  0.1953  0.2127  0.2870
 8013TIP3    H145530   6.399   1.400   4.007 -0.5834 -0.3529  0.8983
 8013TIP3    H245531   6.411   1.251   4.031  0.8940 -0.1598  1.4042
 8014TIP3   OH245532   0.418   2.717  10.682  0.3596  0.1959  0.7397
 8014TIP3    H145533   0.420   2.622  10.671  0.3884  0.2198  0.5199
 8014TIP3    H245534   0.418   2.750  10.592 -0.1906  0.3943  0.8118
 8015TIP3   OH245535   4.805   4.586   3.100 -0.4250 -0.5737 -0.2891
 8015TIP3    H145536   4.746   4.659   3.115 -0.5008 -0.4627 -1.0970
 8015TIP3    H245537   4.764   4.536   3.030  1.3939  0.6032 -2.2599
 8016TIP3   OH245538   4.922   0.592  13.412 -0.5346  0.1849 -0.6778
 8016TIP3    H145539   4.985   0.585  13.341  0.1441 -0.4327 -0.0299
 8016TIP3    H245540   4.864   0.664  13.387 -0.0518  0.2324 -1.6504
 8017TIP3   OH245541   3.222   0.588  12.047 -0.2890  0.2013 -0.7697
 8017TIP3    H145542   3.233   0.677  12.016  3.3761 -0.8114 -2.6849
 8017TIP3    H245543   3.264   0.587  12.133 -1.1841  0.5091 -0.3187
 8018TIP3   OH245544   0.664   0.091  12.499 -0.5482 -0.0194  0.0031
 8018TIP3    H145545   0.593   0.111  12.438 -0.6821  0.7190  0.3882
 8018TIP3    H245546   0.717   0.171  12.500 -0.7761  0.1228  1.1612
 8019TIP3   OH245547   3.423   2.499  12.656  0.4314  0.2688 -0.4980
 8019TIP3    H145548   3.339   2.542  12.670  0.5968  0.1905  0.7812
 8019TIP3    H245549   3.471   2.512  12.738  0.9307 -1.3552 -0.5165
 8020TIP3   OH245550   6.304   0.736  12.822 -0.6622  0.3288  0.7137
 8020TIP3    H145551   6.238   0.750  12.754 -1.5579  1.2137  1.7245
 8020TIP3    H245552   6.387   0.759  12.781 -0.8987 -1.3327 -0.7488
 8021TIP3   OH245553   3.518   5.391   2.868  0.2833 -0.0657 -0.5148
 8021TIP3    H145554   3.503   5.485   2.879 -0.8730 -0.4344  1.2808
 8021TIP3    H245555   3.437   5.350   2.899  1.0884 -1.7004 -0.5151
 8022TIP3   OH245556   3.381   2.493   2.644  0.2885 -0.3984  0.2441
 8022TIP3    H145557   3.475   2.498   2.665  0.3057  0.4056 -0.0019
 8022TIP3    H245558   3.359   2.582   2.615 -0.5873 -0.5523  0.4471
 8023TIP3   OH245559   2.055   3.056  14.209  0.0227  0.2630  0.5207
 8023TIP3    H145560   2.059   2.996  14.135  0.3385  0.4540  0.3798
 8023TIP3    H245561   2.002   3.129  14.178  2.1595  1.5023 -0.3745
 8024TIP3   OH245562   5.711   0.113  14.827  0.1703 -0.1883  0.0263
 8024TIP3    H145563   5.715   0.208  14.822 -3.5645  0.0576  0.2445
 8024TIP3    H245564   5.756   0.082  14.748  0.0485  1.7846 -0.8320
 8025TIP3   OH245565   0.547   6.064   4.913 -0.2096 -0.4084  0.0058
 8025TIP3    H145566   0.548   6.088   4.820  0.5329 -1.3584 -0.2420
 8025TIP3    H245567   0.466   6.014   4.924 -0.7564  0.4872  0.0789
 8026TIP3   OH245568   5.737   2.960   1.502  0.3732  0.6832 -0.5775
 8026TIP3    H145569   5.811   2.954   1.443 -0.0284 -2.1323 -0.8626
 8026TIP3    H245570   5.776   2.980   1.588  1.3007  0.8699 -1.0377
 8027TIP3   OH245571   1.048   4.393   1.490  0.1654  0.1626  0.3786
 8027TIP3    H145572   1.115   4.397   1.559  1.0239  0.5484 -0.4614
 8027TIP3    H245573   1.094   4.357   1.414 -0.6057  0.3585 -0.1861
 8028TIP3   OH245574   0.879   3.843  13.700 -0.3651 -0.6672  0.5398
 8028TIP3    H145575   0.930   3.920  13.675 -0.2529 -1.1711 -0.8293
 8028TIP3    H245576   0.894   3.834  13.794  1.3487 -0.2573  0.3325
 8029TIP3   OH245577   4.586   3.050  13.740  0.4371 -0.0860  0.0831
 8029TIP3    H145578   4.634   3.133  13.741  3.5254 -1.7787  0.9848
 8029TIP3    H245579   4.521   3.061  13.670  0.6090  3.1401  0.3433
 8030TIP3   OH245580   0.204   5.805   0.223 -0.0281 -0.5884 -0.2267
 8030TIP3    H145581   0.114   5.802   0.190  0.0509  1.9845 -0.7687
 8030TIP3    H245582   0.258   5.782   0.148 -0.1755 -0.8583 -0.2493
 8031TIP3   OH245583   5.578   3.753  17.070  0.0768  0.1431  0.3069
 8031TIP3    H145584   5.661   3.719  17.037 -0.9766 -1.9414 -0.2937
 8031TIP3    H245585   5.514   3.726  17.004 -1.2533  0.7435  1.3399
 8032TIP3   OH245586   5.616   0.673  12.468  0.0699  0.6353 -0.4321
 8032TIP3    H145587   5.528   0.708  12.486  0.6875  1.4136  1.1670
 8032TIP3    H245588   5.601   0.580  12.450 -1.0845  0.7489 -0.1344
 8033TIP3   OH245589   5.833   1.112   1.517 -0.0844 -0.0770 -0.1015
 8033TIP3    H145590   5.812   1.171   1.445 -1.9959  0.9489  1.2406
 8033TIP3    H245591   5.910   1.151   1.559 -0.3160  0.5468 -0.2456
 8034TIP3   OH245592   2.242   3.658   5.866 -0.0675  0.4237 -1.0536
 8034TIP3    H145593   2.157   3.643   5.908 -0.5140  1.3889 -1.5842
 8034TIP3    H245594   2.221   3.673   5.774  0.5947  1.3792 -1.0643
 8035TIP3   OH245595   3.206   4.928  11.728  0.0606  0.0126 -0.0829
 8035TIP3    H145596   3.126   4.888  11.764 -0.8305  1.6783 -0.1854
 8035TIP3    H245597   3.196   4.921  11.634  1.2643 -2.1131 -0.1013
 8036TIP3   OH245598   0.360   0.557  16.146 -0.2194 -0.5733 -0.6091
 8036TIP3    H145599   0.323   0.507  16.218  1.3217  0.9329  1.2829
 8036TIP3    H245600   0.389   0.491  16.083  0.5855 -2.0169  1.2344
 8037TIP3   OH245601   2.725   0.439   0.744  0.0588  0.0661 -0.2807
 8037TIP3    H145602   2.673   0.518   0.727  1.8586  1.2586 -0.3665
 8037TIP3    H245603   2.773   0.424   0.662 -1.1020 -1.7764 -0.6508
 8038TIP3   OH245604   4.092   3.439   4.657  0.1517 -0.0199  0.2387
 8038TIP3    H145605   4.058   3.456   4.569  1.4292 -0.8217 -0.4289
 8038TIP3    H245606   4.024   3.471   4.716 -0.8944  0.1554 -1.0453
 8039TIP3   OH245607   6.362   1.002   0.780 -0.4007  0.0918 -0.1377
 8039TIP3    H145608   6.345   1.048   0.698 -0.3091  0.8246  0.2412
 8039TIP3    H245609   6.416   1.063   0.831  0.2835 -0.7129  0.1152
 8040TIP3   OH245610   2.280   5.314   0.379 -0.3687  0.3448 -0.4125
 8040TIP3    H145611   2.189   5.313   0.410  0.0865 -0.3169  0.9544
 8040TIP3    H245612   2.300   5.222   0.361  0.2884  0.3926  0.0810
 8041TIP3   OH245613   1.508   1.751   5.475 -0.0285 -0.4955  0.6871
 8041TIP3    H145614   1.430   1.798   5.502 -0.1551 -0.6319  0.5551
 8041TIP3    H245615   1.476   1.667   5.444  0.1766 -0.5806  0.7040
 8042TIP3   OH245616   4.804   0.100  16.687  0.1359 -0.2820 -0.2781
 8042TIP3    H145617   4.799   0.037  16.616 -1.1021 -1.2916  0.6744
 8042TIP3    H245618   4.853   0.056  16.756  2.4564  1.1686 -0.9559
 8043TIP3   OH245619   2.272   5.911   6.038 -0.1792  0.8018  0.2815
 8043TIP3    H145620   2.315   5.977   5.984  1.7255  0.1268  0.9219
 8043TIP3    H245621   2.194   5.954   6.072  0.3368  2.2834 -0.4030
 8044TIP3   OH245622   4.118   4.030  13.464  0.1226  0.0726  0.6809
 8044TIP3    H145623   4.137   3.970  13.536 -0.2998  0.3105  0.9915
 8044TIP3    H245624   4.029   4.009  13.438  0.5484 -0.5381 -0.2842
 8045TIP3   OH245625   2.782   0.624  16.885  0.0792 -0.2805 -0.2787
 8045TIP3    H145626   2.746   0.559  16.825 -1.5353  0.7864 -0.5129
 8045TIP3    H245627   2.774   0.707  16.837 -0.1542  0.4274  0.9551
 8046TIP3   OH245628   3.667   5.334  17.163  0.0986 -0.7136 -0.5242
 8046TIP3    H145629   3.622   5.349  17.080  0.0703 -0.6750 -0.5020
 8046TIP3    H245630   3.703   5.419  17.188  0.7188 -0.8811 -0.8544
 8047TIP3   OH245631   6.246   4.282   5.439  0.6717  0.3006  0.2417
 8047TIP3    H145632   6.203   4.264   5.523 -0.7294  0.5396 -0.4107
 8047TIP3    H245633   6.190   4.348   5.397  0.9796 -0.3186 -1.1799
 8048TIP3   OH245634   3.651   5.487  10.786  0.0536  0.0329  0.1995
 8048TIP3    H145635   3.607   5.504  10.870  1.6262 -2.0844  1.4943
 8048TIP3    H245636   3.603   5.413  10.748  0.2576  0.0459 -0.0804
 8049TIP3   OH245637   1.895   1.163  10.896  0.2513  0.1282  0.1970
 8049TIP3    H145638   1.878   1.256  10.881  0.5769  0.7712  3.4257
 8049TIP3    H245639   1.957   1.161  10.970 -0.9004 -2.6716  1.1644
 8050TIP3   OH245640   0.911   5.623  11.418  0.4213 -0.4630 -0.6194
 8050TIP3    H145641   0.833   5.568  11.422  0.1060  0.0244  0.0551
 8050TIP3    H245642   0.975   5.577  11.473  0.6876 -0.9856 -1.3685
 8051TIP3   OH245643   1.556   2.326  15.999  0.0279  0.3321  0.4747
 8051TIP3    H145644   1.580   2.256  15.937 -0.1905  1.5693 -1.0311
 8051TIP3    H245645   1.640   2.367  16.022 -0.0756  1.1680 -0.5877
 8052TIP3   OH245646   3.742   1.369  12.798 -0.5130 -0.2762 -0.2384
 8052TIP3    H145647   3.673   1.391  12.735  1.3275 -2.4007 -3.1402
 8052TIP3    H245648   3.770   1.454  12.833 -1.8909  0.9472 -1.9814
 8053TIP3   OH245649   0.461   6.246   3.989 -0.5801  0.0364  0.3238
 8053TIP3    H145650   0.390   6.204   4.038  0.4647 -0.1915  1.6684
 8053TIP3    H245651   0.536   6.244   4.049  0.1781  1.5512 -0.5506
 8054TIP3   OH245652   5.173   4.152  13.144 -0.1733 -0.3187  0.2068
 8054TIP3    H145653   5.139   4.239  13.122  1.0294 -0.0345 -0.5770
 8054TIP3    H245654   5.110   4.092  13.106 -0.6676  0.2107  0.1812
 8055TIP3   OH245655   2.049   5.847  11.966  0.2804  0.0454 -0.0974
 8055TIP3    H145656   2.018   5.822  11.879  0.0174  1.1889 -0.3335
 8055TIP3    H245657   2.031   5.941  11.972  0.3455 -0.0215  1.1728
 8056TIP3   OH245658   6.401   2.475  14.369  0.5941  0.2135 -0.1752
 8056TIP3    H145659   6.466   2.405  14.364 -1.1189 -1.5607  1.4563
 8056TIP3    H245660   6.407   2.507  14.459 -0.9957 -0.2043  0.0939
 8057TIP3   OH245661   4.975   3.818  12.800  0.1508  0.4755 -0.1506
 8057TIP3    H145662   5.009   3.739  12.841 -1.8715 -0.2247  0.2414
 8057TIP3    H245663   4.884   3.823  12.829 -0.1610  2.1691 -1.3317
 8058TIP3   OH245664   2.707   2.268   4.202 -0.3899  0.9478  0.5172
 8058TIP3    H145665   2.627   2.261   4.150 -1.1786  1.0393  1.6997
 8058TIP3    H245666   2.772   2.302   4.141 -1.5642  2.0285 -0.1581
 8059TIP3   OH245667   1.978   4.957   0.200 -0.6249 -0.6351  0.0649
 8059TIP3    H145668   2.065   4.918   0.201  0.1935  1.1436  2.2319
 8059TIP3    H245669   1.920   4.886   0.171  1.5408 -1.7615 -1.6511
 8060TIP3   OH245670   2.098   1.813  13.604  0.0945 -0.5052  0.4479
 8060TIP3    H145671   2.142   1.777  13.681  0.5913  2.5268  1.6361
 8060TIP3    H245672   2.014   1.768  13.602  0.0211 -0.5712  2.8510
 8061TIP3   OH245673   3.833   2.822   4.466  0.5529 -0.4771 -0.0990
 8061TIP3    H145674   3.912   2.876   4.470  0.9474 -1.0697  0.1139
 8061TIP3    H245675   3.824   2.801   4.373 -0.1353  0.7297 -0.3251
 8062TIP3   OH245676   3.519   1.271  11.492  0.5200  0.2133 -0.4085
 8062TIP3    H145677   3.510   1.364  11.510  1.3570  0.2762 -0.3031
 8062TIP3    H245678   3.512   1.264  11.396 -0.0677  0.3164 -0.3771
 8063TIP3   OH245679   6.277   2.500  11.607 -0.1613 -0.6383 -0.8371
 8063TIP3    H145680   6.345   2.503  11.541 -1.0597 -0.2957 -1.7653
 8063TIP3    H245681   6.242   2.589  11.610 -0.6991 -0.8539 -0.5125
 8064TIP3   OH245682   1.457   1.143  11.454 -0.2281  0.2964  0.1707
 8064TIP3    H145683   1.392   1.198  11.409  0.0532 -1.2934 -2.3033
 8064TIP3    H245684   1.535   1.149  11.399 -0.0784 -2.2699  0.0240
 8065TIP3   OH245685   0.889   1.743   5.062 -0.0525 -0.4996 -0.4279
 8065TIP3    H145686   0.805   1.714   5.026 -0.3950 -0.0808  0.0345
 8065TIP3    H245687   0.866   1.802   5.133  0.5939 -2.4873  1.4696
 8066TIP3   OH245688   5.097   2.951   5.275 -0.4793 -0.2024  0.2647
 8066TIP3    H145689   5.058   2.958   5.362 -2.0755 -0.2883 -0.4232
 8066TIP3    H245690   5.049   3.015   5.222 -0.9076 -1.5685 -1.0304
 8067TIP3   OH245691   5.064   4.814  14.824 -0.1664 -0.1338  0.5216
 8067TIP3    H145692   5.057   4.872  14.900  0.2989  0.2229  0.2933
 8067TIP3    H245693   5.069   4.873  14.749  0.9785 -0.4530  0.3412
 8068TIP3   OH245694   0.052   2.157  14.496 -0.6581 -0.2475 -0.0654
 8068TIP3    H145695   0.145   2.150  14.517 -0.6605 -1.7038 -0.5002
 8068TIP3    H245696   0.045   2.125  14.406 -1.1498  2.6563 -1.1411
 8069TIP3   OH245697   5.370   6.076  16.967 -0.0852  0.2082  0.6295
 8069TIP3    H145698   5.334   6.083  17.055  0.0336  0.4941  0.6547
 8069TIP3    H245699   5.446   6.134  16.967 -1.2105  1.7244 -0.2466
 8070TIP3   OH245700   2.485   3.817   6.581  0.0963 -0.0410  0.4974
 8070TIP3    H145701   2.429   3.870   6.524  1.5772 -0.8634 -1.7600
 8070TIP3    H245702   2.424   3.756   6.623 -0.7113 -1.1659 -2.1952
 8071TIP3   OH245703   3.627   1.645  14.780  0.1221 -0.0732 -0.0876
 8071TIP3    H145704   3.596   1.597  14.858 -0.0843 -1.2631 -0.8884
 8071TIP3    H245705   3.627   1.737  14.807 -0.0068 -0.4683  1.3070
 8072TIP3   OH245706   3.170   5.496   5.773 -0.3356  0.5835  0.2438
 8072TIP3    H145707   3.201   5.462   5.857  1.0511  1.1849 -0.0148
 8072TIP3    H245708   3.240   5.553   5.742 -1.1384  0.9345 -0.9911
 8073TIP3   OH245709   5.510   5.617  16.908  0.4411  0.1647 -0.6288
 8073TIP3    H145710   5.543   5.674  16.977 -2.3032  0.2040  0.7254
 8073TIP3    H245711   5.554   5.533  16.923 -0.3126  0.0961  1.3538
 8074TIP3   OH245712   1.306   4.928  11.913  0.6033  0.1767 -0.0479
 8074TIP3    H145713   1.232   4.881  11.949  0.9921 -1.1277 -0.8911
 8074TIP3    H245714   1.274   5.017  11.896 -0.4544 -0.0961  0.5483
 8075TIP3   OH245715   0.191   1.724   2.003  0.1792 -0.0537 -0.5269
 8075TIP3    H145716   0.114   1.680   1.967  0.6587 -0.1390 -1.4874
 8075TIP3    H245717   0.175   1.817   1.991 -1.4928  0.1530  2.8591
 8076TIP3   OH245718   5.315   5.278   0.014  0.2725  0.3384  0.1527
 8076TIP3    H145719   5.377   5.351   0.015 -2.5199  2.8553 -0.9200
 8076TIP3    H245720   5.317   5.243   0.103  1.8261  1.6149  0.6392
 8077TIP3   OH245721   3.417   6.368   6.329 -0.3855 -0.4719 -0.0096
 8077TIP3    H145722   3.411   6.445   6.272 -0.1740 -0.8725 -0.5829
 8077TIP3    H245723   3.359   6.388   6.403  0.9366  0.9233  0.6661
 8078TIP3   OH245724   0.805   5.858   5.979 -0.1586  0.6779  0.7266
 8078TIP3    H145725   0.839   5.936   6.023 -2.4142  0.4514  3.0237
 8078TIP3    H245726   0.710   5.868   5.983 -0.4725 -1.8888  0.5533
 8079TIP3   OH245727   5.599   4.294  12.065 -0.2795  0.3420 -0.4952
 8079TIP3    H145728   5.640   4.213  12.034  0.8753  0.7810 -0.1425
 8079TIP3    H245729   5.627   4.301  12.156 -1.8345  0.2155 -0.0038
 8080TIP3   OH245730   3.719   0.296   1.444  0.6582  0.1098  0.1171
 8080TIP3    H145731   3.775   0.251   1.381  0.3771  1.2028 -0.9183
 8080TIP3    H245732   3.631   0.261   1.428  0.8616 -0.8835  1.0839
 8081TIP3   OH245733   6.478   3.617   1.078 -0.1768  0.2714 -0.6716
 8081TIP3    H145734   6.508   3.649   1.163  0.5010 -0.6846 -0.5495
 8081TIP3    H245735   6.443   3.695   1.034  0.2119  0.9171  0.1579
 8082TIP3   OH245736   5.461   2.889   1.528  0.5561  0.2099 -0.2627
 8082TIP3    H145737   5.530   2.947   1.563  0.4908  0.5716 -0.7206
 8082TIP3    H245738   5.506   2.837   1.462  1.2932 -2.3410  2.1617
 8083TIP3   OH245739   1.347   4.859  13.141 -0.1448  0.1136  0.2802
 8083TIP3    H145740   1.399   4.787  13.177 -1.3175 -0.4811  0.8038
 8083TIP3    H245741   1.297   4.820  13.070  0.4958  0.8029 -0.5660
 8084TIP3   OH245742   2.791   4.770  12.561 -0.1255  0.0238  0.1032
 8084TIP3    H145743   2.726   4.710  12.525  2.3474 -2.0550 -1.0215
 8084TIP3    H245744   2.861   4.771  12.497  1.4865  1.3444  1.8152
 8085TIP3   OH245745   6.292   4.850  14.598 -0.0579 -0.4262  0.3327
 8085TIP3    H145746   6.222   4.901  14.555 -0.5691 -0.7192  0.8040
 8085TIP3    H245747   6.349   4.916  14.636  0.2378 -0.1675 -0.5360
 8086TIP3   OH245748   4.966   6.009  11.550  0.2305 -0.3877  0.3154
 8086TIP3    H145749   5.006   5.952  11.484  0.0839 -0.2871  0.1383
 8086TIP3    H245750   4.926   5.948  11.613 -0.7970 -0.4864 -0.4035
 8087TIP3   OH245751   3.735   1.528   0.803  0.1335  0.2981 -0.1459
 8087TIP3    H145752   3.706   1.601   0.750  0.5674 -0.8142 -1.9525
 8087TIP3    H245753   3.660   1.507   0.859 -0.2308  1.6373 -0.1130
 8088TIP3   OH245754   3.279   2.621  16.573  0.2959  0.0290 -0.5164
 8088TIP3    H145755   3.271   2.689  16.506 -0.0162 -0.9221 -1.4644
 8088TIP3    H245756   3.374   2.613  16.587  0.3985 -0.2344 -1.3374
 8089TIP3   OH245757   2.605   0.364   1.249  0.0905 -0.3023 -0.5676
 8089TIP3    H145758   2.570   0.337   1.164 -0.6556 -0.5644 -0.1880
 8089TIP3    H245759   2.699   0.345   1.244 -0.2033 -1.7989 -0.7844
 8090TIP3   OH245760   5.794   0.303   4.582  0.6739 -0.1663 -0.0966
 8090TIP3    H145761   5.720   0.349   4.543 -0.4896 -0.9266  1.1623
 8090TIP3    H245762   5.827   0.247   4.512  0.5831  0.7943 -0.9123
 8091TIP3   OH245763   6.261   6.161   4.029  0.0283 -0.7936  0.3769
 8091TIP3    H145764   6.325   6.120   3.970 -0.6425  0.6173 -1.3656
 8091TIP3    H245765   6.309   6.233   4.070  0.0313 -0.7806  0.3504
 8092TIP3   OH245766   4.598   6.519   1.439  0.6055 -0.4556 -0.4518
 8092TIP3    H145767   4.560   6.456   1.500  2.3641 -0.6931  0.4382
 8092TIP3    H245768   4.688   6.532   1.471  0.9804  0.7801 -1.9475
 8093TIP3   OH245769   6.268   0.528  16.984  0.4676  0.1654 -0.0606
 8093TIP3    H145770   6.243   0.477  17.061  2.7905 -0.4234  0.3308
 8093TIP3    H245771   6.198   0.594  16.976 -0.8023 -0.9544  1.4009
 8094TIP3   OH245772   4.670   4.862   4.899  0.0935  0.0646 -0.0243
 8094TIP3    H145773   4.675   4.860   4.995 -0.2422  1.4804  0.0304
 8094TIP3    H245774   4.580   4.833   4.880  0.8078 -2.2575 -0.0196
 8095TIP3   OH245775   4.766   1.519   5.426  1.1269  0.1255  0.1380
 8095TIP3    H145776   4.677   1.493   5.403  1.0539  0.7231 -0.2647
 8095TIP3    H245777   4.810   1.530   5.341  1.7880 -0.8779  0.3437
 8096TIP3   OH245778   2.862   2.756  12.221 -0.4671 -0.7479  0.0535
 8096TIP3    H145779   2.887   2.774  12.312 -0.2977 -0.9411  0.0448
 8096TIP3    H245780   2.832   2.841  12.188  1.8820 -0.0647 -0.4769
 8097TIP3   OH245781   5.240   2.311  13.603  0.3801  1.0689  0.2327
 8097TIP3    H145782   5.170   2.355  13.651  0.2751 -2.9223  4.0664
 8097TIP3    H245783   5.208   2.304  13.513 -2.9248  1.8382  1.3006
 8098TIP3   OH245784   0.753   1.724  11.596  0.3115  0.0951  0.2507
 8098TIP3    H145785   0.711   1.794  11.645 -0.0468 -0.2398  0.4293
 8098TIP3    H245786   0.736   1.645  11.647  0.3603 -0.1816 -0.1535
 8099TIP3   OH245787   2.690   2.671   5.054  0.0886 -0.4963  0.3771
 8099TIP3    H145788   2.733   2.664   5.139  1.3766  3.3552  0.1792
 8099TIP3    H245789   2.759   2.653   4.990  0.2055  0.7356  0.1336
 8100TIP3   OH245790   2.542   2.602  14.216  0.1188  0.1408 -1.0519
 8100TIP3    H145791   2.482   2.675  14.204 -1.1864 -0.8097 -0.3207
 8100TIP3    H245792   2.586   2.620  14.299 -1.1452 -0.5545 -0.2181
 8101TIP3   OH245793   4.223   5.789  10.923  0.2087 -0.1754 -0.1916
 8101TIP3    H145794   4.291   5.808  10.858 -1.2234  2.3440 -1.0090
 8101TIP3    H245795   4.169   5.722  10.882  0.8799 -0.5637 -0.4564
 8102TIP3   OH245796   5.978   2.592   0.963 -0.2907 -0.2877 -0.4159
 8102TIP3    H145797   5.914   2.522   0.949 -2.5270  1.9662 -1.9758
 8102TIP3    H245798   5.989   2.595   1.058 -1.3684 -1.7003 -0.2165
 8103TIP3   OH245799   5.096   0.686  15.084  0.4241 -0.5151  0.7006
 8103TIP3    H145800   5.014   0.636  15.087 -0.3225  0.7746  2.6710
 8103TIP3    H245801   5.125   0.691  15.175  1.3627  1.1988  0.3318
 8104TIP3   OH245802   1.302   0.671  11.468  0.9372  0.7552 -0.4842
 8104TIP3    H145803   1.232   0.735  11.452  0.0488  0.2314  1.2373
 8104TIP3    H245804   1.380   0.710  11.429 -0.4292  1.0696 -3.0267
 8105TIP3   OH245805   0.875   4.915   6.938  0.2267  0.1307  0.0863
 8105TIP3    H145806   0.805   4.867   6.983 -0.4593  0.5776 -0.4923
 8105TIP3    H245807   0.872   4.882   6.848  2.7103 -1.9939  0.7282
 8106TIP3   OH245808   4.225   4.979  10.270 -0.3011 -0.3403 -0.1251
 8106TIP3    H145809   4.177   4.984  10.353 -0.1676 -0.8248 -0.0182
 8106TIP3    H245810   4.302   4.927  10.290 -1.2558 -2.1444 -1.0002
 8107TIP3   OH245811   5.013   2.041  13.329  0.4216 -0.0269 -0.7521
 8107TIP3    H145812   5.076   1.982  13.371 -1.4057 -0.8266  0.9624
 8107TIP3    H245813   4.935   1.987  13.315 -0.8145  1.6346 -0.4167
 8108TIP3   OH245814   3.480   5.066  11.379 -0.3336 -0.6568 -0.1934
 8108TIP3    H145815   3.502   5.142  11.433  0.4559 -0.2716 -1.0449
 8108TIP3    H245816   3.522   4.992  11.423  0.8884 -0.2397 -0.6465
 8109TIP3   OH245817   4.465   1.263   6.309  0.3134 -0.2992 -0.4159
 8109TIP3    H145818   4.387   1.319   6.313  0.0825 -0.4785 -2.0741
 8109TIP3    H245819   4.432   1.174   6.322  0.1934 -0.4023 -1.3838
 8110TIP3   OH245820   0.321   4.934  11.553 -0.5218 -0.5554  0.0390
 8110TIP3    H145821   0.274   4.948  11.470  0.3395  0.0442 -0.3597
 8110TIP3    H245822   0.401   4.887  11.527  0.7508  1.4596  0.2454
 8111TIP3   OH245823   0.387   4.416  12.407 -0.4287 -0.5162  0.9201
 8111TIP3    H145824   0.369   4.339  12.461 -1.9725 -0.4009  0.6149
 8111TIP3    H245825   0.340   4.399  12.325  0.1880  0.2259  0.4038
 8112TIP3   OH245826   4.914   2.065   5.909 -0.5144  0.1849  0.8589
 8112TIP3    H145827   4.853   2.050   5.981  0.2068  0.1312  1.4540
 8112TIP3    H245828   4.999   2.038   5.943 -0.2188 -0.1318 -0.1110
 8113TIP3   OH245829   3.035   5.680  15.376  0.2429 -0.5620  0.3197
 8113TIP3    H145830   3.016   5.668  15.470 -0.9790  0.8817  0.2618
 8113TIP3    H245831   3.005   5.599  15.336 -0.4212 -0.6666  1.0111
 8114TIP3   OH245832   5.119   0.323   1.455 -0.0424 -0.2485  0.4413
 8114TIP3    H145833   5.071   0.307   1.537  2.1915  0.6482  1.9860
 8114TIP3    H245834   5.160   0.239   1.434 -0.6070 -0.4758  0.2424
 8115TIP3   OH245835   5.757   4.966  12.826 -0.1025 -0.3272  0.3216
 8115TIP3    H145836   5.706   4.902  12.776  1.7261 -0.8712 -0.9079
 8115TIP3    H245837   5.806   4.914  12.890  0.3195 -0.0175  0.2577
 8116TIP3   OH245838   2.889   1.319   0.517 -0.5564 -0.2564  0.2340
 8116TIP3    H145839   2.861   1.231   0.491 -0.8321 -0.3599  0.8681
 8116TIP3    H245840   2.821   1.350   0.576  0.1551 -0.1125  0.9979
 8117TIP3   OH245841   2.906   5.647  16.725  0.2650  0.2305  0.0749
 8117TIP3    H145842   2.853   5.677  16.652  1.0482  0.2743 -0.4803
 8117TIP3    H245843   2.885   5.707  16.797 -1.6837 -0.7699  0.3747
 8118TIP3   OH245844   1.881   3.930  12.571 -0.2607 -0.1011 -0.3029
 8118TIP3    H145845   1.890   4.023  12.549 -1.4953  0.1061  0.0083
 8118TIP3    H245846   1.966   3.905  12.606  0.6407  0.4667 -2.0418
 8119TIP3   OH245847   5.845   0.536  11.432  0.8354 -0.6688  0.0957
 8119TIP3    H145848   5.853   0.543  11.527  0.8499 -1.3010  0.1446
 8119TIP3    H245849   5.811   0.448  11.418 -1.9303  0.4018 -0.3251
 8120TIP3   OH245850   4.375   4.143   2.598  0.0588  0.4431 -0.1024
 8120TIP3    H145851   4.359   4.229   2.559 -0.0787  0.1931 -0.6033
 8120TIP3    H245852   4.289   4.113   2.625  0.2720  1.0287  1.2798
 8121TIP3   OH245853   5.882   0.851   0.048  0.1782  0.0003  0.2766
 8121TIP3    H145854   5.935   0.931   0.042  0.3269 -0.1980 -1.2852
 8121TIP3    H245855   5.844   0.842  -0.039  1.2233 -2.3824  0.0464
 8122TIP3   OH245856   2.814   4.381   4.190  0.4018  0.3057 -0.1895
 8122TIP3    H145857   2.783   4.361   4.101  1.0006 -0.8232 -0.1515
 8122TIP3    H245858   2.765   4.321   4.246  0.6402  0.4383  0.1605
 8123TIP3   OH245859   1.255   2.800  12.860 -0.1035  0.8121  0.6212
 8123TIP3    H145860   1.331   2.748  12.832 -0.5586  0.1462  0.6041
 8123TIP3    H245861   1.239   2.861  12.789 -1.1403 -0.7405 -0.5014
 8124TIP3   OH245862   1.954   1.136   5.843  0.1817  0.2093  0.0716
 8124TIP3    H145863   1.892   1.067   5.823  0.7930 -0.2505 -0.2588
 8124TIP3    H245864   1.920   1.177   5.923 -0.9813  0.4994 -0.5640
 8125TIP3   OH245865   5.658   6.004   0.913 -0.2043 -0.3165  0.6381
 8125TIP3    H145866   5.616   5.921   0.935 -0.9554 -0.3812 -0.9652
 8125TIP3    H245867   5.675   5.998   0.819 -0.9000  1.6028  0.3601
 8126TIP3   OH245868   0.654   4.616   4.771 -0.7958 -0.1786  0.7482
 8126TIP3    H145869   0.600   4.549   4.812  0.1265 -1.1864  0.3463
 8126TIP3    H245870   0.636   4.606   4.677  0.6445 -1.0540  0.5387
 8127TIP3   OH245871   2.115   6.691   0.937 -1.0065  0.1380 -0.0081
 8127TIP3    H145872   2.151   6.719   1.022  0.3060 -1.4005 -0.0234
 8127TIP3    H245873   2.157   6.748   0.873 -0.4244 -0.0424  0.2050
 8128TIP3   OH245874   1.425   5.005  14.558 -0.3496  0.7610 -0.0965
 8128TIP3    H145875   1.405   5.064  14.630 -3.6144 -1.1901  0.7338
 8128TIP3    H245876   1.512   4.971  14.578 -0.6177  1.3263  2.2074
 8129TIP3   OH245877   5.283   2.463  16.347  0.2117  0.3295  1.0110
 8129TIP3    H145878   5.298   2.550  16.309  1.1400 -0.6133 -0.8310
 8129TIP3    H245879   5.256   2.409  16.273 -1.6360 -0.6637  2.3724
 8130TIP3   OH245880   4.650   0.598   5.449 -0.5543 -0.7502 -0.1472
 8130TIP3    H145881   4.627   0.540   5.376  0.5242  0.1575 -1.2529
 8130TIP3    H245882   4.728   0.644   5.418 -2.2981  2.4815  0.0221
 8131TIP3   OH245883   0.656   5.964  11.788  0.7282 -0.1418  0.0281
 8131TIP3    H145884   0.662   5.893  11.725  0.2942  1.1333 -1.4805
 8131TIP3    H245885   0.568   5.999  11.777  1.3648  1.4432 -0.1492
 8132TIP3   OH245886   1.583   0.558   4.024 -0.4364 -0.0129 -0.2491
 8132TIP3    H145887   1.569   0.496   3.953 -2.3116  1.2051 -0.9674
 8132TIP3    H245888   1.633   0.629   3.985 -0.3647  0.0605 -0.0261
 8133TIP3   OH245889   0.735   6.348   5.837  1.1305  0.1803 -0.4157
 8133TIP3    H145890   0.656   6.384   5.877  0.9291 -0.7064 -0.0090
 8133TIP3    H245891   0.794   6.334   5.910  1.3222 -0.0301 -0.6132
 8134TIP3   OH245892   0.000   2.610  14.563 -0.0401 -0.5713  0.2366
 8134TIP3    H145893  -0.040   2.557  14.632  0.0846 -1.0329 -0.0493
 8134TIP3    H245894  -0.024   2.700  14.585 -0.9059 -0.8165  0.2774
 8135TIP3   OH245895   1.857   6.726   0.594 -0.1541  0.4470  0.4755
 8135TIP3    H145896   1.943   6.747   0.557 -0.8604  0.9511 -0.9502
 8135TIP3    H245897   1.801   6.714   0.517 -1.4491  0.5177  1.3962
 8136TIP3   OH245898   4.297   4.240  13.388  0.5047  0.7056 -0.4463
 8136TIP3    H145899   4.230   4.176  13.413  1.0403 -0.3079 -1.5677
 8136TIP3    H245900   4.316   4.287  13.470 -0.4095 -0.0764  0.2367
 8137TIP3   OH245901   4.562   4.667   5.700 -0.1723  0.1917 -0.0859
 8137TIP3    H145902   4.584   4.608   5.773  0.4291 -0.5258 -0.8367
 8137TIP3    H245903   4.600   4.624   5.623  1.2409  2.1173 -0.4971
 8138TIP3   OH245904   0.620   2.334   5.267 -0.0624 -0.0628  0.1799
 8138TIP3    H145905   0.617   2.240   5.285  0.4191 -0.2581 -0.7522
 8138TIP3    H245906   0.695   2.365   5.318 -1.4131  0.1767  2.0786
 8139TIP3   OH245907   0.298   6.343  16.155 -0.3943  0.3448  0.0847
 8139TIP3    H145908   0.207   6.367  16.172 -1.2509 -1.9977 -1.0588
 8139TIP3    H245909   0.331   6.314  16.240 -0.5555  1.5906  0.5956
 8140TIP3   OH245910   2.371   1.437  15.778  0.2342 -0.5985 -0.5098
 8140TIP3    H145911   2.426   1.475  15.847 -0.4097  0.2488 -0.4435
 8140TIP3    H245912   2.348   1.350  15.811  1.9945 -1.1976 -0.8072
 8141TIP3   OH245913   4.856   5.819   4.746  0.3871  0.4697  0.2235
 8141TIP3    H145914   4.812   5.750   4.795  1.2331  0.3978  0.8871
 8141TIP3    H245915   4.927   5.774   4.699  0.6857  0.8260  0.3330
 8142TIP3   OH245916   5.661   3.680   5.759 -0.2442 -0.3513  0.2831
 8142TIP3    H145917   5.604   3.613   5.720 -0.7220 -0.4294  1.1176
 8142TIP3    H245918   5.648   3.757   5.704  0.8522 -1.1296 -1.1361
 8143TIP3   OH245919   4.009   1.446   1.656  0.1083 -0.9938  0.4529
 8143TIP3    H145920   4.100   1.433   1.684 -0.0184  0.4075  1.5328
 8143TIP3    H245921   3.957   1.427   1.733 -0.5658 -2.2621 -0.2947
 8144TIP3   OH245922   5.251   2.461   3.323 -0.2885 -0.1176  0.2769
 8144TIP3    H145923   5.163   2.441   3.357  0.1251 -1.1854  0.7549
 8144TIP3    H245924   5.240   2.542   3.274 -1.4135  0.1023  0.8772
 8145TIP3   OH245925   5.773   5.347  12.919  0.2763 -0.3306  0.1249
 8145TIP3    H145926   5.733   5.428  12.885  0.6013  0.9860  2.7296
 8145TIP3    H245927   5.709   5.313  12.981  0.9318 -1.0777  0.3972
 8146TIP3   OH245928   4.359   2.246  16.886 -0.0208 -0.2357  0.4802
 8146TIP3    H145929   4.427   2.308  16.858  0.5532 -1.0211  0.1396
 8146TIP3    H245930   4.282   2.302  16.902  0.7441  0.6809  1.0624
 8147TIP3   OH245931   4.151   6.798   5.205 -0.1688  0.6713  0.3153
 8147TIP3    H145932   4.208   6.723   5.224 -1.6554 -0.8018 -0.8715
 8147TIP3    H245933   4.181   6.867   5.264  2.0884 -0.4352  0.5132
 8148TIP3   OH245934   3.151   3.993   5.167  0.0641 -0.1117 -0.2966
 8148TIP3    H145935   3.084   3.950   5.220 -0.1586 -0.4491 -0.8529
 8148TIP3    H245936   3.223   4.009   5.228 -0.5925  0.4267  0.3536
 8149TIP3   OH245937   2.049   2.595  14.983  0.0299  0.0515  0.2556
 8149TIP3    H145938   2.130   2.561  14.946  1.5843  0.4108  3.2291
 8149TIP3    H245939   2.016   2.656  14.917  2.6423  0.5762 -0.6009
 8150TIP3   OH245940   6.622   2.317   6.328 -0.4841  0.2678  0.2351
 8150TIP3    H145941   6.690   2.315   6.261 -0.6436  2.6043 -0.0199
 8150TIP3    H245942   6.562   2.386   6.300 -0.5219  1.3119  2.7971
 8151TIP3   OH245943   6.345   6.485   0.869  0.1280 -0.0296  0.2935
 8151TIP3    H145944   6.397   6.535   0.933  1.1669  1.4783 -1.6776
 8151TIP3    H245945   6.401   6.411   0.846  0.3621  0.2084  0.0840
 8152TIP3   OH245946   5.886   1.833  11.425  0.1159  0.2927  0.1799
 8152TIP3    H145947   5.872   1.748  11.384 -0.5618  0.2267  0.5450
 8152TIP3    H245948   5.800   1.876  11.422  0.4533  0.9611 -0.0036
 8153TIP3   OH245949   1.125   1.277   4.250  0.2868 -0.2970 -0.0838
 8153TIP3    H145950   1.129   1.187   4.217  0.6576 -0.2486 -0.1760
 8153TIP3    H245951   1.045   1.313   4.211  0.0771 -0.6234  0.0461
 8154TIP3   OH245952   2.907   3.569   5.792 -0.1381 -0.2808 -0.5570
 8154TIP3    H145953   2.823   3.525   5.808  0.0665 -0.7245 -0.6778
 8154TIP3    H245954   2.895   3.658   5.823 -0.3512 -0.6082  0.2973
 8155TIP3   OH245955   1.904   4.853  11.241  0.3463  0.0989 -0.5722
 8155TIP3    H145956   1.859   4.935  11.262  1.3351  0.3611  0.6094
 8155TIP3    H245957   1.917   4.811  11.326 -2.4870 -2.5493 -1.4035
 8156TIP3   OH245958   5.493   5.879  13.750 -0.0371 -0.4693  0.0328
 8156TIP3    H145959   5.446   5.951  13.792  0.9321 -0.2464  0.7443
 8156TIP3    H245960   5.493   5.902  13.657 -0.8441 -0.1916  0.0970
 8157TIP3   OH245961   0.224   3.328  14.726 -0.7687  0.3985  0.1721
 8157TIP3    H145962   0.316   3.312  14.748 -1.3214 -0.6634  1.7873
 8157TIP3    H245963   0.187   3.364  14.806 -2.3045 -1.3585  0.2720
 8158TIP3   OH245964   4.023   6.104  13.126  0.8721 -0.5096 -0.4710
 8158TIP3    H145965   3.989   6.119  13.038 -1.6908 -2.1112  0.1881
 8158TIP3    H245966   4.027   6.009  13.135 -0.6839 -0.4153  1.7688
 8159TIP3   OH245967   4.055   4.678   1.505  0.5228  0.0780  0.3483
 8159TIP3    H145968   3.975   4.656   1.553  0.2731 -2.4030 -1.0894
 8159TIP3    H245969   4.025   4.735   1.434  0.2802  0.5168  0.8017
 8160TIP3   OH245970   3.033   5.931   3.193  0.5666 -0.0538  0.3068
 8160TIP3    H145971   3.046   6.004   3.132  0.7081 -1.0717 -0.8996
 8160TIP3    H245972   3.121   5.904   3.218  0.5038  0.5228  1.1671
 8161TIP3   OH245973   1.379   1.621  12.536 -0.2385 -0.1857  0.3544
 8161TIP3    H145974   1.448   1.654  12.594 -0.3524  0.3324  0.1919
 8161TIP3    H245975   1.299   1.628  12.589 -0.5087  1.2687 -0.2273
 8162TIP3   OH245976   1.384   6.622  11.785  0.1970  0.0505 -0.0299
 8162TIP3    H145977   1.455   6.647  11.845  0.2792  0.6123 -0.3573
 8162TIP3    H245978   1.314   6.591  11.842  0.4259  0.2072  0.3384
 8163TIP3   OH245979   0.747   6.028  12.900 -0.1486  0.5453 -0.0344
 8163TIP3    H145980   0.677   6.022  12.834  0.1606  0.3445 -0.3463
 8163TIP3    H245981   0.748   5.941  12.941 -2.0735  1.4415  2.0195
 8164TIP3   OH245982   0.830   2.062  16.141  0.3095 -0.0431 -0.0415
 8164TIP3    H145983   0.814   2.071  16.235  1.2115  1.4972 -0.0125
 8164TIP3    H245984   0.889   1.988  16.134  0.8531  0.3073  0.6923
 8165TIP3   OH245985   0.782   2.165  15.593  0.6969 -0.1064 -0.0090
 8165TIP3    H145986   0.707   2.224  15.584  1.2789  0.8976  1.5559
 8165TIP3    H245987   0.745   2.083  15.625  0.0246 -0.2628 -1.1601
 8166TIP3   OH245988   1.407   1.215  14.830 -0.0665  0.4830  0.3538
 8166TIP3    H145989   1.322   1.174  14.847 -0.6264  1.8047  0.8038
 8166TIP3    H245990   1.471   1.157  14.872 -0.6098 -1.1449 -0.9726
 8167TIP3   OH245991   0.994   1.664   2.123 -0.6392  0.4412  0.2249
 8167TIP3    H145992   0.974   1.639   2.213 -0.3153  2.4946  0.8904
 8167TIP3    H245993   0.913   1.703   2.090 -0.6384  0.0456 -0.2637
 8168TIP3   OH245994   0.566   2.772  12.108 -0.3824  0.8743 -0.2087
 8168TIP3    H145995   0.525   2.794  12.191 -0.5202 -0.5250  0.1082
 8168TIP3    H245996   0.497   2.732  12.056  0.2105 -0.1858 -0.2027
 8169TIP3   OH245997   5.090   5.581  14.577  0.4114 -0.2393  0.1530
 8169TIP3    H145998   5.119   5.649  14.638  0.9306  1.2252 -1.6803
 8169TIP3    H245999   5.167   5.529  14.560  0.6592  0.3349 -0.4954
 8170TIP3   OH246000   1.127   2.507  16.076  0.0864 -0.3590 -0.2744
 8170TIP3    H146001   1.062   2.439  16.095 -1.5414  1.6743  1.6501
 8170TIP3    H246002   1.075   2.585  16.055  1.8659  1.4576  1.8393
 8171TIP3   OH246003   5.360   0.322  11.586 -0.1868  0.3694  0.3121
 8171TIP3    H146004   5.323   0.401  11.626  0.3089  0.2680  0.9712
 8171TIP3    H246005   5.428   0.354  11.528 -0.5998  0.4838 -0.1166
 8172TIP3   OH246006   5.842   4.493  16.804  0.6388 -0.6090 -0.1228
 8172TIP3    H146007   5.870   4.504  16.895  0.4078  0.7707 -0.2194
 8172TIP3    H246008   5.900   4.425  16.770  0.3490 -1.5706  1.2146
 8173TIP3   OH246009   3.058   1.981  12.765  0.3675 -0.6069 -0.0746
 8173TIP3    H146010   3.083   1.950  12.852  0.7378 -3.1654 -1.0650
 8173TIP3    H246011   3.130   1.955  12.708 -0.2640  0.3030 -1.3184
 8174TIP3   OH246012   5.275   6.633  11.421 -0.2033 -0.0974 -0.0801
 8174TIP3    H146013   5.289   6.569  11.351 -0.1138  1.2771 -1.3363
 8174TIP3    H246014   5.281   6.718  11.378 -0.0939  0.7797  1.6145
 8175TIP3   OH246015   3.346   5.942   0.090 -0.1469 -0.1097 -0.2030
 8175TIP3    H146016   3.349   5.858   0.045 -0.8792 -0.0073 -0.4517
 8175TIP3    H246017   3.253   5.963   0.095  0.1441  1.9910 -2.5315
 8176TIP3   OH246018   1.443   3.096  14.539  0.3155 -0.1473  0.7610
 8176TIP3    H146019   1.404   3.010  14.523 -0.6689  0.4549 -0.1193
 8176TIP3    H246020   1.409   3.152  14.469 -1.0995  1.6004  2.7767
 8177TIP3   OH246021   4.945   4.036   2.248  0.4795 -0.4903 -0.1459
 8177TIP3    H146022   4.999   4.092   2.304 -1.2330  0.6388  0.4261
 8177TIP3    H246023   4.889   4.097   2.200 -1.2464 -1.7011  0.2914
 8178TIP3   OH246024   0.495   2.225   5.620 -0.8141  0.1527 -0.1493
 8178TIP3    H146025   0.572   2.281   5.621 -0.3014 -0.5225 -1.0933
 8178TIP3    H246026   0.515   2.158   5.554 -2.1661 -0.0772 -0.3383
 8179TIP3   OH246027   6.538   6.065   5.121  0.6907  0.1102 -0.5340
 8179TIP3    H146028   6.514   5.975   5.099  1.9109 -0.0970 -1.0175
 8179TIP3    H246029   6.466   6.118   5.085 -0.7463 -0.7667  1.0000
 8180TIP3   OH246030   1.417   2.656   5.349  0.4079  0.2019 -0.0683
 8180TIP3    H146031   1.406   2.565   5.320  1.1153  0.1404 -0.1321
 8180TIP3    H246032   1.466   2.698   5.279 -2.0155  1.2695 -1.2158
 8181TIP3   OH246033   5.027   1.343  14.705 -0.4020 -0.1929 -0.3087
 8181TIP3    H146034   4.951   1.292  14.678 -1.2698  0.2693  1.1738
 8181TIP3    H246035   5.099   1.279  14.710 -1.0016 -0.8811 -0.4600
 8182TIP3   OH246036   3.602   0.167  13.705 -0.3210  0.5548 -0.3880
 8182TIP3    H146037   3.514   0.195  13.732 -0.4235 -0.3942  0.2846
 8182TIP3    H246038   3.643   0.247  13.671 -2.0410  0.6354 -2.3485
 8183TIP3   OH246039   0.810   2.617  16.324  0.2250  0.4217 -0.4527
 8183TIP3    H146040   0.728   2.601  16.277 -0.2751  0.8502  0.2857
 8183TIP3    H246041   0.869   2.652  16.256 -0.7949  1.9771 -0.5655
 8184TIP3   OH246042   5.441   4.826  14.695 -0.0390 -0.2831 -0.2890
 8184TIP3    H146043   5.436   4.915  14.731 -0.1963 -0.4339  0.0553
 8184TIP3    H246044   5.475   4.839  14.606 -2.1171  0.3284 -1.0350
 8185TIP3   OH246045   1.449   0.238   6.331  0.0051  0.6062  0.2032
 8185TIP3    H146046   1.522   0.231   6.268  0.1976  0.0013  0.4898
 8185TIP3    H246047   1.484   0.293   6.401  0.1567  0.4035  0.2895
 8186TIP3   OH246048   4.345   6.318   4.479 -0.4016  1.3921 -0.0997
 8186TIP3    H146049   4.395   6.293   4.557  1.7466  1.6861 -1.3421
 8186TIP3    H246050   4.373   6.408   4.460 -2.7629  2.2152  0.2127
 8187TIP3   OH246051   0.625   1.668  15.565  0.2866  0.1180  0.3125
 8187TIP3    H146052   0.538   1.645  15.598  0.9966 -1.2147  1.2618
 8187TIP3    H246053   0.617   1.761  15.540 -0.6020  0.8419  3.1129
 8188TIP3   OH246054   4.681   3.897   0.617 -0.1845  0.2035 -0.5194
 8188TIP3    H146055   4.724   3.823   0.661 -0.2546  0.3972 -0.1233
 8188TIP3    H246056   4.726   3.974   0.651 -0.0552  0.3426 -0.9990
 8189TIP3   OH246057   4.713   1.829   4.037  0.2857  0.1031 -0.0429
 8189TIP3    H146058   4.627   1.803   4.003 -0.1639  0.8740  0.4982
 8189TIP3    H246059   4.758   1.746   4.055  0.3495 -0.3262 -2.0313
 8190TIP3   OH246060   0.311   5.756   3.179 -0.3603  0.0051  0.0709
 8190TIP3    H146061   0.285   5.730   3.267  1.9018  1.0990  1.1003
 8190TIP3    H246062   0.397   5.715   3.166 -0.1484  0.8139 -1.1682
 8191TIP3   OH246063   4.081   1.165  12.219  0.3613 -0.6139  0.4745
 8191TIP3    H146064   4.027   1.236  12.255 -0.2451 -1.1403  0.6049
 8191TIP3    H246065   4.073   1.094  12.283 -0.1063 -1.2820 -0.3117
 8192TIP3   OH246066   3.648   2.224   3.644  0.2536 -0.1036  0.3317
 8192TIP3    H146067   3.588   2.190   3.578 -0.6873 -0.2209  1.2337
 8192TIP3    H246068   3.716   2.157   3.651 -0.3646 -0.7244  0.4509
 8193TIP3   OH246069   4.505   0.829  14.738 -0.5233  0.3223 -0.1492
 8193TIP3    H146070   4.435   0.882  14.774  0.7364  1.0496  1.2857
 8193TIP3    H246071   4.529   0.873  14.656  0.0752  1.6486  0.7099
 8194TIP3   OH246072   4.454   2.169   1.724 -0.0809 -0.1349 -0.1310
 8194TIP3    H146073   4.492   2.153   1.810 -0.7660  3.0787  0.8199
 8194TIP3    H246074   4.523   2.215   1.676 -0.4796  0.0277 -0.5499
 8195TIP3   OH246075   4.682   1.904  12.958  0.4510 -0.2562 -0.3582
 8195TIP3    H146076   4.588   1.921  12.962  0.4802 -0.2519  0.5294
 8195TIP3    H246077   4.718   1.947  13.036  0.7314 -2.9261  1.0472
 8196TIP3   OH246078   5.724   6.730   1.531 -0.0711  0.4404  0.0117
 8196TIP3    H146079   5.726   6.823   1.508  0.5375  0.6823  1.0202
 8196TIP3    H246080   5.757   6.685   1.453 -1.1442  1.0008 -0.7820
 8197TIP3   OH246081   3.293   0.081   3.613  0.1180  0.2614 -0.4917
 8197TIP3    H146082   3.305  -0.011   3.636  1.4970  0.1568 -1.5993
 8197TIP3    H246083   3.198   0.095   3.621  0.2279 -0.3903  2.8232
 8198TIP3   OH246084   6.715   2.829  13.760  0.1155  0.3466 -0.3684
 8198TIP3    H146085   6.764   2.909  13.748  2.7707 -1.5173 -2.7398
 8198TIP3    H246086   6.752   2.788  13.838 -0.3548  0.7835  0.0890
 8199TIP3   OH246087   4.450   1.867   1.898  0.3656  0.1739  0.1885
 8199TIP3    H146088   4.374   1.856   1.955  1.2613 -0.0529  1.3389
 8199TIP3    H246089   4.485   1.953   1.919  1.8334 -0.6881  1.3723
 8200TIP3   OH246090   5.110   1.457   5.571 -0.7517  0.3037 -0.5155
 8200TIP3    H146091   5.188   1.403   5.556 -0.5983  0.4023 -0.0765
 8200TIP3    H246092   5.055   1.403   5.629 -0.1066  1.0690  0.8329
 8201TIP3   OH246093   6.730   2.476  12.609 -0.4091 -0.3292 -0.1208
 8201TIP3    H146094   6.805   2.424  12.580 -0.1836  0.8825 -1.7909
 8201TIP3    H246095   6.753   2.504  12.697 -0.3543 -2.6739  0.6594
 8202TIP3   OH246096   3.809   4.087  15.512 -0.0773  0.2580 -0.5496
 8202TIP3    H146097   3.842   4.043  15.590 -1.8381 -0.9023 -0.4465
 8202TIP3    H246098   3.887   4.101  15.458  0.6782 -1.9402 -0.0850
 8203TIP3   OH246099   0.635   1.851   2.386 -0.1033  0.2818 -0.1270
 8203TIP3    H146100   0.594   1.782   2.438  0.2888  1.3098  1.5604
 8203TIP3    H246101   0.607   1.933   2.427  0.9104  1.0927 -1.0124
 8204TIP3   OH246102   0.499   0.271  11.349  0.2892 -0.1768  0.3862
 8204TIP3    H146103   0.506   0.353  11.300  1.0110  0.0627  0.8936
 8204TIP3    H246104   0.503   0.203  11.282  4.7297  0.0039  0.3483
 8205TIP3   OH246105   2.542   0.360  14.894 -0.9207 -0.2794 -0.1287
 8205TIP3    H146106   2.518   0.452  14.883 -1.0756 -0.4300 -1.0746
 8205TIP3    H246107   2.608   0.361  14.963  0.2196  0.7271 -1.2070
 8206TIP3   OH246108   3.905   2.603   2.321  0.4251 -0.1915 -0.2603
 8206TIP3    H146109   3.973   2.539   2.301  0.4969 -0.4627  0.8406
 8206TIP3    H246110   3.953   2.681   2.350  0.3869  0.7943 -2.7617
 8207TIP3   OH246111   4.814   5.892  15.896  0.4099 -0.6634 -0.3603
 8207TIP3    H146112   4.748   5.856  15.956 -0.7717  0.7327 -0.7937
 8207TIP3    H246113   4.771   5.968  15.856  3.2635  2.0607  1.5188
 8208TIP3   OH246114   3.087   1.982  14.283  0.4736 -0.0929 -0.2942
 8208TIP3    H146115   3.123   2.044  14.347  0.7458  1.8049 -2.2412
 8208TIP3    H246116   3.159   1.962  14.224 -0.0279 -1.0959 -0.5883
 8209TIP3   OH246117   0.375   2.212   4.881 -0.1065  0.6311 -0.4963
 8209TIP3    H146118   0.337   2.278   4.824  0.4433  1.1653 -0.2538
 8209TIP3    H246119   0.349   2.238   4.969  1.5957  1.5668 -0.2323
 8210TIP3   OH246120   0.617   2.132   0.764 -0.4733 -0.5934 -0.6929
 8210TIP3    H146121   0.541   2.076   0.781  0.2095 -1.5679 -0.8698
 8210TIP3    H246122   0.578   2.217   0.742 -1.5221 -1.0803 -0.7731
 8211TIP3   OH246123   2.007   0.463  13.329  0.1362 -0.0051 -0.2518
 8211TIP3    H146124   2.035   0.554  13.318 -0.8883  0.3441 -0.0174
 8211TIP3    H246125   1.961   0.462  13.413 -0.1839 -0.6569 -0.4356
 8212TIP3   OH246126   5.327   4.381  13.344  0.3737  0.5023 -0.4327
 8212TIP3    H146127   5.234   4.362  13.339  0.3988 -0.0488  1.0421
 8212TIP3    H246128   5.351   4.363  13.435  1.9301  0.5652 -0.8073
 8213TIP3   OH246129   0.926   6.232   0.695 -0.5096 -0.1644 -0.1294
 8213TIP3    H146130   0.937   6.275   0.610  0.3848  1.0620  0.5904
 8213TIP3    H246131   1.001   6.173   0.702  0.3764  1.0039  0.5316
 8214TIP3   OH246132   0.224   4.176  13.045 -0.4448 -0.3867 -0.3143
 8214TIP3    H146133   0.140   4.146  13.080 -0.3533  0.5648  0.7631
 8214TIP3    H246134   0.226   4.270  13.065  0.2132 -0.0933 -1.6864
 8215TIP3   OH246135   5.936   5.140  16.474 -0.0089 -0.1745 -0.0434
 8215TIP3    H146136   6.015   5.185  16.441 -0.4942  0.6942 -0.0447
 8215TIP3    H246137   5.906   5.087  16.401  1.1354 -1.2689  0.2741
 8216TIP3   OH246138   2.728   1.029   0.097 -0.2686 -1.3233 -0.1107
 8216TIP3    H146139   2.663   0.970   0.135  1.9263 -2.7987  1.4945
 8216TIP3    H246140   2.791   0.970   0.054  0.6860 -0.0232 -0.5301
 8217TIP3   OH246141   5.733   4.923  17.066 -0.0409  0.4432  0.1995
 8217TIP3    H146142   5.730   4.952  17.157 -0.0291  3.2517 -0.6583
 8217TIP3    H246143   5.826   4.924  17.044 -0.0759  0.1346  0.0307
 8218TIP3   OH246144   5.123   1.594   4.151  0.6238  0.2356 -0.1931
 8218TIP3    H146145   5.092   1.506   4.128  0.1456  0.2425  0.4157
 8218TIP3    H246146   5.210   1.600   4.111  0.5375 -0.4056 -0.4857
 8219TIP3   OH246147   5.753   6.012  15.362  0.2979 -0.5329 -0.2972
 8219TIP3    H146148   5.767   6.009  15.457  0.6450 -0.7590 -0.3553
 8219TIP3    H246149   5.706   5.930  15.343 -1.9482  0.6407  0.0307
 8220TIP3   OH246150   0.123   5.594  12.140  0.3612  0.1041  0.0384
 8220TIP3    H146151   0.150   5.686  12.139 -2.0929  0.8911  2.2588
 8220TIP3    H246152   0.104   5.574  12.048  0.1040  2.0484 -0.3452
 8221TIP3   OH246153   1.200   0.583  10.485 -0.7460 -0.0451 -0.6972
 8221TIP3    H146154   1.119   0.633  10.472 -0.7425 -0.2369 -1.4906
 8221TIP3    H246155   1.208   0.574  10.580  0.3770  3.3029 -0.4213
 8222TIP3   OH246156   3.425   2.559  11.468 -0.2864 -0.2184  0.2521
 8222TIP3    H146157   3.472   2.502  11.407 -1.1460 -0.6413 -0.0255
 8222TIP3    H246158   3.347   2.586  11.419 -0.5826  0.0692  0.8868
 8223TIP3   OH246159   6.127   1.208   2.725  0.2925  0.6031  0.1844
 8223TIP3    H146160   6.158   1.124   2.758 -0.4794  0.2540  0.0145
 8223TIP3    H246161   6.032   1.203   2.730  0.1792  0.8136 -1.4196
 8224TIP3   OH246162   4.824   0.619  12.594 -0.2537 -0.0255 -0.2946
 8224TIP3    H146163   4.898   0.674  12.568 -0.5237 -0.1714 -1.3780
 8224TIP3    H246164   4.761   0.679  12.632 -0.2494  0.3158 -0.8282
 8225TIP3   OH246165   4.609   1.618  13.626  0.1732  0.3895  0.1654
 8225TIP3    H146166   4.663   1.694  13.645 -0.4040  0.5031  1.4434
 8225TIP3    H246167   4.655   1.572  13.556  1.0213  1.3998  0.0521
 8226TIP3   OH246168   6.515   4.517  11.620 -0.7298  0.4275 -0.0322
 8226TIP3    H146169   6.601   4.556  11.633 -0.7846 -0.1562  2.3282
 8226TIP3    H246170   6.457   4.592  11.607  0.0572  0.8360 -1.2940
 8227TIP3   OH246171   3.571   1.858   0.231  0.1798 -0.0412  0.3090
 8227TIP3    H146172   3.512   1.807   0.287  0.9348  1.3778  2.4686
 8227TIP3    H246173   3.657   1.818   0.244  0.2725  0.0016 -0.1807
 8228TIP3   OH246174   2.323   1.097  14.244  0.4931  0.0566  0.4104
 8228TIP3    H146175   2.251   1.156  14.221  0.5169  0.0320  0.2684
 8228TIP3    H246176   2.299   1.062  14.329 -0.5104 -1.2738 -0.3922
 8229TIP3   OH246177   4.194   0.837  16.765 -0.6082  0.3700  0.3455
 8229TIP3    H146178   4.114   0.884  16.791  0.7422  2.0125  1.6012
 8229TIP3    H246179   4.200   0.852  16.671 -0.0822  2.9400  0.7566
 8230TIP3   OH246180   3.360   2.403   3.133  0.7693  0.0881  0.1953
 8230TIP3    H146181   3.433   2.438   3.185  1.0321  1.3306 -0.9789
 8230TIP3    H246182   3.298   2.475   3.126  0.7212 -0.0747 -1.1875
 8231TIP3   OH246183   1.925   4.840   2.605 -0.2650 -0.1522  0.4651
 8231TIP3    H146184   1.994   4.857   2.541  1.2689  0.2860  2.2014
 8231TIP3    H246185   1.857   4.905   2.585  0.2978  0.1195 -0.5775
 8232TIP3   OH246186   5.623   0.071  16.553  1.2724  0.2237  0.1809
 8232TIP3    H146187   5.620   0.066  16.458 -1.4259 -0.0846  0.2307
 8232TIP3    H246188   5.571   0.148  16.575  0.4635 -0.6476  1.4466
 8233TIP3   OH246189   0.711   4.966  15.541 -0.0976  0.5866  1.3025
 8233TIP3    H146190   0.799   4.932  15.527 -0.3179  0.7443 -0.6170
 8233TIP3    H246191   0.671   4.906  15.604  0.0365 -1.8520 -0.8762
 8234TIP3   OH246192   3.650   3.176   4.826  0.2949 -0.2869  0.0259
 8234TIP3    H146193   3.577   3.226   4.789  1.1690  1.1061  0.1205
 8234TIP3    H246194   3.654   3.096   4.774 -0.6005  0.1254 -0.6901
 8235TIP3   OH246195   0.362   4.519   5.444 -0.8177  0.4082 -0.1253
 8235TIP3    H146196   0.370   4.607   5.409  0.4244  0.2771 -0.1838
 8235TIP3    H246197   0.402   4.524   5.531 -1.8193  0.1844  0.3601
 8236TIP3   OH246198   5.279   1.470  11.942 -0.7809 -0.1614 -0.7253
 8236TIP3    H146199   5.358   1.499  11.896  0.2313  0.8395  1.5613
 8236TIP3    H246200   5.254   1.545  11.996 -1.8238 -1.3493  0.4786
 8237TIP3   OH246201   1.719   0.887   6.700 -0.4742  0.0755 -0.5363
 8237TIP3    H146202   1.739   0.823   6.631  0.1214  0.0367 -0.3299
 8237TIP3    H246203   1.786   0.955   6.689  0.0524 -0.2756  0.4394
 8238TIP3   OH246204   2.166   1.225  13.695  0.3625  0.7265 -0.2883
 8238TIP3    H146205   2.252   1.205  13.660 -0.8456 -1.1380 -2.3376
 8238TIP3    H246206   2.120   1.267  13.622 -1.6607 -1.7332 -0.5209
 8239TIP3   OH246207   3.115   1.833   1.389  0.0462 -0.4484 -0.1830
 8239TIP3    H146208   3.184   1.770   1.370  1.5028  1.1369 -0.2946
 8239TIP3    H246209   3.065   1.839   1.308  0.7924 -0.3730 -0.6414
 8240TIP3   OH246210   0.371   0.999   3.364 -0.2419  0.0899  0.1442
 8240TIP3    H146211   0.374   0.903   3.370 -0.5966 -0.0011 -1.1040
 8240TIP3    H246212   0.280   1.019   3.343 -0.0336  0.6730 -0.1910
 8241TIP3   OH246213   5.596   3.203  10.827  0.2507  0.2376  0.5956
 8241TIP3    H146214   5.510   3.211  10.785  0.7773 -0.1092 -0.5540
 8241TIP3    H246215   5.606   3.110  10.844  1.3262  0.0093 -1.2386
 8242TIP3   OH246216   2.951   1.520  14.468  0.0114  0.0263 -0.1579
 8242TIP3    H146217   2.947   1.615  14.482 -0.0991 -0.1951  1.3929
 8242TIP3    H246218   2.872   1.499  14.418 -1.4361  0.3649  1.9344
 8243TIP3   OH246219   6.608   4.516   5.122  0.0869  0.2386  0.1134
 8243TIP3    H146220   6.697   4.487   5.143  0.7485  2.9741  1.4234
 8243TIP3    H246221   6.556   4.492   5.198  0.9665  3.6959  1.9128
 8244TIP3   OH246222   0.917   6.279   1.652 -0.5304  0.1375  0.1203
 8244TIP3    H146223   0.934   6.239   1.567 -0.7970  1.9729 -0.8264
 8244TIP3    H246224   0.836   6.328   1.640 -1.0901 -0.3565  1.7184
 8245TIP3   OH246225   4.239   4.672  11.998 -0.1232 -0.1117  0.6804
 8245TIP3    H146226   4.194   4.690  12.080 -0.4289 -2.2419  1.0108
 8245TIP3    H246227   4.216   4.581  11.977  0.3556  0.2294 -1.4992
 8246TIP3   OH246228   1.838   4.454   0.728 -0.3183  0.1391 -0.0419
 8246TIP3    H146229   1.842   4.387   0.796 -0.5144  0.3574  0.1877
 8246TIP3    H246230   1.890   4.526   0.763 -1.7949  0.9017  0.6087
 8247TIP3   OH246231   2.181   1.851   1.165 -0.4679  0.2490 -0.3915
 8247TIP3    H146232   2.214   1.934   1.198  2.1661 -1.0968  0.4481
 8247TIP3    H246233   2.229   1.837   1.083 -0.5974 -0.6335 -0.3229
 8248TIP3   OH246234   4.281   3.664   5.769  0.3501  0.1322  0.0635
 8248TIP3    H146235   4.233   3.711   5.700 -1.6217 -1.0682  0.5842
 8248TIP3    H246236   4.343   3.729   5.802  0.2237  1.2315 -1.7352
 8249TIP3   OH246237   6.036   5.456   4.045  0.0952 -0.6931  0.2214
 8249TIP3    H146238   6.077   5.376   4.011 -0.6719 -0.1025 -2.1748
 8249TIP3    H246239   5.964   5.474   3.985 -1.8712 -0.0680  2.6841
 8250TIP3   OH246240   4.656   6.516   0.316  0.7504  0.0194  0.3175
 8250TIP3    H146241   4.675   6.569   0.393 -2.1324 -1.2104  1.9698
 8250TIP3    H246242   4.584   6.563   0.273  1.9825  0.4141 -1.3765
 8251TIP3   OH246243   4.497   2.881   4.311 -0.5069  0.1289  0.4442
 8251TIP3    H146244   4.507   2.794   4.350  0.9187  0.9976  2.0837
 8251TIP3    H246245   4.480   2.939   4.385 -0.8051  1.3553 -0.5588
 8252TIP3   OH246246   0.093   5.905   4.651 -0.7214 -0.5112 -0.2673
 8252TIP3    H146247   0.025   5.900   4.717 -1.1598  1.2029 -0.5716
 8252TIP3    H246248   0.066   5.842   4.584 -0.3408 -2.1570  1.0875
 8253TIP3   OH246249   5.140   2.373  15.637 -0.2720 -0.1175  0.0157
 8253TIP3    H146250   5.186   2.335  15.562 -0.1887 -1.9457  0.9711
 8253TIP3    H246251   5.142   2.305  15.704  0.2358  1.7152  1.9393
 8254TIP3   OH246252   5.676   0.368   5.621  0.0179 -0.1145 -0.1458
 8254TIP3    H146253   5.762   0.407   5.606  0.4296 -1.2595 -0.8471
 8254TIP3    H246254   5.677   0.340   5.712 -0.6727  2.4479  0.6792
 8255TIP3   OH246255   6.772   6.303   4.824  0.9442 -0.4842  0.3957
 8255TIP3    H146256   6.750   6.394   4.804  0.8612 -0.5188  0.3268
 8255TIP3    H246257   6.713   6.252   4.769  0.7801 -0.5781  0.6598
 8256TIP3   OH246258   0.918   1.548  11.258  0.0793  0.0987  0.3449
 8256TIP3    H146259   0.942   1.550  11.351 -3.6266 -1.8866  1.4254
 8256TIP3    H246260   0.867   1.628  11.245  0.5715  0.3603  0.0113
 8257TIP3   OH246261   4.246   0.977   0.395 -0.1263 -0.0868 -0.0724
 8257TIP3    H146262   4.253   1.050   0.333  0.2513 -0.2222 -0.1895
 8257TIP3    H246263   4.271   1.015   0.479  0.9439 -0.3007 -0.2929
 8258TIP3   OH246264   2.690   1.463   3.346 -0.5326 -0.0590 -0.2876
 8258TIP3    H146265   2.629   1.530   3.315  0.3353  0.8169 -0.1675
 8258TIP3    H246266   2.770   1.479   3.295  0.5721  0.7528  1.6250
 8259TIP3   OH246267   6.358   5.313  12.128  0.0845  0.2833  0.0443
 8259TIP3    H146268   6.453   5.321  12.141  0.2592 -0.8551 -0.4694
 8259TIP3    H246269   6.331   5.245  12.190 -0.0660 -0.8025 -1.1824
 8260TIP3   OH246270   6.742   0.463  11.641 -0.7313 -0.3985  0.5094
 8260TIP3    H146271   6.818   0.422  11.600 -1.2765 -0.4522 -0.4531
 8260TIP3    H246272   6.709   0.524  11.575 -0.0246  1.5040  1.8346
 8261TIP3   OH246273   1.446   2.183   2.944 -0.4897 -0.3907  0.1833
 8261TIP3    H146274   1.494   2.266   2.950 -0.1885 -0.4883 -0.7964
 8261TIP3    H246275   1.492   2.134   2.877 -0.3117 -1.5980  1.1674
 8262TIP3   OH246276   3.121   2.046   3.629  0.2300  0.3149 -0.0129
 8262TIP3    H146277   3.151   2.113   3.691  1.7676  0.7911 -1.2422
 8262TIP3    H246278   3.124   2.089   3.543  1.3234 -1.3570 -0.8405
 8263TIP3   OH246279   5.884   4.482  14.989 -0.7309 -0.0718 -0.1448
 8263TIP3    H146280   5.808   4.532  14.959  0.7648  2.4636  0.1423
 8263TIP3    H246281   5.870   4.395  14.954 -2.6965  0.9090 -1.9469
 8264TIP3   OH246282   1.812   4.893   0.919  0.1993 -0.2311 -0.3601
 8264TIP3    H146283   1.739   4.939   0.959 -1.7882 -2.3096 -1.5162
 8264TIP3    H246284   1.887   4.913   0.976 -1.2954  1.7013  0.9778
 8265TIP3   OH246285   6.523   6.379   3.969 -0.2666  0.2965  0.1215
 8265TIP3    H146286   6.454   6.436   4.004 -0.1063  0.0589  0.8327
 8265TIP3    H246287   6.492   6.356   3.882 -1.1798  0.0649  0.4926
 8266TIP3   OH246288   6.231   1.386  16.987 -0.0948 -0.3106  0.3018
 8266TIP3    H146289   6.231   1.290  16.987  2.6660 -0.3372  0.2016
 8266TIP3    H246290   6.307   1.410  17.040  0.0459  1.8239 -0.8233
 8267TIP3   OH246291   6.270   1.039  16.168 -0.1648 -0.4806  0.0932
 8267TIP3    H146292   6.203   0.971  16.173 -0.5980 -0.0816 -0.2102
 8267TIP3    H246293   6.228   1.117  16.206 -0.4661  0.2202 -1.6487
 8268TIP3   OH246294   2.852   5.061   5.183  0.1717 -0.2128 -0.4574
 8268TIP3    H146295   2.875   5.018   5.266 -0.5023 -1.7992 -1.0778
 8268TIP3    H246296   2.883   5.001   5.115 -0.5440  0.4139 -1.3500
 8269TIP3   OH246297   1.413   3.090   0.755  0.7989  0.0924  0.0053
 8269TIP3    H146298   1.337   3.068   0.808  0.8353 -0.4172 -0.1507
 8269TIP3    H246299   1.487   3.084   0.816  1.1256 -2.7429 -0.5990
 8270TIP3   OH246300   1.764   0.571  15.327 -0.6804  0.1829  0.2852
 8270TIP3    H146301   1.824   0.623  15.380 -0.2165 -0.6658  0.5956
 8270TIP3    H246302   1.688   0.557  15.383 -1.7042  2.2670 -0.5194
 8271TIP3   OH246303   5.380   4.781  14.135 -0.3977 -0.2311 -0.1579
 8271TIP3    H146304   5.340   4.808  14.052  0.2335  0.7114 -0.1682
 8271TIP3    H246305   5.307   4.776  14.196 -0.6109  1.0042 -0.2959
 8272TIP3   OH246306   1.423   1.324  14.244 -0.1732  0.1026  0.0239
 8272TIP3    H146307   1.480   1.309  14.319  1.0780 -1.0194 -1.1446
 8272TIP3    H246308   1.456   1.266  14.176 -3.1639 -1.1136 -0.4593
 8273TIP3   OH246309   2.500   2.466  11.055 -0.8403  0.6682 -0.1611
 8273TIP3    H146310   2.472   2.462  11.146  0.3608  1.3992  0.2580
 8273TIP3    H246311   2.496   2.559  11.032 -1.6480  0.4311 -1.0198
 8274TIP3   OH246312   2.116   1.557   3.781  0.4516  0.8105  0.0237
 8274TIP3    H146313   2.080   1.473   3.807 -0.9334  1.6569  0.8784
 8274TIP3    H246314   2.094   1.565   3.688  3.2087 -1.0794 -0.8619
 8275TIP3   OH246315   5.953   6.447   5.014 -0.4731  0.0333 -0.2105
 8275TIP3    H146316   5.921   6.384   5.078  1.7591  0.8759  1.8287
 8275TIP3    H246317   6.022   6.400   4.967 -0.8651  0.0038 -0.7596
 8276TIP3   OH246318   0.946   4.095  14.843  0.1020  0.3614 -0.1741
 8276TIP3    H146319   1.035   4.117  14.869 -0.1692  0.7960  0.3978
 8276TIP3    H246320   0.954   4.009  14.802  1.0042  1.0450 -1.4838
 8277TIP3   OH246321   2.091   0.725  14.067 -0.3065  0.3031 -0.1658
 8277TIP3    H146322   2.096   0.693  13.977 -0.1747  0.2554 -0.1417
 8277TIP3    H246323   2.093   0.646  14.121 -1.8138  0.2558 -0.1672
 8278TIP3   OH246324   0.619   4.855  14.159 -0.6921 -0.3797  0.0798
 8278TIP3    H146325   0.578   4.918  14.101 -0.1687  0.5732  0.7289
 8278TIP3    H246326   0.673   4.801  14.101  1.2251  1.6882 -0.1277
 8279TIP3   OH246327   2.255   0.121   1.770  0.0892 -0.0173  0.1760
 8279TIP3    H146328   2.333   0.065   1.771  0.6740  0.7757 -0.3599
 8279TIP3    H246329   2.231   0.127   1.678  0.5099  1.2595  0.1401
 8280TIP3   OH246330   5.136   1.729   3.058 -0.5375 -0.2398 -0.2702
 8280TIP3    H146331   5.102   1.698   2.973 -2.8876 -1.1224  0.9538
 8280TIP3    H246332   5.137   1.824   3.050 -3.0810 -0.1963 -0.4579
 8281TIP3   OH246333   4.443   2.324   2.866  0.0289 -0.3009 -0.4498
 8281TIP3    H146334   4.495   2.373   2.803  0.7366 -0.2978  0.1264
 8281TIP3    H246335   4.386   2.268   2.813  1.2769 -0.9915 -1.0800
 8282TIP3   OH246336   0.784   5.787  16.610 -0.3795 -0.1225 -0.7410
 8282TIP3    H146337   0.706   5.820  16.566  0.2279  2.4121  0.0102
 8282TIP3    H246338   0.751   5.726  16.676 -1.6789  0.3316 -0.9571
 8283TIP3   OH246339   1.369   2.837   0.161 -0.0805 -0.4127 -0.1711
 8283TIP3    H146340   1.332   2.749   0.155 -2.6066  0.6064 -0.0448
 8283TIP3    H246341   1.457   2.828   0.124 -0.0468 -3.1216  0.4623
 8284TIP3   OH246342   5.106   1.392  15.607 -0.8305  0.4402 -0.2300
 8284TIP3    H146343   5.034   1.391  15.544  1.0856 -1.4329 -2.4926
 8284TIP3    H246344   5.106   1.304  15.645 -0.6170  0.8799  0.8142
 8285TIP3   OH246345   0.023   3.515   2.955 -0.1065 -0.1274 -0.1248
 8285TIP3    H146346   0.008   3.434   3.005  1.4821 -0.2203  0.2251
 8285TIP3    H246347  -0.064   3.541   2.925 -0.8533 -1.0630  1.1732
 8286TIP3   OH246348   6.742   4.117   4.847  0.0557  0.2441  0.2030
 8286TIP3    H146349   6.704   4.097   4.932  0.5817 -0.8392  0.1931
 8286TIP3    H246350   6.686   4.071   4.784 -0.4988  1.2708 -0.0620
 8287TIP3   OH246351   2.047   1.510  15.628  0.1375  0.4868 -0.0767
 8287TIP3    H146352   2.024   1.423  15.662  0.3620  0.8860  1.1176
 8287TIP3    H246353   2.046   1.499  15.533  2.0898 -1.3209  0.0844
 8288TIP3   OH246354   5.273   5.347  11.530 -0.1233 -0.4629  0.0205
 8288TIP3    H146355   5.344   5.342  11.467 -0.6813 -1.8660 -0.5167
 8288TIP3    H246356   5.201   5.297  11.490 -0.2677 -1.9395  2.0165
 8289TIP3   OH246357   3.590   3.632   0.635 -0.1504  0.0769  0.4442
 8289TIP3    H146358   3.664   3.688   0.656  1.1112  0.3438 -4.1728
 8289TIP3    H246359   3.614   3.546   0.668  1.0672  0.7215  1.2568
 8290TIP3   OH246360   5.011   6.775  12.426 -0.0800  0.3019  0.2530
 8290TIP3    H146361   4.933   6.720  12.439 -1.5783  2.6275  1.4409
 8290TIP3    H246362   5.007   6.800  12.334 -2.2276  2.5204  0.9039
 8291TIP3   OH246363   2.747   2.752  15.949  0.5285 -0.3035 -0.6681
 8291TIP3    H146364   2.706   2.671  15.980  1.0943 -0.7711 -1.1417
 8291TIP3    H246365   2.819   2.767  16.011  0.3091 -0.0585 -0.4703
 8292TIP3   OH246366   4.067   5.068  10.902 -0.3486 -0.4238  0.2709
 8292TIP3    H146367   4.091   4.995  10.844 -0.1057  0.6228 -0.9796
 8292TIP3    H246368   4.094   5.038  10.989  1.9439 -0.8946 -0.5404
 8293TIP3   OH246369   2.830   4.352   1.026 -0.0817 -0.7251 -0.1835
 8293TIP3    H146370   2.752   4.378   1.074 -0.3196 -0.5881 -0.6439
 8293TIP3    H246371   2.797   4.306   0.948  0.2906 -0.6708 -0.3752
 8294TIP3   OH246372   5.014   3.980  11.654 -0.5661  0.2645  0.1301
 8294TIP3    H146373   4.967   3.908  11.695 -0.2187 -0.0012  0.0634
 8294TIP3    H246374   5.023   4.045  11.723  0.1023 -0.2247  0.5108
 8295TIP3   OH246375   1.279   4.165   2.015  0.1585  0.0478 -0.0532
 8295TIP3    H146376   1.212   4.172   1.947 -0.0441  0.2693  0.1715
 8295TIP3    H246377   1.300   4.072   2.019  0.3993  0.0740 -0.6470
 8296TIP3   OH246378   5.435   2.567  15.351 -0.3497  0.5215  0.2975
 8296TIP3    H146379   5.458   2.476  15.368  1.5450  0.7961 -0.5836
 8296TIP3    H246380   5.454   2.613  15.433 -0.1098  0.3156  0.3570
 8297TIP3   OH246381   6.564   1.718   5.114  0.1735 -0.2826 -0.2080
 8297TIP3    H146382   6.597   1.738   5.027  1.4391  0.3730  0.4145
 8297TIP3    H246383   6.535   1.802   5.150 -1.3776 -0.7112 -0.3992
 8298TIP3   OH246384   4.170   1.042  13.804 -0.5377 -0.1405  0.4970
 8298TIP3    H146385   4.232   1.006  13.868  0.1091  0.2954  0.1224
 8298TIP3    H246386   4.226   1.075  13.733 -1.2629 -0.8485 -0.4138
 8299TIP3   OH246387   2.435   5.900   1.623  0.2302 -0.0964 -0.1521
 8299TIP3    H146388   2.530   5.888   1.622  0.1792 -0.4995 -0.7297
 8299TIP3    H246389   2.414   5.921   1.714  0.7295 -1.2555  0.2434
 8300TIP3   OH246390   5.930   4.263   2.433  0.1333  0.4885 -0.2770
 8300TIP3    H146391   5.946   4.209   2.511 -0.8934  1.9949  1.0093
 8300TIP3    H246392   5.915   4.200   2.363  4.1384 -0.9337  0.0272
 8301TIP3   OH246393   2.566   0.346  16.117  0.3493 -0.1785 -0.2246
 8301TIP3    H146394   2.606   0.375  16.035  0.0115 -0.0685 -0.3555
 8301TIP3    H246395   2.476   0.322  16.093 -0.4668  2.0321  0.5122
 8302TIP3   OH246396   0.226   0.038   2.102 -0.0987 -0.9075  0.2183
 8302TIP3    H146397   0.317   0.057   2.126 -0.9495  0.8430  2.2716
 8302TIP3    H246398   0.227  -0.052   2.070  2.5246 -0.5423 -0.8147
 8303TIP3   OH246399   5.315   2.906   2.188 -0.6064 -0.0949 -0.0955
 8303TIP3    H146400   5.395   2.929   2.140 -0.0573 -0.5560  0.5945
 8303TIP3    H246401   5.260   2.985   2.181  0.3255  0.5968  0.2958
 8304TIP3   OH246402   0.945   4.119  14.348 -0.6661 -0.2875 -0.0376
 8304TIP3    H146403   0.869   4.150  14.397 -0.8739 -1.5781  0.4861
 8304TIP3    H246404   1.010   4.099  14.415  0.2105  0.9452 -0.4919
 8305TIP3   OH246405   4.024   0.199  12.562 -0.3557 -0.5122  0.2320
 8305TIP3    H146406   4.008   0.157  12.478 -0.6181 -0.9316  0.4893
 8305TIP3    H246407   4.100   0.255  12.547 -1.2133  0.4405 -0.6343
 8306TIP3   OH246408   2.343   5.677  16.747 -0.9628  0.1691  0.2280
 8306TIP3    H146409   2.423   5.640  16.710  0.0461 -0.3693  2.8015
 8306TIP3    H246410   2.366   5.769  16.765 -0.9885  0.0744  0.7530
 8307TIP3   OH246411   3.333   2.358   3.463 -0.0311 -0.0078 -0.5222
 8307TIP3    H146412   3.401   2.291   3.456 -1.2396 -1.0207 -3.4281
 8307TIP3    H246413   3.372   2.435   3.422  0.3892  0.2458  0.3611
 8308TIP3   OH246414   2.377   4.554  12.604  0.0138  0.5032  0.6641
 8308TIP3    H146415   2.439   4.626  12.596  1.8424 -1.2153 -1.1145
 8308TIP3    H246416   2.309   4.574  12.540 -0.5159  1.6212  1.5588
 8309TIP3   OH246417   6.550   1.481  16.015 -0.8177 -0.4789 -0.7621
 8309TIP3    H146418   6.512   1.396  15.993  0.1045 -1.1419  0.1487
 8309TIP3    H246419   6.621   1.460  16.075  1.8223  0.6035 -3.3749
 8310TIP3   OH246420   3.704   3.159  17.059 -0.1241 -0.3469  0.0966
 8310TIP3    H146421   3.663   3.173  17.144 -1.6593  0.6084 -0.7712
 8310TIP3    H246422   3.789   3.121  17.079 -0.6342 -0.5202  2.0339
 8311TIP3   OH246423   0.680   4.402  16.747 -0.2460  0.1323 -0.3061
 8311TIP3    H146424   0.703   4.381  16.657  0.5830  1.1910 -0.3478
 8311TIP3    H246425   0.685   4.498  16.751 -0.8177  0.1254  0.7216
 8312TIP3   OH246426   6.314   2.386  13.791  0.5613 -0.0655  0.3131
 8312TIP3    H146427   6.359   2.464  13.822  0.4989 -0.9258  2.7037
 8312TIP3    H246428   6.355   2.366  13.707  3.0678  0.5011  1.3519
 8313TIP3   OH246429   0.387   1.178  16.087  0.3512 -0.0863 -0.1975
 8313TIP3    H146430   0.448   1.138  16.150 -1.2231 -0.4097  1.1457
 8313TIP3    H246431   0.429   1.262  16.065  0.7691  0.1846  1.5432
 8314TIP3   OH246432   1.704   4.321   4.337 -0.0104 -0.4379 -0.4211
 8314TIP3    H146433   1.737   4.347   4.251  2.0395  0.3429  0.5793
 8314TIP3    H246434   1.676   4.230   4.326 -2.3855  0.5072 -2.6241
 8315TIP3   OH246435   2.451   6.217   0.115  0.4910 -0.3796  0.6318
 8315TIP3    H146436   2.462   6.299   0.163 -1.4997  1.0373 -1.2038
 8315TIP3    H246437   2.385   6.168   0.164  0.4113 -0.1178  0.7829
 8316TIP3   OH246438   1.912   4.240   0.913 -0.7899 -0.2165  0.2810
 8316TIP3    H146439   1.904   4.163   0.968 -0.8242 -1.1947 -1.0703
 8316TIP3    H246440   1.986   4.289   0.950 -1.1524 -0.5670  1.5080
 8317TIP3   OH246441   0.758   2.917   3.951  0.2379  0.6185  0.1522
 8317TIP3    H146442   0.696   2.844   3.945 -0.6286  1.5698 -3.8889
 8317TIP3    H246443   0.703   2.995   3.951  1.2791  1.3549  1.2750
 8318TIP3   OH246444   1.808   4.837   5.617 -0.2835  0.2622  0.1407
 8318TIP3    H146445   1.716   4.862   5.626 -0.2199  0.2012  0.9210
 8318TIP3    H246446   1.805   4.748   5.581 -0.5141  0.8138 -1.2669
 8319TIP3   OH246447   6.388   5.702   3.342  0.4296 -0.8880 -0.0420
 8319TIP3    H146448   6.296   5.677   3.331  0.3291 -0.1674 -0.8536
 8319TIP3    H246449   6.385   5.792   3.373  0.9036  0.0642 -2.6670
 8320TIP3   OH246450   2.984   4.170   5.039 -0.6092 -0.2654 -0.2244
 8320TIP3    H146451   2.986   4.260   5.072 -2.0867 -0.4655  0.4426
 8320TIP3    H246452   3.061   4.128   5.078  1.3031  1.2808 -2.2416
 8321TIP3   OH246453   5.852   6.407   4.672 -0.0713 -0.3823 -0.0094
 8321TIP3    H146454   5.822   6.332   4.622  2.7482 -1.8626  0.4093
 8321TIP3    H246455   5.812   6.397   4.758  0.3439 -1.4590  0.0605
 8322TIP3   OH246456   1.136   3.967   4.708 -0.1375  0.3191  0.6935
 8322TIP3    H146457   1.065   3.970   4.772 -0.0349  0.5568  0.7998
 8322TIP3    H246458   1.183   4.049   4.722 -0.7889  0.9008 -0.4564
 8323TIP3   OH246459   4.309   1.733   1.449 -0.3254  0.2678 -0.1099
 8323TIP3    H146460   4.221   1.761   1.472 -0.3999 -0.3022  0.3223
 8323TIP3    H246461   4.305   1.714   1.355 -0.5677  0.5864 -0.1633
 8324TIP3   OH246462   4.154   1.917   2.419  0.4026 -0.6911  0.3782
 8324TIP3    H146463   4.189   2.007   2.420 -0.2847 -0.4237  1.4240
 8324TIP3    H246464   4.060   1.928   2.406  0.2602 -1.2359  0.9348
 8325TIP3   OH246465   2.867   1.428   5.023  0.5029 -0.3115  0.1229
 8325TIP3    H146466   2.947   1.479   5.014  0.3642 -0.0862  0.1519
 8325TIP3    H246467   2.862   1.377   4.942  0.1268  0.4669 -0.3474
 8326TIP3   OH246468   2.333   6.264   0.850  0.1150  0.8867  0.0398
 8326TIP3    H146469   2.346   6.182   0.898 -1.4133  0.3715 -0.4234
 8326TIP3    H246470   2.422   6.289   0.823  0.6906 -0.1729  0.8831
 8327TIP3   OH246471   6.733   1.835  13.603  0.2088  0.1335  0.3405
 8327TIP3    H146472   6.694   1.921  13.616  0.4803  0.3097 -0.0122
 8327TIP3    H246473   6.675   1.775  13.650  0.2884  0.5703  1.0059
 8328TIP3   OH246474   4.174   0.703   0.673  0.2519 -0.6856  0.2840
 8328TIP3    H146475   4.112   0.698   0.745  0.1070 -0.4557  0.1763
 8328TIP3    H246476   4.225   0.622   0.678  0.0186 -0.8203  0.4396
 8329TIP3   OH246477   2.078   4.093   1.483 -0.6632  0.0033  0.0106
 8329TIP3    H146478   2.034   4.018   1.524  3.0076 -1.7949  0.9473
 8329TIP3    H246479   2.128   4.132   1.555  2.5611 -0.6298 -1.8072
 8330TIP3   OH246480   4.359   5.129  16.584  0.0516 -0.5061  0.0342
 8330TIP3    H146481   4.266   5.106  16.591  0.1302 -1.0891 -0.7866
 8330TIP3    H246482   4.405   5.051  16.617  0.3225 -1.5309 -2.6974
 8331TIP3   OH246483   3.968   3.577   4.883  0.1871 -0.1584  0.1913
 8331TIP3    H146484   3.960   3.670   4.908 -1.6687 -0.3584  0.4587
 8331TIP3    H246485   3.891   3.561   4.828 -0.1435 -1.8511  1.1245
 8332TIP3   OH246486   1.305   5.327   4.551  0.2902 -0.3235 -0.4147
 8332TIP3    H146487   1.297   5.412   4.594  1.5176 -0.4175  0.0471
 8332TIP3    H246488   1.392   5.296   4.577 -0.1416 -1.7133 -0.5803
 8333TIP3   OH246489   3.904   1.199   3.285 -0.2082  0.2243  0.8387
 8333TIP3    H146490   3.990   1.167   3.315  1.2392 -0.1088 -3.2674
 8333TIP3    H246491   3.916   1.293   3.274 -1.3606  0.6759  3.1593
 8334TIP3   OH246492   2.884   3.968   1.057 -0.0295 -0.6960  0.1991
 8334TIP3    H146493   2.817   3.918   1.010 -1.0468 -0.0922  0.9951
 8334TIP3    H246494   2.929   4.017   0.988  0.5627 -2.1865 -0.5173
 8335TIP3   OH246495   2.057   3.911   6.063  0.2875 -0.4827 -0.3203
 8335TIP3    H146496   2.063   3.940   6.154 -0.9609  1.4226 -0.8249
 8335TIP3    H246497   2.006   3.830   6.067 -0.1985 -0.1379  0.6242
 8336TIP3   OH246498   0.362   3.580   4.505 -0.1664 -0.1649 -0.0805
 8336TIP3    H146499   0.447   3.624   4.502 -0.2848 -0.0032 -1.0000
 8336TIP3    H246500   0.370   3.519   4.578 -0.4413  2.3410  2.1389
 8337TIP3   OH246501   0.355   3.882  16.676  0.2845 -0.3623  0.5140
 8337TIP3    H146502   0.266   3.867  16.709  0.3450 -0.2286  0.7354
 8337TIP3    H246503   0.410   3.883  16.753  0.4628 -0.3184  0.3849
 8338TIP3   OH246504   1.952   0.117   0.801 -0.0600  0.3567 -0.8021
 8338TIP3    H146505   2.009   0.158   0.736  0.7535 -1.7587 -1.4544
 8338TIP3    H246506   1.904   0.050   0.752 -0.3668 -0.3977  0.5142
 8339TIP3   OH246507   1.598   2.081  12.626 -0.5532 -0.2243 -0.2550
 8339TIP3    H146508   1.550   1.998  12.630  0.4254 -0.8206 -0.5372
 8339TIP3    H246509   1.537   2.143  12.586 -1.2626 -0.8283 -0.1206
 8340TIP3   OH246510   4.292   0.222   0.201 -0.6033  0.0991  0.0719
 8340TIP3    H146511   4.293   0.193   0.110 -2.0351 -0.0864  0.1009
 8340TIP3    H246512   4.301   0.142   0.253  0.9309  0.2783  0.0882
 8341TIP3   OH246513   2.250   2.707  11.756 -0.0477  0.1359 -0.0208
 8341TIP3    H146514   2.244   2.669  11.844 -0.2829 -0.1052 -0.1403
 8341TIP3    H246515   2.292   2.792  11.770  0.5572 -0.1960  0.2427
 8342TIP3   OH246516   5.161   3.559  12.643  0.3369 -0.0066 -0.0141
 8342TIP3    H146517   5.159   3.588  12.553 -0.6972 -1.6569 -0.5484
 8342TIP3    H246518   5.082   3.507  12.654  1.1971 -1.0775  1.3943
 8343TIP3   OH246519   2.886   5.371   1.471 -0.3007  0.2478  0.6954
 8343TIP3    H146520   2.816   5.315   1.438 -1.5048  0.7522  2.3125
 8343TIP3    H246521   2.963   5.346   1.420 -1.1078 -1.9728  0.4921
 8344TIP3   OH246522   4.565   5.523   4.737 -0.1968 -0.5978  0.3050
 8344TIP3    H146523   4.567   5.445   4.794 -1.4871  0.8223  2.3528
 8344TIP3    H246524   4.475   5.555   4.743  0.0394  0.4437 -1.3961
 8345TIP3   OH246525   0.171   0.807  13.085  0.0914  0.3035 -0.5464
 8345TIP3    H146526   0.223   0.769  13.156  0.9737  0.0392 -1.3215
 8345TIP3    H246527   0.089   0.833  13.126 -0.3499 -2.0381  0.0772
 8346TIP3   OH246528   5.156   6.421   1.536 -0.0543 -0.8177  0.0844
 8346TIP3    H146529   5.220   6.354   1.510  0.6162  0.0164 -0.4445
 8346TIP3    H246530   5.189   6.502   1.497 -0.6164 -0.0903  1.0892
 8347TIP3   OH246531   4.926   2.321   6.279 -0.1259 -0.6256  0.4663
 8347TIP3    H146532   4.950   2.394   6.336 -0.5791 -0.3969  0.3622
 8347TIP3    H246533   4.885   2.363   6.203  0.7952 -0.8970 -0.1963
 8348TIP3   OH246534   6.808   3.470  14.879 -0.3164  0.0447 -0.1007
 8348TIP3    H146535   6.771   3.434  14.799  2.9208  1.4203 -2.3207
 8348TIP3    H246536   6.761   3.553  14.892 -0.7262 -0.0950 -0.6728
 8349TIP3   OH246537   4.583   6.800  16.803 -0.4563 -0.5322  0.3211
 8349TIP3    H146538   4.544   6.775  16.719  0.8710  0.1415 -0.5091
 8349TIP3    H246539   4.657   6.856  16.779 -0.6501  0.4500  1.9829
 8350TIP3   OH246540   4.879   0.240   1.309 -0.4146 -0.4370 -0.0092
 8350TIP3    H146541   4.899   0.333   1.313  0.1584 -0.5282 -0.7360
 8350TIP3    H246542   4.948   0.198   1.361  0.3615 -0.6138 -1.1866
 8351TIP3   OH246543   1.457   1.283   2.694 -0.2304 -0.4323 -0.0007
 8351TIP3    H146544   1.430   1.333   2.771 -3.1701 -1.2204 -0.4592
 8351TIP3    H246545   1.390   1.302   2.628  1.0036 -1.5290 -1.6088
 8352TIP3   OH246546   5.167   4.967   5.551  0.6905 -0.3492  0.4038
 8352TIP3    H146547   5.180   4.879   5.586 -2.2157 -0.6550  0.8358
 8352TIP3    H246548   5.176   4.957   5.457  2.0737 -0.7534  0.5629
 8353TIP3   OH246549   4.801   5.323  16.773  0.3239 -0.5277  0.3012
 8353TIP3    H146550   4.847   5.307  16.690 -0.1285 -0.5559  0.0503
 8353TIP3    H246551   4.866   5.367  16.828 -0.0489  1.4860 -0.8416
 8354TIP3   OH246552   2.444   2.455  14.003 -0.4026 -0.1391  0.2315
 8354TIP3    H146553   2.530   2.437  13.963 -0.2174  3.0162 -0.8967
 8354TIP3    H246554   2.460   2.528  14.063 -2.0386 -0.4400  1.0615
 8355TIP3   OH246555   4.880   0.399  12.453 -0.0485  0.1446  0.3799
 8355TIP3    H146556   4.871   0.446  12.370 -1.5943 -0.3227  0.2744
 8355TIP3    H246557   4.871   0.467  12.519  3.7664  0.9644  0.1989
 8356TIP3   OH246558   2.301   5.731  11.904 -0.2520  0.2547  0.0399
 8356TIP3    H146559   2.210   5.759  11.896  0.1227  1.9333  1.4312
 8356TIP3    H246560   2.347   5.807  11.940  1.7296 -0.5302 -0.7619
 8357TIP3   OH246561   5.456   6.162   0.330  0.5320  0.0672  0.2272
 8357TIP3    H146562   5.470   6.073   0.295  0.9680 -0.0443  0.6918
 8357TIP3    H246563   5.436   6.215   0.252 -0.8434 -0.6556  0.0531
 8358TIP3   OH246564   2.595   4.716   3.790  0.0555 -0.5074  0.2827
 8358TIP3    H146565   2.657   4.755   3.729  0.7850 -3.6263 -1.0802
 8358TIP3    H246566   2.511   4.756   3.768  0.9719  1.2895 -0.0856
 8359TIP3   OH246567   6.643   2.905   0.306  0.2439  0.3715  0.0177
 8359TIP3    H146568   6.557   2.942   0.291  0.8502  1.9251  0.2666
 8359TIP3    H246569   6.634   2.853   0.387 -0.3147  0.9811  0.3451
 8360TIP3   OH246570   4.467   0.868   4.486 -0.2171  0.1077 -0.0288
 8360TIP3    H146571   4.552   0.908   4.469 -0.0490 -0.3570 -0.3106
 8360TIP3    H246572   4.483   0.810   4.561 -0.4334  0.4924  0.3143
 8361TIP3   OH246573   6.605   6.692  12.862 -0.3120 -0.0988  0.2521
 8361TIP3    H146574   6.628   6.674  12.953 -0.9151 -0.3512  0.3628
 8361TIP3    H246575   6.675   6.652  12.811  0.2068  0.3393  0.6141
 8362TIP3   OH246576   2.028   1.414   5.772 -0.1921  0.1898 -0.1910
 8362TIP3    H146577   1.983   1.334   5.799  0.8413 -0.7520 -1.2167
 8362TIP3    H246578   2.072   1.445   5.851  0.4852 -0.9747 -0.1176
 8363TIP3   OH246579   4.274   3.676  14.594  0.4428 -0.3001  0.0769
 8363TIP3    H146580   4.238   3.588  14.606 -0.8861  0.1781 -0.2742
 8363TIP3    H246581   4.247   3.723  14.673 -0.8981  0.4447 -0.8067
 8364TIP3   OH246582   6.259   2.928   3.258  0.4422 -0.5141 -0.3420
 8364TIP3    H146583   6.266   2.834   3.271  0.1514 -0.7708 -1.9039
 8364TIP3    H246584   6.311   2.945   3.179  0.5047  0.6319 -0.0648
 8365TIP3   OH246585   0.648   6.785   3.693  0.3183 -0.4051  0.4253
 8365TIP3    H146586   0.564   6.785   3.647 -0.1324  0.5885  1.2518
 8365TIP3    H246587   0.669   6.692   3.704  0.4495 -0.6809 -1.7906
 8366TIP3   OH246588   4.046   0.867   2.247 -0.0673  0.5130 -0.0029
 8366TIP3    H146589   4.052   0.927   2.172  1.6150  0.3710 -0.0217
 8366TIP3    H246590   4.085   0.916   2.319 -1.0271  0.3788  0.6095
 8367TIP3   OH246591   1.482   0.179  10.853  0.3627 -0.0656 -0.4802
 8367TIP3    H146592   1.543   0.114  10.819 -1.4872 -1.8133 -0.5045
 8367TIP3    H246593   1.436   0.212  10.775 -0.6058 -0.7021 -0.1845
 8368TIP3   OH246594   3.317   2.244   3.720  0.1808 -0.5138 -0.0077
 8368TIP3    H146595   3.295   2.298   3.644  0.2849  1.6835  1.4520
 8368TIP3    H246596   3.310   2.304   3.794  0.9034 -2.3932  1.6292
 8369TIP3   OH246597   4.238   5.433   3.261 -0.1468 -0.1223 -0.3058
 8369TIP3    H146598   4.264   5.523   3.278  0.2946 -0.5179  1.1800
 8369TIP3    H246599   4.142   5.437   3.253 -0.0409  0.6271 -1.3236
 8370TIP3   OH246600   4.786   0.886  14.707  0.0748  0.5509  0.4079
 8370TIP3    H146601   4.697   0.866  14.679  1.0657 -0.1276 -2.3530
 8370TIP3    H246602   4.842   0.855  14.636  2.5425  0.8832  2.1211
 8371TIP3   OH246603   5.309   1.984   2.322  0.1503  0.0989 -0.1292
 8371TIP3    H146604   5.352   2.069   2.327 -0.0543  0.2187 -0.3956
 8371TIP3    H246605   5.365   1.926   2.374  0.7062  0.2231 -0.5845
 8372TIP3   OH246606   3.326   2.543  14.333  1.0357 -0.2305  0.4666
 8372TIP3    H146607   3.300   2.610  14.270  1.9462  0.6811  1.0641
 8372TIP3    H246608   3.349   2.467  14.279  1.5023  0.4368 -0.2726
 8373TIP3   OH246609   1.489   3.552  16.466 -0.0493  0.5861  0.3549
 8373TIP3    H146610   1.543   3.521  16.538  1.5344  2.8076  0.1928
 8373TIP3    H246611   1.522   3.506  16.389  0.1319  0.3082  0.6012
 8374TIP3   OH246612   2.008   4.022   1.192  0.3188 -0.5205  0.1180
 8374TIP3    H146613   2.008   4.026   1.287  0.6690  1.3237  0.0537
 8374TIP3    H246614   2.057   4.099   1.164 -0.2772 -0.7267 -1.5684
 8375TIP3   OH246615   5.296   6.131   3.654  0.3155  0.6030  0.1493
 8375TIP3    H146616   5.340   6.076   3.719  1.1621  0.5500 -0.4594
 8375TIP3    H246617   5.283   6.074   3.578 -0.6792  0.6636  0.2647
 8376TIP3   OH246618   0.015   6.126  11.971  0.1262  0.1467 -1.0289
 8376TIP3    H146619   0.012   6.100  12.063  1.1644 -0.6382 -1.2043
 8376TIP3    H246620   0.108   6.130  11.950 -0.1072  0.0768 -2.1175
 8377TIP3   OH246621   0.774   4.509   3.900 -0.3032 -0.5520 -0.0635
 8377TIP3    H146622   0.751   4.563   3.824 -0.3374 -1.4924 -0.7217
 8377TIP3    H246623   0.858   4.469   3.877  1.3121  1.6860  1.7237
 8378TIP3   OH246624   4.640   2.757  13.615  0.0502 -0.4013 -0.5291
 8378TIP3    H146625   4.558   2.769  13.662 -0.1587 -5.4210  0.6892
 8378TIP3    H246626   4.708   2.782  13.678 -0.4475  1.4156 -0.6968
 8379TIP3   OH246627   3.608   2.985  16.845 -0.0508  0.0543  0.6917
 8379TIP3    H146628   3.616   3.046  16.919 -0.6534  0.2788  0.5753
 8379TIP3    H246629   3.686   3.002  16.792  1.8525 -2.0803  2.7273
 8380TIP3   OH246630   6.417   0.812  16.734 -0.1316 -0.1695 -0.4351
 8380TIP3    H146631   6.439   0.853  16.818  0.5279  1.6044 -1.4606
 8380TIP3    H246632   6.477   0.853  16.671 -0.4229 -1.7030 -1.7260
 8381TIP3   OH246633   4.296   1.716   6.231  0.1521  0.6343  0.2893
 8381TIP3    H146634   4.268   1.685   6.316  0.5202  0.1290  0.2298
 8381TIP3    H246635   4.336   1.639   6.189  1.6520  1.3296  0.3969
 8382TIP3   OH246636   3.376   0.767   0.494  0.0129 -0.4732 -0.0049
 8382TIP3    H146637   3.372   0.672   0.492 -1.8907 -0.3787 -2.7584
 8382TIP3    H246638   3.302   0.793   0.548  0.4047 -0.5252  0.5657
 8383TIP3   OH246639   4.766   5.122   0.812 -0.3955 -0.6172  0.3174
 8383TIP3    H146640   4.835   5.117   0.746  0.5694 -1.2884  1.3507
 8383TIP3    H246641   4.685   5.134   0.762  0.4340 -0.1416 -0.9263
 8384TIP3   OH246642   3.977   3.027   0.381 -0.0365 -0.5666 -0.4917
 8384TIP3    H146643   4.009   2.946   0.423  0.6062 -0.7246 -1.2917
 8384TIP3    H246644   3.889   3.039   0.419  0.8343 -0.2695  1.5093
 8385TIP3   OH246645   5.462   2.697  12.856 -0.0792 -0.2432  0.1000
 8385TIP3    H146646   5.464   2.603  12.875  0.5281 -0.1929  0.3144
 8385TIP3    H246647   5.417   2.704  12.772 -0.5477 -0.6858  0.3130
 8386TIP3   OH246648   6.220   5.540  11.437  0.4014 -0.2452  0.3755
 8386TIP3    H146649   6.259   5.587  11.511 -0.4731  0.6962  0.2549
 8386TIP3    H246650   6.220   5.603  11.365 -2.3214  0.1671  0.6858
 8387TIP3   OH246651   0.028   1.580   5.219 -0.4400  0.1869 -0.2529
 8387TIP3    H146652   0.013   1.491   5.187 -1.1190 -0.2675  1.2414
 8387TIP3    H246653   0.012   1.636   5.144  1.0904 -1.0131 -1.5173
 8388TIP3   OH246654   3.306   5.146  16.381  0.4108  0.4453 -0.3768
 8388TIP3    H146655   3.369   5.194  16.434  2.3166  0.8211 -2.8703
 8388TIP3    H246656   3.261   5.088  16.442  3.5718 -0.2360  1.4094
 8389TIP3   OH246657   2.075   4.488   3.759 -0.0201 -0.2854  0.4244
 8389TIP3    H146658   1.982   4.473   3.771  0.1177 -0.1280  1.7669
 8389TIP3    H246659   2.081   4.568   3.707 -0.6665 -1.9374 -2.2995
 8390TIP3   OH246660   1.888   2.707   3.751 -0.4340  0.1599 -0.1539
 8390TIP3    H146661   1.875   2.689   3.844  0.9452 -1.6544 -0.2603
 8390TIP3    H246662   1.842   2.635   3.706 -1.0895  1.0196 -0.8749
 8391TIP3   OH246663   1.800   2.538  16.048  0.1927 -0.7714 -0.0907
 8391TIP3    H146664   1.804   2.515  16.141  1.6874  0.5885  0.2141
 8391TIP3    H246665   1.845   2.622  16.043 -0.3674 -0.5652 -1.9753
 8392TIP3   OH246666   1.300   6.211  11.782 -0.5080  0.1155 -0.5466
 8392TIP3    H146667   1.234   6.238  11.717 -1.3893  0.9756  0.6751
 8392TIP3    H246668   1.250   6.166  11.850 -0.2990  3.1429  1.7553
 8393TIP3   OH246669   2.012   3.052  16.655 -0.0569 -0.5215  0.0129
 8393TIP3    H146670   2.056   3.021  16.576 -1.4300  1.6018 -1.6841
 8393TIP3    H246671   2.082   3.078  16.714  1.0169  1.5125 -2.0860
 8394TIP3   OH246672   2.871   2.724  10.990 -0.1869  0.1794 -0.3611
 8394TIP3    H146673   2.887   2.812  11.024 -1.4043  0.7834 -1.2959
 8394TIP3    H246674   2.904   2.726  10.900 -2.3401  0.4258 -1.1764
 8395TIP3   OH246675   1.166   6.410   1.714  0.0146 -0.2462 -0.2510
 8395TIP3    H146676   1.095   6.345   1.720  1.0970 -1.4041  0.1259
 8395TIP3    H246677   1.207   6.392   1.630  1.3592 -1.1397  0.5865
 8396TIP3   OH246678   4.688   6.448   3.481 -0.1200 -0.7492  0.1408
 8396TIP3    H146679   4.779   6.436   3.453  0.1376 -2.0023  1.4570
 8396TIP3    H246680   4.694   6.477   3.572 -1.0308 -0.8625  0.2440
 8397TIP3   OH246681   5.103   0.634  15.441  0.0202 -0.5452 -0.4484
 8397TIP3    H146682   5.178   0.585  15.475  0.5628  0.3345 -0.3863
 8397TIP3    H246683   5.141   0.703  15.387 -0.7792 -0.8487 -1.4255
 8398TIP3   OH246684   4.080   5.585  11.205 -0.1747  0.0145 -0.3767
 8398TIP3    H146685   4.114   5.670  11.234  1.4618 -0.7471 -0.0119
 8398TIP3    H246686   4.073   5.593  11.110  0.3487  0.4234 -0.3806
 8399TIP3   OH246687   4.053   5.249   5.594 -0.6587  0.6115  0.3792
 8399TIP3    H146688   4.134   5.205   5.567 -1.0920  0.6419 -0.9876
 8399TIP3    H246689   3.988   5.222   5.529 -1.8548  0.2669  1.7026
 8400TIP3   OH246690   2.848   3.124  17.052 -0.3631 -0.0791  0.7277
 8400TIP3    H146691   2.777   3.061  17.061 -0.2699 -0.6183 -1.8308
 8400TIP3    H246692   2.813   3.206  17.086 -1.6470 -0.7249  0.9662
 8401TIP3   OH246693   3.143   5.226   3.417 -0.0615  0.5359  0.2838
 8401TIP3    H146694   3.115   5.308   3.458 -0.8929  0.3795  0.0326
 8401TIP3    H246695   3.064   5.173   3.411 -0.0765  0.7921 -2.1030
 8402TIP3   OH246696   2.197   1.890   1.810  0.0053 -0.1118  0.0797
 8402TIP3    H146697   2.114   1.932   1.789  1.6417  2.3625 -1.8152
 8402TIP3    H246698   2.248   1.959   1.853  2.4486 -0.3900 -2.2639
 8403TIP3   OH246699   6.407   5.830  10.777  0.1189 -0.7368  0.0838
 8403TIP3    H146700   6.336   5.798  10.722 -0.2276  0.7706 -0.3729
 8403TIP3    H246701   6.446   5.902  10.727  0.2620  0.1820  1.4767
 8404TIP3   OH246702   6.203   1.924  17.039 -0.0926  0.3760 -0.3484
 8404TIP3    H146703   6.147   1.967  17.103  0.7900  0.2018  0.5470
 8404TIP3    H246704   6.154   1.930  16.956 -1.6009 -0.1135  0.4926
 8405TIP3   OH246705   5.780   5.884  13.760  0.2930 -0.1847  0.0911
 8405TIP3    H146706   5.786   5.977  13.781 -0.1662  0.1706 -1.2621
 8405TIP3    H246707   5.685   5.868  13.753  0.3511 -0.8938  0.9331
 8406TIP3   OH246708   2.813   5.137  11.082  0.5465  0.2581 -0.2618
 8406TIP3    H146709   2.719   5.125  11.093  0.9071 -1.3901  1.1233
 8406TIP3    H246710   2.843   5.170  11.166  1.2681  0.4476 -0.5852
 8407TIP3   OH246711   2.278   3.650  16.755 -0.2111 -0.4511 -0.4651
 8407TIP3    H146712   2.358   3.598  16.739  0.0977 -0.3669  0.7318
 8407TIP3    H246713   2.229   3.599  16.818  0.0461  0.6677  0.6528
 8408TIP3   OH246714   5.008   5.673  15.330  0.1499 -0.8371 -0.8021
 8408TIP3    H146715   4.934   5.644  15.278 -1.2010 -0.0886  0.6694
 8408TIP3    H246716   4.978   5.754  15.372  1.4428 -1.0527  0.5914
 8409TIP3   OH246717   2.961   2.871  12.449 -0.5782  0.1117  0.1533
 8409TIP3    H146718   2.973   2.966  12.450 -0.9282  0.1589  0.1850
 8409TIP3    H246719   2.887   2.857  12.508 -0.3592 -0.2050  0.3530
 8410TIP3   OH246720   6.611   1.855   4.494 -0.2687 -0.1247  0.4417
 8410TIP3    H146721   6.624   1.902   4.412 -1.1770 -0.9605 -0.1855
 8410TIP3    H246722   6.582   1.922   4.555  2.4291  0.9151  0.6683
 8411TIP3   OH246723   3.056   4.327  16.442  0.7745 -0.6874  0.4494
 8411TIP3    H146724   3.094   4.378  16.370  0.2060 -2.2408 -0.9566
 8411TIP3    H246725   3.106   4.355  16.519  1.0064  1.4066 -0.4218
 8412TIP3   OH246726   4.022   6.717   3.559 -0.0644  0.0107 -0.6543
 8412TIP3    H146727   4.086   6.735   3.628 -0.4081  0.3707 -0.4265
 8412TIP3    H246728   3.979   6.636   3.588  0.5998 -0.4844 -1.0381
 8413TIP3   OH246729   4.439   4.533  13.509 -0.5907  0.7828 -0.0561
 8413TIP3    H146730   4.379   4.492  13.571 -0.0875  1.8700  1.1804
 8413TIP3    H246731   4.383   4.560  13.436 -1.1662 -0.6419 -0.1487
 8414TIP3   OH246732   3.541   5.826   2.506 -0.4177  0.1123 -0.1940
 8414TIP3    H146733   3.613   5.763   2.500  0.6222  1.1833  0.7836
 8414TIP3    H246734   3.584   5.911   2.520 -1.8481  0.8390 -0.0889
 8415TIP3   OH246735   5.029   1.929   1.644  0.3484 -0.1406  0.3095
 8415TIP3    H146736   4.992   2.017   1.637  0.4432 -0.0554  0.8347
 8415TIP3    H246737   4.955   1.870   1.636  0.4157 -0.0455 -1.0911
 8416TIP3   OH246738   3.439   5.805  16.119 -0.3550 -0.0213  0.5094
 8416TIP3    H146739   3.519   5.827  16.167  1.8403 -1.0373 -2.4955
 8416TIP3    H246740   3.425   5.879  16.060  0.4269 -1.3911 -1.4502
 8417TIP3   OH246741   5.382   5.868  11.796 -0.1791 -0.8049  0.3580
 8417TIP3    H146742   5.346   5.791  11.838 -0.7252 -0.3505  0.7246
 8417TIP3    H246743   5.326   5.940  11.824  1.0577 -0.0769  1.0038
 8418TIP3   OH246744   6.790   6.170  12.613  0.2898  0.2348  0.4190
 8418TIP3    H146745   6.855   6.124  12.559  0.2233 -0.6133  1.0418
 8418TIP3    H246746   6.796   6.127  12.698  0.2992  1.4763  1.0510
 8419TIP3   OH246747   1.112   1.364   2.162  0.0235  0.2535 -0.3528
 8419TIP3    H146748   1.202   1.353   2.193 -0.5876  1.0571  1.8144
 8419TIP3    H246749   1.089   1.454   2.187 -1.0566  0.3781 -1.7479
 8420TIP3   OH246750   2.479   4.619  14.012 -0.0655  0.2755 -0.0317
 8420TIP3    H146751   2.405   4.620  13.951 -0.3475  1.2650  0.3167
 8420TIP3    H246752   2.506   4.710  14.018  1.2946 -0.1095 -0.2775
 8421TIP3   OH246753   4.125   1.366   1.165  0.6941 -0.4250  0.0591
 8421TIP3    H146754   4.083   1.409   1.090  0.1128  0.6506  0.9915
 8421TIP3    H246755   4.202   1.421   1.183  0.2402 -0.0627  0.9223
 8422TIP3   OH246756   0.149   5.981   3.870  0.2211  0.2862 -0.0942
 8422TIP3    H146757   0.155   5.974   3.774 -0.9223 -0.5299 -0.1130
 8422TIP3    H246758   0.236   5.958   3.901  0.4200 -0.0733 -0.9089
 8423TIP3   OH246759   2.062   6.252   4.166  0.6033  0.1436  0.1395
 8423TIP3    H146760   2.057   6.324   4.103  0.3662  0.7984  0.9019
 8423TIP3    H246761   2.144   6.267   4.213  0.9413 -0.5284 -0.2277
 8424TIP3   OH246762   4.823   3.268   4.191  0.1538 -0.1073  0.5391
 8424TIP3    H146763   4.899   3.249   4.245 -0.1313  0.5533  1.1905
 8424TIP3    H246764   4.774   3.186   4.188  0.8162 -0.4987  0.2230
 8425TIP3   OH246765   3.596   6.561  15.161  0.6959 -0.2256 -0.4108
 8425TIP3    H146766   3.587   6.518  15.246  0.9139 -1.6230 -1.0703
 8425TIP3    H246767   3.508   6.587  15.138  0.7158  0.6803  0.5076
 8426TIP3   OH246768   6.158   5.020  13.759 -0.6136 -0.1508  0.5679
 8426TIP3    H146769   6.208   4.979  13.830  0.2982 -0.2284 -0.1084
 8426TIP3    H246770   6.098   5.080  13.803  1.0188  0.9643  1.3148
 8427TIP3   OH246771   6.606   0.339   4.199  0.3046 -0.0305  0.3868
 8427TIP3    H146772   6.575   0.258   4.160 -0.3944  0.8954 -1.0393
 8427TIP3    H246773   6.691   0.355   4.159 -0.2222  0.6967 -0.4788
 8428TIP3   OH246774   6.502   1.847   6.395 -0.2295 -0.3641 -0.5851
 8428TIP3    H146775   6.558   1.819   6.466  0.5237  0.1429 -0.9733
 8428TIP3    H246776   6.556   1.838   6.316 -1.1217 -1.1451 -1.1292
 8429TIP3   OH246777   0.043   0.162  13.015 -0.1351 -0.1840 -0.7678
 8429TIP3    H146778   0.103   0.232  12.988 -2.3384  1.0201 -2.7253
 8429TIP3    H246779  -0.010   0.200  13.085 -0.8410 -0.1243 -1.3292
 8430TIP3   OH246780   6.714   4.638  14.798  0.6425 -0.5000 -0.0423
 8430TIP3    H146781   6.649   4.613  14.863 -0.4843  2.8290  0.1722
 8430TIP3    H246782   6.671   4.621  14.714  0.5745 -0.9841  0.0902
 8431TIP3   OH246783   0.980   3.371  16.699  0.6171 -0.2963 -0.3528
 8431TIP3    H146784   0.989   3.459  16.662  0.3202  0.4295  1.2846
 8431TIP3    H246785   0.891   3.344  16.674  0.0558  0.5868  0.6425
 8432TIP3   OH246786   1.294   0.352  17.131 -0.8974 -0.2215  0.0135
 8432TIP3    H146787   1.257   0.287  17.191 -0.1067 -2.4934 -1.8899
 8432TIP3    H246788   1.389   0.339  17.137 -0.6702  1.5004  0.3926
 8433TIP3   OH246789   4.706   6.085  11.950 -0.6023 -0.2638  1.0760
 8433TIP3    H146790   4.701   6.086  12.046  2.4937 -1.7079  1.3353
 8433TIP3    H246791   4.796   6.057  11.932 -1.0049  0.4541 -2.2664
 8434TIP3   OH246792   6.008   4.802   0.310  0.1436  0.0401 -0.0713
 8434TIP3    H146793   6.027   4.712   0.336  0.6101  0.3963  0.8353
 8434TIP3    H246794   6.073   4.854   0.356  0.0017  0.8252 -0.7582
 8435TIP3   OH246795   1.044   1.474   3.005  0.3358 -0.3785 -0.3970
 8435TIP3    H146796   1.016   1.474   2.914  0.1145  0.1451 -0.3346
 8435TIP3    H246797   0.972   1.431   3.052 -0.9346  1.9498 -0.0877
 8436TIP3   OH246798   1.545   5.324   4.736  0.2951  0.4430 -0.5869
 8436TIP3    H146799   1.618   5.354   4.682  0.8070 -0.2763 -0.2952
 8436TIP3    H246800   1.576   5.333   4.826  0.4970 -1.0773 -0.5032
 8437TIP3   OH246801   2.311   3.115   0.206 -0.4673 -0.6771  0.0380
 8437TIP3    H146802   2.403   3.098   0.183 -0.4348 -1.1628  0.5229
 8437TIP3    H246803   2.262   3.046   0.162 -0.9493  1.4302 -2.9028
 8438TIP3   OH246804   5.677   6.340  16.687 -0.4117 -0.4839  0.0276
 8438TIP3    H146805   5.602   6.388  16.654 -0.1401 -0.1132 -0.0489
 8438TIP3    H246806   5.647   6.249  16.693 -1.1467 -0.2001  0.8386
 8439TIP3   OH246807   6.774   6.081   2.397 -0.3887  0.8028 -0.7088
 8439TIP3    H146808   6.834   6.027   2.448 -0.7684  0.2487 -0.8434
 8439TIP3    H246809   6.775   6.042   2.310 -0.2317  1.3578 -0.9528
 8440TIP3   OH246810   2.053   1.585   5.566 -0.2779  0.1103 -0.3998
 8440TIP3    H146811   2.129   1.567   5.510 -1.2149  0.2344 -1.7226
 8440TIP3    H246812   2.060   1.521   5.636 -0.2481 -1.4738 -1.8102
 8441TIP3   OH246813   5.069   3.640   4.635 -0.3419 -0.1791  0.0502
 8441TIP3    H146814   5.089   3.595   4.553 -2.3864 -0.9142 -0.0754
 8441TIP3    H246815   5.004   3.706   4.611 -1.1072 -0.5356  1.1148
 8442TIP3   OH246816   3.976   3.573  13.751 -0.3448  0.3791  0.1278
 8442TIP3    H146817   3.933   3.550  13.834 -0.2795 -0.2871 -0.0183
 8442TIP3    H246818   4.059   3.526  13.754 -0.0281  0.9384  0.0042
 8443TIP3   OH246819   6.287   4.510  16.189  0.9198  0.0283 -0.9615
 8443TIP3    H146820   6.303   4.418  16.209 -0.3941 -0.2159 -0.9712
 8443TIP3    H246821   6.235   4.542  16.263  1.6662  0.8486 -0.7951
 8444TIP3   OH246822   2.969   6.749  16.421  0.0910  0.7783  0.5967
 8444TIP3    H146823   2.940   6.841  16.414  0.7102  0.9085 -0.3420
 8444TIP3    H246824   3.048   6.753  16.475  0.3516  0.8502  0.2123
 8445TIP3   OH246825   4.612   0.432   5.706 -0.1386  0.2075  0.0713
 8445TIP3    H146826   4.602   0.478   5.623  1.2668  2.2304  0.9596
 8445TIP3    H246827   4.671   0.359   5.686  1.0061  1.2727 -0.5151
 8446TIP3   OH246828   4.200   0.772  14.228 -0.0035 -0.4513  0.2943
 8446TIP3    H146829   4.256   0.755  14.304  0.9996 -0.4682 -0.4462
 8446TIP3    H246830   4.206   0.867  14.215 -0.0938 -0.4643  0.1636
 8447TIP3   OH246831   4.178   5.801   1.434  0.3267 -0.6341 -0.2978
 8447TIP3    H146832   4.248   5.840   1.382  0.8127  0.9669  1.5298
 8447TIP3    H246833   4.098   5.840   1.398  0.5683 -0.4248 -0.6183
 8448TIP3   OH246834   2.983   3.820  15.928 -0.2699 -0.1732 -0.1795
 8448TIP3    H146835   3.063   3.769  15.938 -0.6742 -0.5588  1.2110
 8448TIP3    H246836   3.005   3.887  15.864  1.2300 -0.1303  0.3644
 8449TIP3   OH246837   6.203   0.646  15.061  0.0849  0.2864  0.4324
 8449TIP3    H146838   6.238   0.683  14.980 -0.0732  0.6568  0.5327
 8449TIP3    H246839   6.278   0.646  15.121 -0.0642  1.0298  0.6295
 8450TIP3   OH246840   4.642   1.065  13.348  0.0838  0.0916  0.0030
 8450TIP3    H146841   4.677   1.007  13.280 -1.7614 -1.1175  0.0543
 8450TIP3    H246842   4.550   1.039  13.357 -0.1733  1.4806  1.6682
 8451TIP3   OH246843   0.457   2.452  12.952 -0.3746 -0.0624  0.7812
 8451TIP3    H146844   0.416   2.366  12.963 -2.9858  0.8518 -1.4020
 8451TIP3    H246845   0.417   2.507  13.018 -0.1998  0.0009  0.8342
 8452TIP3   OH246846   6.638   5.206  14.011  0.1585 -0.4018  0.5881
 8452TIP3    H146847   6.623   5.231  14.102  0.0600 -3.8244  1.5987
 8452TIP3    H246848   6.725   5.238  13.990  1.2669 -1.9004  2.7905
 8453TIP3   OH246849   2.454   2.462   0.085  0.9468 -0.0064  0.4838
 8453TIP3    H146850   2.394   2.536   0.070  0.4509 -0.9138 -2.2714
 8453TIP3    H246851   2.401   2.397   0.132  0.2797 -0.0893 -0.3751
 8454TIP3   OH246852   1.624   2.549  11.820 -0.4556  0.5089 -0.6657
 8454TIP3    H146853   1.680   2.615  11.780 -0.2182  1.7536  1.6457
 8454TIP3    H246854   1.557   2.598  11.868 -1.5993 -0.9361 -0.7223
 8455TIP3   OH246855   0.469   1.152  14.629  0.3662  0.2750  0.2547
 8455TIP3    H146856   0.495   1.164  14.721  0.9828 -0.7068  0.2160
 8455TIP3    H246857   0.375   1.171  14.627  0.1381 -0.7273  1.2826
 8456TIP3   OH246858   6.522   0.728   5.685  0.0649  0.8339  0.1859
 8456TIP3    H146859   6.562   0.813   5.699 -2.1437  1.9069  0.1745
 8456TIP3    H246860   6.430   0.740   5.709 -0.4110 -1.3938 -0.3558
 8457TIP3   OH246861   2.198   5.760  10.442 -0.0876 -0.0312  0.0324
 8457TIP3    H146862   2.244   5.767  10.358 -0.6351  2.2959 -0.0826
 8457TIP3    H246863   2.219   5.671  10.472  2.5258  0.1143 -1.1589
 8458TIP3   OH246864   4.227   2.465  13.117  0.1634 -0.3998 -0.1059
 8458TIP3    H146865   4.240   2.474  13.023  0.2719 -0.3812 -0.0894
 8458TIP3    H246866   4.173   2.540  13.141  1.2433  0.3270  0.0699
 8459TIP3   OH246867   1.370   6.254  12.350  0.0319  0.2017  0.1842
 8459TIP3    H146868   1.449   6.303  12.373  0.8769 -0.4590 -1.2114
 8459TIP3    H246869   1.299   6.298  12.396  0.9076  2.1252 -0.2800
 8460TIP3   OH246870   0.728   0.919   5.420  0.3575  0.1814  0.4485
 8460TIP3    H146871   0.787   0.892   5.350 -1.3486 -2.4343 -0.0572
 8460TIP3    H246872   0.722   1.014   5.411  1.1259  0.0152 -2.1798
 8461TIP3   OH246873   3.334   1.332   0.358 -0.5785 -0.1203 -0.6340
 8461TIP3    H146874   3.364   1.370   0.441  0.0152  0.0719 -0.9303
 8461TIP3    H246875   3.263   1.390   0.330 -0.1678  0.3502 -0.7153
 8462TIP3   OH246876   2.119   5.356  13.318  0.1943 -0.2337  0.1732
 8462TIP3    H146877   2.112   5.444  13.281 -0.8754 -1.3705 -2.4536
 8462TIP3    H246878   2.040   5.345  13.370  0.0886  0.1579  0.0928
 8463TIP3   OH246879   0.642   3.984  16.012 -0.7585  0.1588  0.3814
 8463TIP3    H146880   0.607   4.028  16.090 -1.4222 -0.3929  0.4016
 8463TIP3    H246881   0.578   3.916  15.992  0.4685 -1.0663  0.5915
 8464TIP3   OH246882   5.056   5.034   4.086 -0.4852  0.6345 -0.0845
 8464TIP3    H146883   5.151   5.040   4.077 -0.5795  0.1319 -1.5426
 8464TIP3    H246884   5.037   4.941   4.076 -1.0118  0.5391  1.6061
 8465TIP3   OH246885   0.767   4.350   3.101  0.3519  0.3579  0.2843
 8465TIP3    H146886   0.696   4.343   3.165  0.1955  2.4280  0.3617
 8465TIP3    H246887   0.804   4.262   3.098 -2.1464 -0.7637  0.3063
 8466TIP3   OH246888   4.268   3.168   1.245 -0.6040  0.8333 -0.4214
 8466TIP3    H146889   4.214   3.230   1.294 -1.2576  1.3273 -1.7499
 8466TIP3    H246890   4.340   3.221   1.211 -0.7644  0.7186 -0.9389
 8467TIP3   OH246891   1.375   6.611  12.587 -0.2964 -0.6370  0.3497
 8467TIP3    H146892   1.287   6.572  12.583  0.6071 -2.5457 -2.2843
 8467TIP3    H246893   1.416   6.570  12.662 -0.8578 -1.4636  0.2101
 8468TIP3   OH246894   5.699   6.631   2.955  0.0568  0.0972  0.6544
 8468TIP3    H146895   5.770   6.647   3.017 -0.0792  1.5880  0.4553
 8468TIP3    H246896   5.620   6.627   3.009 -0.1271  1.9159  0.5432
 8469TIP3   OH246897   0.803   4.054  13.083  0.2625 -0.0343 -0.6085
 8469TIP3    H146898   0.780   3.999  13.157  2.9510  0.8490  0.9190
 8469TIP3    H246899   0.811   3.993  13.009  0.1317 -1.2363  0.3590
 8470TIP3   OH246900   5.407   5.552   1.910  0.2065  0.0885 -0.1729
 8470TIP3    H146901   5.462   5.475   1.896  2.4163  1.7672 -1.2243
 8470TIP3    H246902   5.415   5.570   2.004  0.6731 -0.2576 -0.1421
 8471TIP3   OH246903   3.574   2.032   4.772 -0.7720 -0.7621 -0.4320
 8471TIP3    H146904   3.592   2.043   4.679 -0.3825 -0.8023 -0.3638
 8471TIP3    H246905   3.491   1.984   4.775 -0.7042 -0.9022 -0.7566
 8472TIP3   OH246906   1.516   1.224  12.164  0.9738  0.3158 -0.3777
 8472TIP3    H146907   1.437   1.177  12.138  1.4685  0.6155 -2.4544
 8472TIP3    H246908   1.484   1.291  12.225 -0.1885 -0.4215 -0.1540
 8473TIP3   OH246909   4.181   3.341  13.930  0.2794  0.0334  0.0125
 8473TIP3    H146910   4.144   3.327  14.017  1.9616  0.6958  0.8649
 8473TIP3    H246911   4.229   3.261  13.911 -0.1598 -0.1457 -0.3561
 8474TIP3   OH246912   1.193   4.860  11.481 -1.0426  0.5238 -0.3300
 8474TIP3    H146913   1.133   4.916  11.530 -0.6886  0.0187  0.6996
 8474TIP3    H246914   1.274   4.910  11.474 -1.1811  0.7047 -0.6364
 8475TIP3   OH246915   1.262   2.753  13.649 -0.6386 -0.1595  0.4424
 8475TIP3    H146916   1.191   2.696  13.619 -0.1413 -1.0013  0.8230
 8475TIP3    H246917   1.315   2.768  13.570 -1.0150  0.1334  0.2468
 8476TIP3   OH246918   0.355   4.078  12.278  0.0467 -0.0974  0.1840
 8476TIP3    H146919   0.418   4.076  12.350 -1.6837  0.4899  1.7617
 8476TIP3    H246920   0.319   3.990  12.275  0.4507 -0.2512 -0.2875
 8477TIP3   OH246921   2.707   1.368   0.761 -0.7062 -0.6352  0.1650
 8477TIP3    H146922   2.718   1.274   0.752 -0.2276 -0.9802  3.5081
 8477TIP3    H246923   2.623   1.377   0.807 -1.6662  0.6767 -1.7962
 8478TIP3   OH246924   1.573   0.313   4.800 -0.2876 -0.3024  0.1390
 8478TIP3    H146925   1.648   0.373   4.798  1.0062 -1.9062 -0.9329
 8478TIP3    H246926   1.500   0.364   4.767 -0.0456  1.7782  2.6952
 8479TIP3   OH246927   2.725   0.353  14.334 -0.3284  0.0515  0.0205
 8479TIP3    H146928   2.799   0.293  14.334 -0.5809 -0.2619 -0.9374
 8479TIP3    H246929   2.747   0.418  14.401  0.6149 -0.2783  0.0363
 8480TIP3   OH246930   1.075   0.040   5.115 -0.4247 -0.4132 -0.5270
 8480TIP3    H146931   1.049   0.030   5.206  1.5801 -1.7593 -0.0770
 8480TIP3    H246932   1.035   0.123   5.088  0.0313  0.6512  1.9514
 8481TIP3   OH246933   1.782   2.937   1.020 -0.1126  0.4206  0.5664
 8481TIP3    H146934   1.859   2.993   1.007  1.0557 -0.6953  2.4797
 8481TIP3    H246935   1.708   2.998   1.020  1.0663  1.9088  1.9638
 8482TIP3   OH246936   0.730   2.003  14.676  0.2893 -0.1775 -0.4189
 8482TIP3    H146937   0.771   2.008  14.590  0.1475 -0.1051 -0.4834
 8482TIP3    H246938   0.666   1.933  14.668 -1.6835  1.6435 -1.2172
 8483TIP3   OH246939   5.975   1.147  13.034  0.4044  0.1479  0.4848
 8483TIP3    H146940   5.929   1.080  13.084  0.0420  0.8521  1.1124
 8483TIP3    H246941   5.967   1.226  13.088  1.5542  0.4957  0.1617
 8484TIP3   OH246942   6.104   6.670   4.494 -0.4058 -0.0453 -0.6475
 8484TIP3    H146943   6.041   6.675   4.423 -0.8395  0.4498 -0.2336
 8484TIP3    H246944   6.083   6.744   4.550  0.8786  0.4442 -0.7803
 8485TIP3   OH246945   1.054   3.156  12.031  0.2027  0.8287  0.4477
 8485TIP3    H146946   1.104   3.081  11.999 -0.1265  0.3710  0.9867
 8485TIP3    H246947   0.986   3.117  12.087  0.5331  1.5814  1.3919
 8486TIP3   OH246948   2.305   2.457   3.660 -0.6430  0.2705  0.0865
 8486TIP3    H146949   2.223   2.415   3.686 -0.1516 -1.7088 -1.4653
 8486TIP3    H246950   2.285   2.551   3.664 -3.3829 -0.1871 -1.5366
 8487TIP3   OH246951   5.879   2.659  13.327  0.3359  0.1743  0.1396
 8487TIP3    H146952   5.908   2.579  13.282  0.7825 -0.2518  1.1741
 8487TIP3    H246953   5.816   2.698  13.266 -1.0522 -1.7692  0.2632
 8488TIP3   OH246954   5.767   0.453  13.545 -0.3128 -0.0928 -0.1787
 8488TIP3    H146955   5.819   0.375  13.566  0.1011  0.1243 -0.3981
 8488TIP3    H246956   5.720   0.472  13.626  0.8439  0.4042  0.3846
 8489TIP3   OH246957   1.945   5.610  15.765 -0.0082  0.4757 -0.4084
 8489TIP3    H146958   1.945   5.681  15.829 -1.1468 -1.5160  1.8583
 8489TIP3    H246959   1.997   5.540  15.806  1.0775 -0.0473 -2.5852
 8490TIP3   OH246960   6.090   6.603  15.822  0.3950  0.2893  0.1492
 8490TIP3    H146961   6.183   6.615  15.800 -0.0195  0.3299 -1.6304
 8490TIP3    H246962   6.059   6.691  15.844  0.6555  0.3394  0.3266
 8491TIP3   OH246963   2.986   2.366  13.329  0.2958  0.4052  0.1774
 8491TIP3    H146964   2.899   2.348  13.294  0.2516  1.5485 -0.2960
 8491TIP3    H246965   3.040   2.382  13.252  0.9448 -0.3394  0.4650
 8492TIP3   OH246966   1.009   6.321  14.503  0.1349  0.8500  0.4993
 8492TIP3    H146967   1.066   6.248  14.523  1.1704  1.9333  1.5931
 8492TIP3    H246968   1.022   6.382  14.576 -0.3146  2.3511 -0.6536
 8493TIP3   OH246969   5.394   5.251   2.934  0.2416 -0.0516 -0.9507
 8493TIP3    H146970   5.402   5.156   2.936  0.4944 -0.0273 -0.7536
 8493TIP3    H246971   5.458   5.282   2.998 -0.2114  0.2289 -0.6368
 8494TIP3   OH246972   6.484   0.696   1.033  0.0119 -0.1437  0.1209
 8494TIP3    H146973   6.552   0.702   0.966  2.4124  1.2958  2.5698
 8494TIP3    H246974   6.527   0.654   1.107 -1.4790  1.6605  2.0712
 8495TIP3   OH246975   5.339   1.463  15.413 -0.1430  0.0975  0.2808
 8495TIP3    H146976   5.275   1.533  15.426 -0.1909  0.1041  0.0173
 8495TIP3    H246977   5.301   1.387  15.456 -0.3842  0.0707  0.0225
 8496TIP3   OH246978   1.619   2.535  11.338  0.7271 -0.2240 -0.6858
 8496TIP3    H146979   1.608   2.506  11.429  1.9371 -0.3991 -0.5869
 8496TIP3    H246980   1.555   2.606  11.327 -0.2173 -0.9568 -0.0481
 8497TIP3   OH246981   5.763   4.642   4.094  0.3846 -0.5703  0.1254
 8497TIP3    H146982   5.791   4.692   4.171  0.5890 -1.2412  0.4917
 8497TIP3    H246983   5.836   4.649   4.034  0.7167 -1.0323  0.4693
 8498TIP3   OH246984   4.275   0.772   5.967  0.0993  0.1598 -0.1523
 8498TIP3    H146985   4.288   0.832   5.894 -1.6889 -0.6444 -1.1506
 8498TIP3    H246986   4.282   0.828   6.045 -0.6511  1.5174 -1.0321
 8499TIP3   OH246987   5.282   1.129  11.791 -0.2793  0.3613 -0.4030
 8499TIP3    H146988   5.359   1.092  11.747  0.4614  1.2407  0.1207
 8499TIP3    H246989   5.283   1.089  11.878 -0.0308  0.8788 -0.1680
 8500TIP3   OH246990   1.986   2.318  14.756  0.3807 -0.1787  0.2240
 8500TIP3    H146991   2.003   2.345  14.666  0.5644  2.9156  1.0991
 8500TIP3    H246992   2.073   2.301  14.793  0.1838 -3.4761 -0.7099
 8501TIP3   OH246993   3.676   3.223   1.744 -0.5097 -0.1352  0.2172
 8501TIP3    H146994   3.638   3.213   1.657 -1.5432  1.2216  0.5102
 8501TIP3    H246995   3.608   3.193   1.804 -0.6869  1.1973  0.6842
 8502TIP3   OH246996   6.500   0.468   4.425  0.4794  0.0933 -0.0772
 8502TIP3    H146997   6.562   0.531   4.462 -0.0646  1.2328 -1.0703
 8502TIP3    H246998   6.550   0.423   4.357  0.7902 -0.3641  0.4507
 8503TIP3   OH246999   6.304   4.297  14.381  0.3617 -0.1454 -0.4739
 8503TIP3    H147000   6.273   4.206  14.374  1.6112 -0.6953  0.8871
 8503TIP3    H247001   6.350   4.300  14.465 -0.7698  2.0887  0.1169
 8504TIP3   OH247002   3.005   0.933   2.584  0.1502 -0.3555 -0.3118
 8504TIP3    H147003   3.073   0.867   2.575  0.4328  0.1132 -1.7392
 8504TIP3    H247004   2.923   0.885   2.567 -0.0133 -1.1584  2.4925
 8505TIP3   OH247005   2.729   4.102   1.754 -0.3965 -0.4153  0.0554
 8505TIP3    H147006   2.660   4.163   1.780  1.5540  0.7501  2.7942
 8505TIP3    H247007   2.748   4.124   1.663 -0.7669  2.0800  0.5542
 8506TIP3   OH247008   1.639   5.994   6.201 -0.4071 -0.1371 -0.6855
 8506TIP3    H147009   1.706   6.051   6.163  0.1238 -0.3616 -0.0958
 8506TIP3    H247010   1.687   5.940   6.264 -1.0144 -0.7966 -0.7789
 8507TIP3   OH247011   1.472   3.158  15.901  0.0160  0.9380  0.1156
 8507TIP3    H147012   1.423   3.121  15.828  1.5790  0.0278 -0.4992
 8507TIP3    H247013   1.479   3.252  15.881  0.7585  0.6281 -1.0975
 8508TIP3   OH247014   6.691   6.633  13.926 -0.3193  0.8206 -0.2014
 8508TIP3    H147015   6.642   6.589  13.995  0.5330 -1.3640 -0.9198
 8508TIP3    H247016   6.767   6.670  13.971  0.2730 -0.6597  0.0789
 8509TIP3   OH247017   3.065   6.210  11.071 -0.0332  0.7737  0.5411
 8509TIP3    H147018   3.088   6.152  11.144 -0.1506  1.6215  1.2687
 8509TIP3    H247019   3.132   6.194  11.005 -0.7735 -1.1030  0.2063
 8510TIP3   OH247020   2.511   2.649   5.797 -0.5757 -0.3821 -0.6064
 8510TIP3    H147021   2.558   2.683   5.873  2.8871 -3.2769 -1.3455
 8510TIP3    H247022   2.456   2.579   5.832 -0.1687 -0.6723 -0.5492
 8511TIP3   OH247023   5.426   6.153   1.241 -0.4740  0.6079  0.7000
 8511TIP3    H147024   5.428   6.161   1.146  0.2270 -1.0051  0.5696
 8511TIP3    H247025   5.441   6.060   1.258  0.1321  1.0027  2.4155
 8512TIP3   OH247026   4.697   1.904  13.823 -0.1660  0.1273  0.3015
 8512TIP3    H147027   4.693   1.999  13.831  0.1487 -0.0736  3.4149
 8512TIP3    H247028   4.660   1.886  13.736  0.3354  3.1012 -0.5898
 8513TIP3   OH247029   1.886   5.235  11.702  0.2078 -0.3843  0.1419
 8513TIP3    H147030   1.962   5.221  11.758 -1.0153  1.0297  2.2151
 8513TIP3    H247031   1.818   5.178  11.739 -0.2387 -0.3851 -0.6768
 8514TIP3   OH247032   2.730   4.077   3.528 -0.2518 -0.7178  0.7786
 8514TIP3    H147033   2.821   4.049   3.523  0.0318  0.2116  0.7531
 8514TIP3    H247034   2.715   4.097   3.620  0.2620  1.4201  0.4173
 8515TIP3   OH247035   0.757   0.041  11.102 -0.7389 -0.0625  0.4086
 8515TIP3    H147036   0.840   0.005  11.134 -0.4644 -0.0989 -0.3298
 8515TIP3    H247037   0.769   0.136  11.106 -0.7012 -0.0671  0.4051
 8516TIP3   OH247038   1.752   2.802   0.783  0.0146  0.0508  0.4368
 8516TIP3    H147039   1.741   2.798   0.878 -0.3099  1.9585  0.4988
 8516TIP3    H247040   1.734   2.894   0.761 -0.4546 -0.5074 -1.5348
 8517TIP3   OH247041   0.786   3.322   3.130  0.0470  0.0350 -0.7743
 8517TIP3    H147042   0.696   3.345   3.106 -0.0891 -0.2692 -0.5621
 8517TIP3    H247043   0.834   3.322   3.047  0.5979  3.4371 -0.5191
 8518TIP3   OH247044   1.117   0.313  16.402 -0.0414 -0.0786  0.6386
 8518TIP3    H147045   1.064   0.368  16.344 -0.8928  0.6837  2.1122
 8518TIP3    H247046   1.191   0.286  16.348 -1.0281  0.2708 -0.9346
 8519TIP3   OH247047   3.789   1.440  17.153  0.0624  0.3285 -0.2037
 8519TIP3    H147048   3.865   1.490  17.122 -0.8519  1.3987 -0.7470
 8519TIP3    H247049   3.750   1.404  17.073 -0.3808  0.3038  0.0262
 8520TIP3   OH247050   3.001   3.255  13.292  0.3447  0.1781  0.1661
 8520TIP3    H147051   3.030   3.257  13.383 -3.4336 -0.3297  1.4849
 8520TIP3    H247052   3.009   3.163  13.267 -0.1385  0.0290  0.5435
 8521TIP3   OH247053   1.975   5.679  17.069 -0.0471  0.3691 -0.3683
 8521TIP3    H147054   1.969   5.612  17.000 -0.0493 -0.2588  0.2431
 8521TIP3    H247055   2.001   5.759  17.022 -0.1360 -0.0318 -1.1105
 8522TIP3   OH247056   1.498   4.451  14.801 -0.4542  0.4219 -0.0627
 8522TIP3    H147057   1.475   4.442  14.893  1.3896  0.0195  0.3798
 8522TIP3    H247058   1.523   4.363  14.773  0.6437  0.8555 -0.4773
 8523TIP3   OH247059   1.965   3.230   1.351 -0.1651  0.4342  1.0816
 8523TIP3    H147060   1.954   3.241   1.256 -0.5686  0.4234  1.1259
 8523TIP3    H247061   2.039   3.285   1.373  0.2775  0.0115  0.6664
 8524TIP3   OH247062   0.944   2.399  16.456  0.3043  0.5738 -0.0557
 8524TIP3    H147063   0.960   2.344  16.379 -1.4393 -0.8258  0.5380
 8524TIP3    H247064   0.945   2.489  16.422  0.9392  0.0485 -1.4540
 8525TIP3   OH247065   4.517   4.541  11.759  1.2174  0.4156 -0.0683
 8525TIP3    H147066   4.466   4.620  11.778  0.8388 -0.0576  0.9016
 8525TIP3    H247067   4.452   4.473  11.744  1.5499  0.1148 -0.1638
 8526TIP3   OH247068   6.416   6.622   0.125  0.3818  0.0192  0.4356
 8526TIP3    H147069   6.492   6.678   0.111 -0.0912  0.8043  0.9652
 8526TIP3    H247070   6.357   6.643   0.053  0.8290 -0.8786 -0.1987
 8527TIP3   OH247071   4.444   1.937  15.054 -0.1455 -0.2192  0.0517
 8527TIP3    H147072   4.516   1.993  15.025 -1.1238  0.1936 -1.6388
 8527TIP3    H247073   4.423   1.969  15.142  0.7537  0.6226 -0.0296
 8528TIP3   OH247074   4.077   0.563  16.635 -0.1890  0.2462 -0.4153
 8528TIP3    H147075   4.014   0.634  16.625 -1.1022 -0.6554 -1.1036
 8528TIP3    H247076   4.139   0.575  16.564  0.9200  1.6309  0.7566
 8529TIP3   OH247077   3.463   0.813  14.867  0.7477 -0.4024  0.4417
 8529TIP3    H147078   3.479   0.905  14.845  0.1437 -0.1184  1.1406
 8529TIP3    H247079   3.550   0.776  14.884  0.9766  0.0833  0.3238
 8530TIP3   OH247080   6.695   0.646   5.036  0.4444  0.2826  1.0583
 8530TIP3    H147081   6.623   0.606   4.987  1.9465 -0.2014 -0.7794
 8530TIP3    H247082   6.652   0.711   5.092 -1.3332  0.6897 -0.7290
 8531TIP3   OH247083   4.344   3.062   4.041  0.2794 -0.4799  0.0472
 8531TIP3    H147084   4.360   2.972   4.068  1.4963 -0.5546 -0.8940
 8531TIP3    H247085   4.414   3.112   4.082 -1.0949  0.2398  1.5717
 8532TIP3   OH247086   4.443   1.592   4.868 -0.0017  0.5359 -0.0423
 8532TIP3    H147087   4.424   1.620   4.958  0.4020 -0.9140  0.5166
 8532TIP3    H247088   4.525   1.542   4.876 -0.5319 -0.5022 -1.0316
 8533TIP3   OH247089   2.384   1.468  13.356  0.1328 -0.0065 -0.5729
 8533TIP3    H147090   2.422   1.465  13.444  0.5924 -0.4285 -0.7769
 8533TIP3    H247091   2.460   1.480  13.298 -0.3831  2.6483 -0.7656
 8534TIP3   OH247092   4.247   1.058  13.025  0.0214  0.3447  0.0467
 8534TIP3    H147093   4.309   1.128  13.007  1.1588 -1.1632 -2.1149
 8534TIP3    H247094   4.246   1.005  12.946 -3.6518  0.0010  0.2297
 8535TIP3   OH247095   1.673   2.243  16.852 -0.3093 -0.3822 -0.5403
 8535TIP3    H147096   1.600   2.260  16.793 -0.5636 -0.8551 -0.3656
 8535TIP3    H247097   1.646   2.167  16.903  0.1003 -0.2618 -0.1340
 8536TIP3   OH247098   5.163   4.558  15.832  0.3857 -0.4927 -0.4774
 8536TIP3    H147099   5.161   4.468  15.864 -1.0883 -0.0277  0.7893
 8536TIP3    H247100   5.216   4.605  15.897  1.1366 -0.4247 -1.1246
 8537TIP3   OH247101   3.147   1.139  11.446  0.0678 -0.0331 -0.4137
 8537TIP3    H147102   3.191   1.215  11.486  0.7399 -1.8291  2.3738
 8537TIP3    H247103   3.066   1.175  11.409 -0.8388  1.6709  3.0256
 8538TIP3   OH247104   5.630   6.609  11.199  0.3804  0.2002 -0.4690
 8538TIP3    H147105   5.571   6.540  11.170 -0.7932  0.7863  0.4909
 8538TIP3    H247106   5.711   6.593  11.150  1.6005 -4.3444  2.6661
 8539TIP3   OH247107   5.573   5.602   1.115 -0.2416 -0.1620  0.0501
 8539TIP3    H147108   5.551   5.518   1.076  1.5257 -0.1010 -1.1023
 8539TIP3    H247109   5.532   5.666   1.056  0.6599 -0.1385 -0.5590
 8540TIP3   OH247110   6.303   5.715   0.601  0.3614  0.5372 -0.3429
 8540TIP3    H147111   6.227   5.658   0.588 -0.2659  1.5355 -1.0559
 8540TIP3    H247112   6.285   5.761   0.683 -1.0450  2.6967 -1.8185
 8541TIP3   OH247113   0.460   4.132   5.596 -0.3397  0.5443  0.4353
 8541TIP3    H147114   0.505   4.054   5.630  0.3582 -1.1181 -3.9617
 8541TIP3    H247115   0.367   4.107   5.595  0.1691 -1.5996 -3.9505
 8542TIP3   OH247116   4.832   5.515   3.055 -0.1040  0.5500 -0.2175
 8542TIP3    H147117   4.853   5.425   3.080  2.4520  1.6986  1.9910
 8542TIP3    H247118   4.898   5.538   2.991 -1.0809  0.7210 -1.1857
 8543TIP3   OH247119   0.830   4.112  13.564 -0.2230  0.5048 -0.0931
 8543TIP3    H147120   0.811   4.165  13.486 -0.3217  0.7989  0.1296
 8543TIP3    H247121   0.744   4.095  13.602 -0.0986  1.2428  0.5265
 8544TIP3   OH247122   6.634   5.145   0.462  0.5130  0.2122  0.3134
 8544TIP3    H147123   6.681   5.222   0.431  2.7729 -1.0667  0.4495
 8544TIP3    H247124   6.608   5.100   0.381  0.4859  0.3600  0.2389
 8545TIP3   OH247125   2.730   2.124   1.612 -0.4094 -0.9885 -0.0837
 8545TIP3    H147126   2.824   2.111   1.619 -0.4763 -1.1912  0.4863
 8545TIP3    H247127   2.698   2.114   1.702 -0.8392  0.1155 -0.1112
 8546TIP3   OH247128   1.204   2.301  16.547  0.1771 -0.3246 -0.9350
 8546TIP3    H147129   1.139   2.362  16.513  0.5645  1.2860  1.1294
 8546TIP3    H247130   1.199   2.225  16.489 -0.7588  1.3977 -3.1509
 8547TIP3   OH247131   6.575   6.023  11.181  0.1656 -0.4890 -0.3078
 8547TIP3    H147132   6.597   5.968  11.256 -1.9890 -2.2986 -0.9547
 8547TIP3    H247133   6.638   5.997  11.114  2.4476  1.5113  0.9757
 8548TIP3   OH247134   0.310   3.546   0.441  0.5686  0.2357  0.4333
 8548TIP3    H147135   0.288   3.606   0.512 -0.9192  1.7333 -1.2670
 8548TIP3    H247136   0.393   3.578   0.407 -0.0737  1.1944 -0.2735
 8549TIP3   OH247137   2.965   3.151   0.297  0.0486 -0.6965  0.2997
 8549TIP3    H147138   3.051   3.174   0.332 -0.1045  1.3501 -0.5701
 8549TIP3    H247139   2.964   3.190   0.209 -1.3061 -1.7710 -0.1853
 8550TIP3   OH247140   6.814   3.576   1.056 -0.3255  0.0451  0.2887
 8550TIP3    H147141   6.796   3.542   0.969  1.0286  0.2081 -0.0619
 8550TIP3    H247142   6.876   3.647   1.043 -0.8630  0.7230  1.3013
 8551TIP3   OH247143   6.564   5.601  11.337 -0.3276  0.0457  0.2083
 8551TIP3    H147144   6.600   5.689  11.337  0.1243 -0.1328  0.7268
 8551TIP3    H247145   6.530   5.588  11.249 -0.7988  0.8979  0.2597
 8552TIP3   OH247146   4.872   0.630  13.071 -0.1726 -0.4715  0.2688
 8552TIP3    H147147   4.869   0.646  13.166 -1.5858  2.2566 -0.2008
 8552TIP3    H247148   4.787   0.592  13.050  0.3047 -1.4960  0.1178
 8553TIP3   OH247149   2.053   5.719   1.559 -0.2687 -0.3335  0.3192
 8553TIP3    H147150   1.982   5.782   1.545  1.8434  1.6893 -1.4941
 8553TIP3    H247151   2.044   5.656   1.488 -1.9707 -1.7752  1.7534
 8554TIP3   OH247152   5.049   0.148   6.035  0.0519  0.5972  0.0376
 8554TIP3    H147153   5.032   0.230   5.990  0.2239  0.6959  0.1529
 8554TIP3    H247154   5.122   0.109   5.987 -1.3725 -0.4734 -1.3072
 8555TIP3   OH247155   3.252   0.661  12.898 -0.6004 -0.1475  0.1867
 8555TIP3    H147156   3.329   0.606  12.883 -1.1279 -0.9257  0.2872
 8555TIP3    H247157   3.286   0.739  12.942  0.3508  0.2643 -1.2670
 8556TIP3   OH247158   5.654   4.085   6.869  0.0021  0.0488  0.1661
 8556TIP3    H147159   5.572   4.089   6.918 -0.4733 -1.6515 -0.4468
 8556TIP3    H247160   5.697   4.006   6.902 -0.1844 -0.9629 -1.9241
 8557TIP3   OH247161   1.593   3.016   5.395  0.0456  0.3536  0.8255
 8557TIP3    H147162   1.627   2.927   5.402 -1.0609 -0.1348  0.2868
 8557TIP3    H247163   1.499   3.007   5.411 -0.3294  1.1894 -0.7456
 8558TIP3   OH247164   2.049   1.963  14.840  0.1232 -0.4659 -0.2009
 8558TIP3    H147165   2.024   1.884  14.793  0.6172 -0.3681 -0.6317
 8558TIP3    H247166   1.966   2.008  14.858  0.0505  0.4808 -2.7042
 8559TIP3   OH247167   5.059   2.973   1.668  0.7150 -0.3382 -0.1746
 8559TIP3    H147168   4.968   2.948   1.687  1.1112 -1.1266  0.7614
 8559TIP3    H247169   5.058   3.000   1.577 -0.4804 -0.2708 -0.1500
 8560TIP3   OH247170   1.240   0.194   1.007 -0.3734  0.0428  0.0389
 8560TIP3    H147171   1.278   0.107   0.996  3.5776  1.5243  0.8285
 8560TIP3    H247172   1.245   0.235   0.921 -0.1835  0.2374  0.1405
 8561TIP3   OH247173   0.294   6.025   3.231 -0.0939  0.0127 -0.0905
 8561TIP3    H147174   0.306   5.938   3.191  4.0946  0.4802 -0.1033
 8561TIP3    H247175   0.296   6.085   3.157  0.0965  0.3463  0.1873
 8562TIP3   OH247176   6.366   0.449   2.132  0.1355 -0.5199  0.1255
 8562TIP3    H147177   6.426   0.481   2.199  2.9856 -1.4350 -1.8847
 8562TIP3    H247178   6.300   0.401   2.180  2.0420 -1.0486  2.3044
 8563TIP3   OH247179   6.551   1.831   1.524  0.7935  0.4726  0.0167
 8563TIP3    H147180   6.560   1.914   1.477  0.0312 -0.3031 -1.5491
 8563TIP3    H247181   6.634   1.786   1.510  1.0094  0.7392  0.4249
 8564TIP3   OH247182   5.275   2.657  14.106 -0.2322  0.1701 -0.1923
 8564TIP3    H147183   5.222   2.610  14.171 -0.9615 -1.8015 -2.1722
 8564TIP3    H247184   5.248   2.749  14.115 -0.2926 -0.0498  2.2988
 8565TIP3   OH247185   4.956   0.261  14.274 -0.3835  0.2938 -0.1182
 8565TIP3    H147186   4.989   0.237  14.187 -0.2217  0.6857 -0.1644
 8565TIP3    H247187   4.944   0.356  14.270  0.7462  0.4695  0.6755
 8566TIP3   OH247188   1.959   3.796   2.776 -0.2453  0.0709 -0.9577
 8566TIP3    H147189   1.956   3.700   2.769  0.5723 -0.1095  0.8697
 8566TIP3    H247190   1.866   3.822   2.779 -0.5703 -1.1446  3.6009
 8567TIP3   OH247191   0.782   0.576   1.773 -0.0111  0.0371 -0.2426
 8567TIP3    H147192   0.763   0.663   1.737 -2.3480  0.1428  1.1478
 8567TIP3    H247193   0.729   0.517   1.720 -1.7176 -0.0451  1.4829
 8568TIP3   OH247194   0.989   3.180   6.184  0.0531 -0.3502 -0.0464
 8568TIP3    H147195   0.931   3.256   6.187  0.2146 -0.2632  0.8262
 8568TIP3    H247196   1.045   3.188   6.261  1.7383 -0.0432 -1.2835
 8569TIP3   OH247197   5.592   2.668  14.652 -0.0612  0.0211 -0.1804
 8569TIP3    H147198   5.566   2.726  14.580 -2.1013 -1.9810 -1.1111
 8569TIP3    H247199   5.511   2.629  14.682  0.9477 -0.2480  2.3117
 8570TIP3   OH247200   0.357   6.601  12.409 -0.2421 -0.2581 -0.3963
 8570TIP3    H147201   0.316   6.516  12.397 -1.1477 -0.0631  1.2845
 8570TIP3    H247202   0.447   6.581  12.436 -0.8105 -0.6943  1.2224
 8571TIP3   OH247203   6.797   6.199  17.232  0.1367  0.3543 -0.1351
 8571TIP3    H147204   6.867   6.163  17.286  0.2140  0.2498 -0.3043
 8571TIP3    H247205   6.802   6.150  17.150  1.0663  1.6318 -0.8630
 8572TIP3   OH247206   0.306   1.461  16.182 -0.3885  0.1484 -0.2984
 8572TIP3    H147207   0.396   1.487  16.202 -0.9663  2.6120 -0.7885
 8572TIP3    H247208   0.309   1.429  16.092 -0.2172  1.3340 -0.7149
 8573TIP3   OH247209   2.640   4.703   6.625  0.1272  0.0472  0.0898
 8573TIP3    H147210   2.652   4.770   6.692 -1.0139  0.3048  0.0448
 8573TIP3    H247211   2.728   4.690   6.589  0.2933  1.8644 -0.2288
 8574TIP3   OH247212   5.814   2.988  15.358  0.1989 -0.2236  0.9043
 8574TIP3    H147213   5.786   3.073  15.393  0.3640 -0.2726  1.1512
 8574TIP3    H247214   5.874   2.953  15.424  0.6939 -0.2072  0.4685
 8575TIP3   OH247215   1.520   6.449  12.784  0.4204  0.1731 -0.1663
 8575TIP3    H147216   1.473   6.371  12.813  1.4777 -0.0519  0.9833
 8575TIP3    H247217   1.533   6.500  12.864  1.4508  0.5967 -0.6013
 8576TIP3   OH247218   3.463   6.170   5.973 -0.4236  0.5558  0.1589
 8576TIP3    H147219   3.525   6.226   6.019 -0.3198 -0.0727  0.7925
 8576TIP3    H247220   3.451   6.212   5.888  2.8232 -0.6145 -0.9711
 8577TIP3   OH247221   3.363   6.380   1.977  0.2750 -0.1566 -0.4261
 8577TIP3    H147222   3.325   6.294   1.998  0.3757  0.1831  1.2716
 8577TIP3    H247223   3.436   6.388   2.038  1.9132  0.0023 -2.4013
 8578TIP3   OH247224   5.105   1.408  12.143 -0.0863  0.0076 -0.2547
 8578TIP3    H147225   5.161   1.410  12.221 -0.9204 -1.5951  0.3882
 8578TIP3    H247226   5.159   1.367  12.076  0.0259 -0.1798 -0.0489
 8579TIP3   OH247227   2.850   4.630   4.265 -0.1535  0.1156 -0.1277
 8579TIP3    H147228   2.765   4.635   4.309  0.1798 -0.0204  0.5321
 8579TIP3    H247229   2.857   4.539   4.238 -0.4547  0.2479 -0.6649
 8580TIP3   OH247230   6.678   6.083  15.871 -0.2000  0.0004  0.0056
 8580TIP3    H147231   6.622   6.138  15.925 -1.4720 -1.5519  0.2801
 8580TIP3    H247232   6.678   6.127  15.786 -1.4969  0.2495  0.1172
 8581TIP3   OH247233   1.080   3.089  16.378  0.6771 -0.2500 -0.3147
 8581TIP3    H147234   1.060   3.041  16.458  1.4044  1.8963  1.1993
 8581TIP3    H247235   0.996   3.094  16.331  0.0571 -0.7454  0.7340
 8582TIP3   OH247236   0.804   3.349  12.829  0.0607 -0.1543  0.2926
 8582TIP3    H147237   0.797   3.420  12.764 -0.8009  0.0075  0.5612
 8582TIP3    H247238   0.742   3.283  12.798  0.7392 -0.7260  0.1369
 8583TIP3   OH247239   5.150   4.195   2.348  0.3107  0.3208 -0.6431
 8583TIP3    H147240   5.118   4.275   2.306 -1.0345  0.8594  1.3303
 8583TIP3    H247241   5.173   4.223   2.437  1.1300 -1.2155 -0.3681
 8584TIP3   OH247242   4.108   4.340  12.918  0.0901  0.4567 -0.3657
 8584TIP3    H147243   4.018   4.366  12.940  0.3690  1.0878  0.0147
 8584TIP3    H247244   4.153   4.422  12.899  1.4559  0.4601  2.5846
 8585TIP3   OH247245   5.053   0.844   1.898 -0.2074  0.0863 -0.4479
 8585TIP3    H147246   5.106   0.877   1.971 -0.7051 -2.4742  1.1368
 8585TIP3    H247247   4.966   0.883   1.913 -0.5068 -1.0109  0.7773
 8586TIP3   OH247248   1.696   4.524  14.244  0.2966  0.1895  0.5023
 8586TIP3    H147249   1.619   4.556  14.291  0.5636  1.2558  0.2118
 8586TIP3    H247250   1.702   4.580  14.167  0.5503 -0.7982 -0.2065
 8587TIP3   OH247251   6.211   5.805   6.156  0.2148 -0.5854  0.1811
 8587TIP3    H147252   6.219   5.768   6.068  0.9038 -0.8731  0.3660
 8587TIP3    H247253   6.169   5.890   6.142 -0.9321 -1.2175 -0.2890
 8588TIP3   OH247254   6.323   5.032   1.711 -0.2692  0.2682  0.2168
 8588TIP3    H147255   6.389   4.973   1.748 -0.0511  0.2934 -0.1319
 8588TIP3    H247256   6.372   5.094   1.659 -0.7173 -1.0735 -1.8906
 8589TIP3   OH247257   3.359   3.252   0.052 -0.2102 -0.0095 -0.6847
 8589TIP3    H147258   3.372   3.222   0.142 -1.6922  1.1950 -0.0431
 8589TIP3    H247259   3.393   3.180  -0.002  1.4837 -0.3778  0.8207
 8590TIP3   OH247260   2.947   2.924   4.614  0.4428  0.3393  0.2645
 8590TIP3    H147261   2.873   2.980   4.639 -0.8630 -1.7095  1.1965
 8590TIP3    H247262   2.919   2.885   4.531  0.3232 -0.7041  0.7928
 8591TIP3   OH247263   0.981   0.929   1.263 -0.0583 -0.2146  0.7589
 8591TIP3    H147264   1.044   0.868   1.224 -0.0935  1.0155 -1.2970
 8591TIP3    H247265   0.896   0.884   1.256  0.5893 -2.1193  4.0614
 8592TIP3   OH247266   1.102   5.232  14.638  0.7243 -0.2043 -0.3370
 8592TIP3    H147267   1.086   5.324  14.661 -0.7825 -0.3234 -0.8358
 8592TIP3    H247268   1.068   5.183  14.713  0.1433 -0.4103 -0.7369
 8593TIP3   OH247269   2.840   2.794  13.245 -0.1438  0.7906 -0.2312
 8593TIP3    H147270   2.870   2.730  13.310 -0.3589  0.8582 -0.0663
 8593TIP3    H247271   2.823   2.741  13.166  1.8709  0.9573 -0.8158
 8594TIP3   OH247272   2.807   2.530  11.253 -0.4625  0.2021 -0.5217
 8594TIP3    H147273   2.787   2.438  11.241  0.8455 -0.2142  0.3725
 8594TIP3    H247274   2.841   2.537  11.342  1.3476  1.1797 -1.2355
 8595TIP3   OH247275   6.194   0.283  12.298 -0.7604  0.0271  0.1099
 8595TIP3    H147276   6.234   0.197  12.310 -1.3413 -0.1882  0.5491
 8595TIP3    H247277   6.249   0.326  12.233 -0.0550 -0.4120  0.4085
 8596TIP3   OH247278   0.290   6.333  12.379 -0.3176  0.0628 -1.2212
 8596TIP3    H147279   0.276   6.263  12.316 -1.9152 -0.9493  0.2323
 8596TIP3    H247280   0.212   6.333  12.434  1.6159  0.0021  1.6526
 8597TIP3   OH247281   2.244   5.072  14.477  0.3915 -0.0889 -0.5910
 8597TIP3    H147282   2.245   5.157  14.434 -1.2442  0.3048  0.0960
 8597TIP3    H247283   2.226   5.092  14.569 -0.9735 -1.2318 -0.5869
 8598TIP3   OH247284   0.271   1.903  15.309 -0.6938  0.2673  0.4819
 8598TIP3    H147285   0.278   1.945  15.224 -0.7218  1.3034  0.9869
 8598TIP3    H247286   0.177   1.895  15.325 -0.7867  3.7377  2.1733
 8599TIP3   OH247287   2.685   6.527  14.755  0.4500 -0.2003 -0.0647
 8599TIP3    H147288   2.642   6.444  14.735 -0.1985 -0.2946  1.6994
 8599TIP3    H247289   2.766   6.503  14.799  0.5805  0.0909 -0.1414
 8600TIP3   OH247290   3.425   0.181   0.480  0.5523  0.4952  0.3902
 8600TIP3    H147291   3.439   0.090   0.453  0.8035  0.7207 -0.2472
 8600TIP3    H247292   3.476   0.232   0.417 -1.9681  1.2512 -1.1233
 8601TIP3   OH247293   0.583   3.652   0.305 -0.3025  0.1312 -0.3072
 8601TIP3    H147294   0.625   3.579   0.261  1.2713 -0.3955  1.9756
 8601TIP3    H247295   0.651   3.719   0.311 -0.9596  0.7897 -0.0290
 8602TIP3   OH247296   4.275   2.316   3.913  0.1351 -0.0481  0.6063
 8602TIP3    H147297   4.315   2.324   4.000  0.6814  0.2721  0.3316
 8602TIP3    H247298   4.328   2.249   3.869 -0.6391 -0.7963  0.7931
 8603TIP3   OH247299   1.964   4.644  11.425 -0.4456  0.3473  0.0150
 8603TIP3    H147300   1.973   4.724  11.476 -1.8954  0.4738  0.0807
 8603TIP3    H247301   2.038   4.589  11.453 -1.3538  0.2999  2.4256
 8604TIP3   OH247302   0.845   4.145   4.282  0.3956 -0.2620 -0.1894
 8604TIP3    H147303   0.910   4.110   4.343  1.2731 -0.0505 -0.9787
 8604TIP3    H247304   0.898   4.189   4.215 -0.6163  0.8850 -0.2407
 8605TIP3   OH247305   0.998   0.092   4.572 -0.4665  0.1672  0.8005
 8605TIP3    H147306   1.090   0.086   4.545 -0.6078  0.1583  0.3154
 8605TIP3    H247307   0.989   0.028   4.642 -0.2368 -0.2221  0.4734
 8606TIP3   OH247308   6.550   3.701   4.192 -0.1271 -0.1144  0.0676
 8606TIP3    H147309   6.507   3.617   4.177  1.7323 -1.0264 -0.2251
 8606TIP3    H247310   6.622   3.681   4.251 -1.2212  1.7367  2.1247
 8607TIP3   OH247311   6.085   0.049   1.117 -0.2113  0.4577 -0.5828
 8607TIP3    H147312   6.038   0.122   1.076  1.2401  0.9777 -1.3683
 8607TIP3    H247313   6.178   0.074   1.111  0.2458 -1.0589 -0.0794
 8608TIP3   OH247314   3.546   3.223  12.208 -0.0244 -0.0258 -0.4995
 8608TIP3    H147315   3.478   3.276  12.167 -1.0497 -0.8313  0.1466
 8608TIP3    H247316   3.565   3.268  12.291  0.2122  0.1757 -0.6618
 8609TIP3   OH247317   1.041   0.980  12.258 -0.5096  0.6942  0.2652
 8609TIP3    H147318   1.040   1.015  12.347 -1.2138 -1.0177  0.9575
 8609TIP3    H247319   0.950   0.986  12.228 -0.9887 -2.0967  1.0554
 8610TIP3   OH247320   3.154   2.584   3.142  0.0355  0.2831  0.4663
 8610TIP3    H147321   3.157   2.631   3.225  0.4325 -0.3181  0.7985
 8610TIP3    H247322   3.143   2.652   3.075  1.6418  0.9332  0.8525
 8611TIP3   OH247323   1.821   1.908  12.594 -0.1990  0.5051  0.0086
 8611TIP3    H147324   1.873   1.909  12.675 -1.9346  1.4171  1.1542
 8611TIP3    H247325   1.751   1.971  12.610 -0.6122  0.6581 -2.2069
 8612TIP3   OH247326   2.232   3.849  13.277  0.2768 -0.5164 -0.0118
 8612TIP3    H147327   2.173   3.857  13.202 -0.0350 -0.4565  0.2404
 8612TIP3    H247328   2.215   3.927  13.330  0.0004 -0.9043  0.4754
 8613TIP3   OH247329   3.736   5.162   0.300 -0.1885  0.0261 -0.5878
 8613TIP3    H147330   3.797   5.090   0.283 -0.6963 -1.3182  2.7990
 8613TIP3    H247331   3.792   5.236   0.324  0.2341  0.0089 -1.4940
 8614TIP3   OH247332   5.848   3.707  12.127 -0.0297 -0.5450  0.0570
 8614TIP3    H147333   5.819   3.626  12.086 -1.3455  0.0969 -0.2948
 8614TIP3    H247334   5.867   3.766  12.053 -2.3686  0.6014  0.3441
 8615TIP3   OH247335   2.646   5.801   0.771 -0.4194 -0.0644 -0.2102
 8615TIP3    H147336   2.611   5.776   0.857  0.6983 -0.3532  0.1671
 8615TIP3    H247337   2.663   5.718   0.727 -0.8278  0.0829 -0.6599
 8616TIP3   OH247338   1.150   3.534   5.483  0.0137  0.2388  0.0649
 8616TIP3    H147339   1.180   3.598   5.419  0.6449 -0.1349 -0.0134
 8616TIP3    H247340   1.152   3.580   5.567 -0.6804  0.6856 -0.1618
 8617TIP3   OH247341   3.414   5.762  17.185  0.1688 -0.5783 -0.1579
 8617TIP3    H147342   3.497   5.810  17.193 -0.4562  0.4216  0.4754
 8617TIP3    H247343   3.439   5.670  17.183  1.3117 -0.2706 -0.2165
 8618TIP3   OH247344   1.092   1.024   2.367 -0.0471  0.1728 -0.0613
 8618TIP3    H147345   1.041   0.969   2.308  0.2734 -0.4134  0.2109
 8618TIP3    H247346   1.046   1.018   2.451  0.4642 -0.3462  0.1823
 8619TIP3   OH247347   5.032   3.878   1.353  0.4118 -0.5198  0.1592
 8619TIP3    H147348   5.019   3.946   1.287  2.7772 -0.0496  0.1434
 8619TIP3    H247349   4.945   3.865   1.392 -0.1475  2.1704 -0.1253
 8620TIP3   OH247350   3.717   0.027   3.192  0.4921  0.4157  0.3798
 8620TIP3    H147351   3.683   0.044   3.280 -0.4858 -1.0476  0.2934
 8620TIP3    H247352   3.673   0.092   3.136 -0.3095  0.1177  0.6661
 8621TIP3   OH247353   4.386   1.345   2.676  0.1434 -0.0342  0.2434
 8621TIP3    H147354   4.384   1.261   2.630 -2.7044 -0.9990  1.9861
 8621TIP3    H247355   4.459   1.337   2.738  0.6926 -0.7219 -0.4926
 8622TIP3   OH247356   4.469   1.504  16.024 -0.0643  0.1636  0.6249
 8622TIP3    H147357   4.419   1.586  16.022  0.5544  0.5432  0.4887
 8622TIP3    H247358   4.435   1.453  15.951 -0.2452  0.4292  0.5225
 8623TIP3   OH247359   1.724   2.845   3.946 -0.6231  0.0028  0.2286
 8623TIP3    H147360   1.687   2.782   4.007  0.5933 -1.1963 -0.2564
 8623TIP3    H247361   1.666   2.841   3.870 -1.4697  0.6527  0.8298
 8624TIP3   OH247362   2.479   0.357  12.244  0.3036 -0.1962  0.3078
 8624TIP3    H147363   2.432   0.372  12.162  1.5126  0.2786 -0.3160
 8624TIP3    H247364   2.411   0.332  12.307 -0.5254 -1.3517 -1.0373
 8625TIP3   OH247365   0.760   4.719   3.651  0.0942  0.1481  0.6300
 8625TIP3    H147366   0.854   4.698   3.644  0.2000  0.8603 -0.1368
 8625TIP3    H247367   0.756   4.814   3.638 -0.9415 -0.1516 -1.3795
 8626TIP3   OH247368   6.230   0.580   4.432  0.2657 -0.2578  0.2437
 8626TIP3    H147369   6.318   0.549   4.408  0.2564 -0.0159 -0.0955
 8626TIP3    H247370   6.231   0.673   4.413  0.8138  0.2788  2.7630
 8627TIP3   OH247371   5.911   1.668   5.239 -0.3297  0.4258  0.9100
 8627TIP3    H147372   5.916   1.673   5.144  0.4652 -0.0698  0.9271
 8627TIP3    H247373   5.817   1.659   5.257 -0.4186 -0.3055  0.1303
 8628TIP3   OH247374   5.302   0.189  15.379 -0.0581 -0.0638  1.0544
 8628TIP3    H147375   5.243   0.116  15.361 -0.5240  0.5275  0.1730
 8628TIP3    H247376   5.390   0.152  15.366 -0.2705 -0.6352  1.2406
 8629TIP3   OH247377   0.867   4.785   2.745  0.1913  0.1298 -0.8085
 8629TIP3    H147378   0.856   4.880   2.745 -1.1323 -0.0179 -1.2724
 8629TIP3    H247379   0.867   4.760   2.653 -0.7897 -0.4623 -0.6599
 8630TIP3   OH247380   5.953   2.524   0.377 -0.1110  0.0098 -0.5510
 8630TIP3    H147381   5.979   2.531   0.469 -0.2865 -0.1850 -0.4864
 8630TIP3    H247382   5.904   2.605   0.360 -1.1960 -0.5432 -0.1070
 8631TIP3   OH247383   2.033   0.527   3.975  0.4832 -0.5609  0.3659
 8631TIP3    H147384   1.959   0.521   4.035 -0.6168 -0.3246 -0.9440
 8631TIP3    H247385   2.110   0.519   4.031 -0.5295 -0.8845  1.7369
 8632TIP3   OH247386   4.304   2.157   0.965  0.4750 -0.2594  0.2113
 8632TIP3    H147387   4.334   2.246   0.947  0.9988 -0.4442  0.1730
 8632TIP3    H247388   4.223   2.169   1.014 -0.1591  0.2358 -0.9475
 8633TIP3   OH247389   4.961   0.428   0.186  0.0239  0.2287  0.1410
 8633TIP3    H147390   5.005   0.445   0.103 -0.3802  0.2899 -0.0639
 8633TIP3    H247391   5.000   0.490   0.248  1.2455 -0.7050  0.3123
 8634TIP3   OH247392   2.487   4.349  13.567  0.5002 -0.0628  0.0011
 8634TIP3    H147393   2.550   4.315  13.503  1.8632 -0.0280  1.2843
 8634TIP3    H247394   2.409   4.295  13.555  1.0660 -0.6560 -1.0647
 8635TIP3   OH247395   1.603   1.893   3.024 -0.3369 -0.1729 -0.2987
 8635TIP3    H147396   1.635   1.802   3.024 -0.4543 -0.2930 -4.1445
 8635TIP3    H247397   1.515   1.888   2.987 -1.1420  1.3165  1.3372
 8636TIP3   OH247398   2.384   6.059  15.877  0.0541  0.4753  0.2063
 8636TIP3    H147399   2.439   6.105  15.941 -0.5374 -0.2059  1.2108
 8636TIP3    H247400   2.363   5.976  15.918  0.0252 -0.1559 -1.0672
 8637TIP3   OH247401   5.558   5.892  13.468  0.1458  0.3263  0.1817
 8637TIP3    H147402   5.608   5.961  13.425 -0.5125 -0.4077 -1.8188
 8637TIP3    H247403   5.605   5.812  13.446 -1.2419 -0.2479 -0.7528
 8638TIP3   OH247404   2.193   5.157  13.011  0.1789  1.0129  0.2392
 8638TIP3    H147405   2.267   5.191  13.062  1.3340  0.1186 -0.8239
 8638TIP3    H247406   2.222   5.072  12.979 -1.3718  0.5770 -0.0780
 8639TIP3   OH247407   3.602   4.803   5.881  0.0456 -0.3389 -0.1541
 8639TIP3    H147408   3.568   4.816   5.969  1.0614 -4.3648  0.9432
 8639TIP3    H247409   3.559   4.723   5.850 -0.0516  0.8275 -3.2100
 8640TIP3   OH247410   1.871   1.077   3.988 -0.1037  0.1189 -0.2936
 8640TIP3    H147411   1.850   0.986   4.007 -1.5574  0.0442 -2.0727
 8640TIP3    H247412   1.965   1.078   3.975  0.0867 -0.8981  0.8720
 8641TIP3   OH247413   4.167   3.595  15.996  0.4176 -0.0172  0.2978
 8641TIP3    H147414   4.107   3.591  15.922  1.8940 -1.2117 -0.8687
 8641TIP3    H247415   4.124   3.544  16.064 -0.1218 -0.4348 -0.3505
 8642TIP3   OH247416   1.646   0.841   5.132 -0.4218  0.4944 -0.2919
 8642TIP3    H147417   1.659   0.885   5.216  0.0167  2.5965 -1.4174
 8642TIP3    H247418   1.607   0.909   5.076 -4.2563 -1.9270 -0.7219
 8643TIP3   OH247419   5.024   5.591   5.340 -0.0340 -0.0079 -0.5832
 8643TIP3    H147420   5.094   5.574   5.403 -1.1214 -3.2202 -0.1040
 8643TIP3    H247421   5.049   5.539   5.263 -2.2427 -1.9252 -0.0709
 8644TIP3   OH247422   0.070   6.728   3.375 -0.0619 -0.3528  0.4512
 8644TIP3    H147423   0.106   6.812   3.405 -0.2353 -0.0302 -0.2354
 8644TIP3    H247424   0.005   6.705   3.442  1.2461 -0.8320  1.5856
 8645TIP3   OH247425   2.332   5.282  13.496 -0.1485  0.6090  0.0798
 8645TIP3    H147426   2.316   5.323  13.581 -0.5786 -1.1507  0.8652
 8645TIP3    H247427   2.261   5.314  13.440 -0.3187  1.1361  0.5901
 8646TIP3   OH247428   2.764   4.616  12.937  0.0384  0.1138  0.8465
 8646TIP3    H147429   2.797   4.682  12.997  0.8997  0.3577  0.1204
 8646TIP3    H247430   2.713   4.557  12.992 -0.0001  0.8801  1.6478
 8647TIP3   OH247431   1.773   3.918   5.024 -0.5863 -0.4675  0.4776
 8647TIP3    H147432   1.816   3.849   4.974  0.2195 -0.3951  1.0732
 8647TIP3    H247433   1.818   3.999   4.997 -0.5217 -0.3594  0.9024
 8648TIP3   OH247434   1.974   0.908  14.707  0.2189 -0.5659  0.3482
 8648TIP3    H147435   2.039   0.943  14.769  0.0860 -1.1727  0.8372
 8648TIP3    H247436   2.007   0.820  14.686  0.3916 -0.2650 -0.6366
 8649TIP3   OH247437   0.141   0.824  14.074  0.4416 -0.0571 -0.1358
 8649TIP3    H147438   0.060   0.773  14.066 -3.7080  6.0860 -0.7907
 8649TIP3    H247439   0.176   0.827  13.985  0.8206 -1.6832 -0.0728
 8650TIP3   OH247440   3.512   0.061   1.059 -0.1650 -0.2201  0.8191
 8650TIP3    H147441   3.426   0.066   1.019 -1.1269  2.4209  3.0664
 8650TIP3    H247442   3.568   0.117   1.005  0.2124 -2.0032 -0.6899
 8651TIP3   OH247443   0.188   5.880  12.113 -0.3180  0.5240  0.3317
 8651TIP3    H147444   0.241   5.910  12.187 -2.2174  0.9178  1.5621
 8651TIP3    H247445   0.241   5.900  12.036  1.5438  0.4229  1.5537
 8652TIP3   OH247446   4.874   6.238  15.041  0.2339  0.2976 -1.1567
 8652TIP3    H147447   4.829   6.319  15.021 -0.4754  0.1269 -0.2925
 8652TIP3    H247448   4.814   6.169  15.012 -0.7038  0.0544  1.3291
 8653TIP3   OH247449   2.814   1.073  10.583  0.2875 -0.8582 -0.0222
 8653TIP3    H147450   2.744   1.009  10.567  0.3064 -0.6845 -0.8095
 8653TIP3    H247451   2.889   1.038  10.535 -0.2531  0.7515 -2.1045
 8654TIP3   OH247452   5.818   4.448   3.593 -0.2673  0.6491  0.2956
 8654TIP3    H147453   5.812   4.354   3.573 -0.5060  0.3111  1.8551
 8654TIP3    H247454   5.764   4.490   3.528 -2.2511 -0.5334  1.1313
 8655TIP3   OH247455   6.080   5.193   4.764 -0.0538 -0.0234  0.0612
 8655TIP3    H147456   6.146   5.246   4.809  0.5874 -0.3596 -0.4804
 8655TIP3    H247457   6.020   5.167   4.833 -1.4496  2.9718  0.0687
 8656TIP3   OH247458   2.624   1.531  11.855  0.0392 -0.2366 -0.0700
 8656TIP3    H147459   2.585   1.523  11.768 -1.4418  2.2281  0.3151
 8656TIP3    H247460   2.666   1.618  11.855  1.6135 -0.9644  1.0786
 8657TIP3   OH247461   1.796   1.361  12.988  1.2852  0.2567 -0.4315
 8657TIP3    H147462   1.836   1.448  12.991 -0.2684  1.0094 -0.9186
 8657TIP3    H247463   1.784   1.343  12.895 -0.4860  0.5194 -0.2684
 8658TIP3   OH247464   3.921   4.913   1.343 -0.4951  0.5412 -0.5392
 8658TIP3    H147465   3.853   4.976   1.364  0.9623  1.5340  1.3109
 8658TIP3    H247466   3.918   4.905   1.248 -3.5755  0.0933 -0.4624
 8659TIP3   OH247467   0.039   5.974   2.987  0.7064  0.8461  0.3295
 8659TIP3    H147468  -0.019   6.014   2.921 -0.7816 -0.0023  1.1050
 8659TIP3    H247469   0.087   6.048   3.024  0.0002  1.5810 -0.1964
 8660TIP3   OH247470   0.445   3.843  15.684  0.1875 -0.0132  0.5611
 8660TIP3    H147471   0.537   3.858  15.662 -0.0335  0.3952 -0.0876
 8660TIP3    H247472   0.398   3.860  15.603 -0.8349  3.2775  1.7563
 8661TIP3   OH247473   0.039   3.862  11.039 -0.3109  0.2774 -0.3721
 8661TIP3    H147474   0.012   3.771  11.051 -0.4165  0.3453 -0.1046
 8661TIP3    H247475   0.118   3.856  10.984  0.6434 -0.0727  1.0104
 8662TIP3   OH247476   4.193   0.968   5.523 -0.4316  0.4192 -0.1642
 8662TIP3    H147477   4.124   1.028   5.549 -1.0048 -1.2050  2.2514
 8662TIP3    H247478   4.147   0.899   5.474 -0.6146 -0.8743  1.7963
 8663TIP3   OH247479   2.450   4.514  11.422 -0.2577 -0.3042  0.5404
 8663TIP3    H147480   2.477   4.603  11.444 -0.9545  0.3935 -1.3346
 8663TIP3    H247481   2.531   4.469  11.398 -0.2569  0.7213 -1.4830
 8664TIP3   OH247482   1.770   6.245  16.396 -0.0638 -0.2187  0.1268
 8664TIP3    H147483   1.759   6.339  16.380 -0.5265 -0.3360 -0.2631
 8664TIP3    H247484   1.724   6.203  16.323  0.3449 -0.7457  0.1721
 8665TIP3   OH247485   2.968   4.230  10.635  0.1620  0.3054 -0.5242
 8665TIP3    H147486   3.051   4.267  10.604  0.4925  1.2168  1.3748
 8665TIP3    H247487   2.931   4.298  10.691 -0.9650 -0.8457  0.1521
 8666TIP3   OH247488   2.646   3.021  11.159  0.2835  0.2782  0.0864
 8666TIP3    H147489   2.607   2.938  11.186 -1.9554  1.4419  0.5693
 8666TIP3    H247490   2.659   3.011  11.065  2.7658 -1.6704  0.5813
 8667TIP3   OH247491   1.695   6.797   1.869 -1.3454 -0.0488 -0.5112
 8667TIP3    H147492   1.678   6.742   1.792 -1.0252 -1.3530  0.3383
 8667TIP3    H247493   1.615   6.788   1.922 -0.5511 -1.2215  0.5245
 8668TIP3   OH247494   0.164   5.478   4.039 -0.3406  0.1459 -0.4362
 8668TIP3    H147495   0.075   5.450   4.016 -0.5843  0.5838 -0.0384
 8668TIP3    H247496   0.211   5.480   3.955 -0.2858 -1.5534 -0.4593
 8669TIP3   OH247497   2.191   0.908  10.961  0.4478 -0.2358 -0.4447
 8669TIP3    H147498   2.194   0.848  10.887  0.6792  1.2592 -1.6611
 8669TIP3    H247499   2.123   0.871  11.019 -0.2774 -0.9864 -1.7591
 8670TIP3   OH247500   5.953   1.558  16.387 -0.7268 -0.3544  0.1866
 8670TIP3    H147501   5.891   1.488  16.368 -1.0074  0.1593 -0.8810
 8670TIP3    H247502   5.898   1.634  16.406 -0.4385  0.1683 -1.0182
 8671TIP3   OH247503   6.078   3.185  12.257 -0.0989  0.3525 -1.3176
 8671TIP3    H147504   6.115   3.256  12.206 -0.5940  1.3491 -0.3301
 8671TIP3    H247505   6.088   3.108  12.202 -0.8668  1.4312 -3.0279
 8672TIP3   OH247506   3.124   4.244  12.981  0.0516 -0.0520  0.0843
 8672TIP3    H147507   3.058   4.248  12.912 -0.0182 -0.1014  0.1490
 8672TIP3    H247508   3.077   4.211  13.058  0.4801 -1.5590 -0.2792
 8673TIP3   OH247509   2.960   1.428   0.912  0.4172 -0.1409  0.1183
 8673TIP3    H147510   2.875   1.405   0.948  0.2747  0.9208  0.4904
 8673TIP3    H247511   2.940   1.471   0.828  0.6156 -0.4192 -0.0718
 8674TIP3   OH247512   0.731   5.769  13.861  0.0900 -0.5041  0.2907
 8674TIP3    H147513   0.652   5.803  13.818  0.5424  1.2974  0.8462
 8674TIP3    H247514   0.730   5.809  13.948 -0.3146 -3.3967  1.6544
 8675TIP3   OH247515   1.870   4.990  12.856 -0.0424  0.0247  0.0030
 8675TIP3    H147516   1.812   5.026  12.922 -1.6393  0.4633 -1.6069
 8675TIP3    H247517   1.879   5.059  12.791  0.4663 -0.8546 -0.8880
 8676TIP3   OH247518   1.946   3.282   3.706  0.0131 -0.8695  0.2452
 8676TIP3    H147519   1.934   3.190   3.728  3.3988 -1.1415  1.3007
 8676TIP3    H247520   2.009   3.281   3.634  0.4413  0.6431  0.5852
 8677TIP3   OH247521   2.432   5.794   2.888  0.3036  0.2403 -0.2315
 8677TIP3    H147522   2.380   5.859   2.936  1.9945  0.7544  0.9497
 8677TIP3    H247523   2.462   5.733   2.956  0.5168 -0.5430 -1.0269
 8678TIP3   OH247524   1.236   1.075   5.208 -0.3195 -0.5447  0.2610
 8678TIP3    H147525   1.173   1.147   5.207  1.4922  1.0698 -0.3613
 8678TIP3    H247526   1.295   1.095   5.281 -0.4858 -2.0193  0.8243
 8679TIP3   OH247527   2.926   3.204  15.098  0.6556 -0.3421 -0.3009
 8679TIP3    H147528   2.867   3.178  15.169 -0.8431 -0.1752 -1.4579
 8679TIP3    H247529   2.903   3.146  15.025  0.7370  0.8806 -1.3104
 8680TIP3   OH247530   2.488   3.016   2.159 -0.5876  0.1892  0.1999
 8680TIP3    H147531   2.403   3.036   2.198 -0.6060  0.4002  0.0513
 8680TIP3    H247532   2.547   3.083   2.193 -0.3250 -0.3659  0.8505
 8681TIP3   OH247533   3.394   4.840   5.186 -0.1692 -0.6335  0.2243
 8681TIP3    H147534   3.488   4.849   5.203  0.3222  4.0627 -3.8200
 8681TIP3    H247535   3.354   4.909   5.240 -0.6008  1.1138 -2.2376
 8682TIP3   OH247536   4.935   5.546  11.407 -0.3698 -0.0566 -0.1382
 8682TIP3    H147537   4.844   5.546  11.435  0.1475  0.5671  1.5855
 8682TIP3    H247538   4.980   5.601  11.471  0.8220  1.5492 -2.2639
 8683TIP3   OH247539   2.664   5.984  16.717  0.0832  0.3019 -0.0076
 8683TIP3    H147540   2.664   5.970  16.623 -1.0173 -2.6294  0.3840
 8683TIP3    H247541   2.747   5.948  16.747  0.2943  0.9487  0.2052
 8684TIP3   OH247542   1.930   5.110  13.513 -0.3734 -0.5009  0.3063
 8684TIP3    H147543   1.901   5.070  13.431 -2.1188 -0.7527  1.0260
 8684TIP3    H247544   1.867   5.180  13.529 -0.0557 -0.4743  1.4567
 8685TIP3   OH247545   2.540   1.108  12.353  0.4158  0.3588  0.6901
 8685TIP3    H147546   2.624   1.063  12.364  0.3468  0.0349 -0.0851
 8685TIP3    H247547   2.550   1.157  12.271 -0.4326 -0.3108  0.1828
 8686TIP3   OH247548   6.429   5.241  16.087  0.4189 -0.0089  0.3240
 8686TIP3    H147549   6.440   5.315  16.027  1.6624  1.9514  2.8629
 8686TIP3    H247550   6.335   5.240  16.107  0.3252  0.6053 -0.0911
 8687TIP3   OH247551   4.459   3.553   5.069  0.9975 -0.3082  0.1646
 8687TIP3    H147552   4.456   3.575   5.163  0.6224  0.0698  0.0688
 8687TIP3    H247553   4.471   3.458   5.067  2.9140 -0.0957  0.5939
 8688TIP3   OH247554   0.640   4.960   5.336  0.4860 -0.3067 -0.1328
 8688TIP3    H147555   0.588   4.915   5.402  1.8399 -0.7966  0.6157
 8688TIP3    H247556   0.619   5.053   5.349 -1.2812 -0.5836 -0.8020
 8689TIP3   OH247557   0.687   6.439  16.926  0.0702  0.2680 -0.0603
 8689TIP3    H147558   0.731   6.484  16.998  0.1760  0.7140 -0.4025
 8689TIP3    H247559   0.737   6.358  16.914  1.3582  1.2021 -1.0551
 8690TIP3   OH247560   1.310   2.277  13.963 -0.0195  0.5251 -0.8555
 8690TIP3    H147561   1.263   2.198  13.937 -0.8760  0.5035  0.7559
 8690TIP3    H247562   1.395   2.269  13.919 -0.1025 -1.2767 -0.7139
 8691TIP3   OH247563   4.215   3.389  16.395 -0.0726  0.9209  0.1136
 8691TIP3    H147564   4.260   3.365  16.314  1.9926  1.2900  1.1261
 8691TIP3    H247565   4.138   3.332  16.398  0.8826 -0.4445 -1.1379
 8692TIP3   OH247566   3.942   5.571   6.183 -0.1104  0.0356 -0.4111
 8692TIP3    H147567   3.941   5.518   6.104  4.8034 -0.9042 -0.0081
 8692TIP3    H247568   3.973   5.512   6.252 -1.5908  1.5614  1.6169
 8693TIP3   OH247569   5.761   3.071  12.227 -0.0998  0.1748  0.3275
 8693TIP3    H147570   5.722   3.158  12.236  0.3173  0.5846 -1.6732
 8693TIP3    H247571   5.832   3.071  12.291 -1.0108  0.7760  1.3621
 8694TIP3   OH247572   1.750   1.215   4.190 -0.4256  0.1621 -0.6396
 8694TIP3    H147573   1.692   1.155   4.236  0.1009 -0.4090 -0.7231
 8694TIP3    H247574   1.779   1.166   4.113 -0.5384  0.7647 -1.0691
 8695TIP3   OH247575   2.558   0.583   5.638 -0.1682 -0.0992 -0.1363
 8695TIP3    H147576   2.467   0.566   5.615 -0.3034  1.1205 -0.5647
 8695TIP3    H247577   2.554   0.626   5.723 -0.2281  2.7174 -1.5058
 8696TIP3   OH247578   1.864   0.024   1.596  0.1499 -0.0152 -0.2906
 8696TIP3    H147579   1.792  -0.039   1.606  1.0097 -0.6396  2.5312
 8696TIP3    H247580   1.837   0.100   1.646  0.0017  1.1080 -2.0370
 8697TIP3   OH247581   1.368   3.858  10.927 -0.2000 -0.2498  0.0203
 8697TIP3    H147582   1.314   3.822  10.996 -0.7655 -1.3312 -0.9670
 8697TIP3    H247583   1.457   3.832  10.949 -0.6727 -2.8800 -1.0292
 8698TIP3   OH247584   3.856   6.750  10.490  0.5581  0.1795 -0.4034
 8698TIP3    H147585   3.831   6.839  10.513 -1.0902 -0.4711  0.4050
 8698TIP3    H247586   3.848   6.700  10.571 -1.2331 -1.2541 -1.4103
 8699TIP3   OH247587   3.707   3.539   5.439  0.5103 -0.1217 -0.4083
 8699TIP3    H147588   3.801   3.553   5.437  0.3883  1.1163  1.3033
 8699TIP3    H247589   3.679   3.578   5.522 -1.4881 -0.5591 -0.8566
 8700TIP3   OH247590   1.796   6.301   0.457  0.0880 -0.2976  1.0563
 8700TIP3    H147591   1.853   6.353   0.400 -1.9876 -0.6124 -1.4111
 8700TIP3    H247592   1.854   6.234   0.494  1.2849 -0.8467 -1.6542
 8701TIP3   OH247593   0.141   5.230   1.030 -0.0026 -0.2747 -0.9926
 8701TIP3    H147594   0.117   5.175   0.955  2.8769 -3.6343  0.4230
 8701TIP3    H247595   0.208   5.289   0.994  1.0407 -1.5651 -1.2093
 8702TIP3   OH247596   3.403   0.339   4.756  0.5690  0.4625 -0.9168
 8702TIP3    H147597   3.495   0.328   4.734  0.9373  0.4640  0.5701
 8702TIP3    H247598   3.360   0.358   4.672  2.1682  2.1685 -1.3870
 8703TIP3   OH247599   5.063   2.551   4.404 -0.1628  0.2628 -1.2813
 8703TIP3    H147600   4.982   2.525   4.448  0.2054 -0.4048 -0.9918
 8703TIP3    H247601   5.117   2.471   4.404  1.3648  1.2542  0.4821
 8704TIP3   OH247602   4.073   5.113   3.129 -0.1717 -0.5169  0.0551
 8704TIP3    H147603   4.132   5.131   3.055 -0.3430 -0.8093 -0.1537
 8704TIP3    H247604   4.046   5.022   3.116 -2.2572  0.2182 -0.9581
 8705TIP3   OH247605   0.133   5.861   2.125  0.2313  0.4299 -0.7174
 8705TIP3    H147606   0.043   5.847   2.154 -0.2902  0.7226 -2.1585
 8705TIP3    H247607   0.138   5.816   2.041  1.8391 -0.7545 -0.0171
 8706TIP3   OH247608   1.446   5.303  12.279 -0.0530 -0.1755 -0.1676
 8706TIP3    H147609   1.486   5.389  12.297  0.8146 -0.5799 -0.1093
 8706TIP3    H247610   1.503   5.241  12.325  0.2968 -0.9353 -1.5943
 8707TIP3   OH247611   2.848   6.025   0.335 -0.3395 -0.0147  0.4746
 8707TIP3    H147612   2.789   6.100   0.330  0.0996  0.3739  1.0567
 8707TIP3    H247613   2.893   6.035   0.419  0.2257 -0.5575  0.2458
 8708TIP3   OH247614   0.458   2.210  12.266 -0.1777 -0.1154 -0.0035
 8708TIP3    H147615   0.531   2.261  12.301  0.9001 -1.2325 -0.5865
 8708TIP3    H247616   0.476   2.204  12.173 -1.4368  0.2482 -0.2838
 8709TIP3   OH247617   2.577   0.562   2.869 -0.4650 -0.1886 -0.0667
 8709TIP3    H147618   2.668   0.590   2.876 -0.6870  0.5670 -0.1953
 8709TIP3    H247619   2.574   0.478   2.915  0.3830 -0.4156 -0.4223
 8710TIP3   OH247620   0.346   2.778   5.473 -0.0412 -0.1665  0.3215
 8710TIP3    H147621   0.264   2.742   5.439 -1.2173  0.6185  2.2498
 8710TIP3    H247622   0.406   2.704   5.476 -1.1701 -1.0869  0.3386
 8711TIP3   OH247623   0.642   2.953  15.642 -0.0456  0.4349 -0.2541
 8711TIP3    H147624   0.593   3.015  15.588 -2.2933 -1.2004 -0.1595
 8711TIP3    H247625   0.590   2.944  15.722  1.0445 -0.4176  0.3718
 8712TIP3   OH247626   4.590   2.787   0.059  0.6564 -0.6139  0.2543
 8712TIP3    H147627   4.505   2.831   0.052  2.0906  2.3129  0.4980
 8712TIP3    H247628   4.568   2.695   0.073 -2.4826  0.1470  0.7404
 8713TIP3   OH247629   2.327   3.884   5.987 -0.2492 -0.0176 -0.3627
 8713TIP3    H147630   2.243   3.926   6.004  0.0960  1.3574 -1.8829
 8713TIP3    H247631   2.306   3.809   5.931 -0.9644 -2.4628  3.0270
 8714TIP3   OH247632   3.303   4.861  12.021 -0.5969  0.3771  0.8092
 8714TIP3    H147633   3.324   4.818  11.939  1.6917  0.6280  1.2308
 8714TIP3    H247634   3.284   4.790  12.082  0.9711  0.0473  0.9202
 8715TIP3   OH247635   2.825   2.021  14.232 -0.3291  0.0068  0.2426
 8715TIP3    H147636   2.817   2.073  14.151 -0.2908 -1.9477 -1.0514
 8715TIP3    H247637   2.916   1.995  14.234 -0.3618 -0.0506  0.8641
 8716TIP3   OH247638   2.847   3.693  17.168 -0.1444  0.2616  0.7719
 8716TIP3    H147639   2.789   3.768  17.154 -0.0520  0.3962  1.1131
 8716TIP3    H247640   2.911   3.723  17.232 -0.7616 -0.4455  1.7466
 8717TIP3   OH247641   2.643   5.021   0.269  0.7009  0.0440  1.0093
 8717TIP3    H147642   2.723   5.073   0.267  0.3422  0.5616 -1.4214
 8717TIP3    H247643   2.576   5.079   0.233 -0.7050 -0.5355  2.6181
 8718TIP3   OH247644   3.674   6.181   1.759  0.4581 -0.3672 -0.6390
 8718TIP3    H147645   3.578   6.186   1.766  0.4770  0.0632 -0.7231
 8718TIP3    H247646   3.697   6.249   1.697  0.9059  0.1097  0.0533
 8719TIP3   OH247647   2.440   2.128   4.556  0.1424  0.1268 -0.1605
 8719TIP3    H147648   2.397   2.103   4.638 -0.3386  0.3208 -0.3509
 8719TIP3    H247649   2.522   2.169   4.583 -0.8381  1.8280  0.3076
 8720TIP3   OH247650   3.078   4.606   3.571 -0.3394 -0.1018  0.4271
 8720TIP3    H147651   3.144   4.673   3.587  0.0019  0.0031 -1.3464
 8720TIP3    H247652   3.105   4.531   3.625  1.5830 -0.2868 -0.7537
 8721TIP3   OH247653   0.239   3.156  12.924  0.1866  0.0267 -0.6654
 8721TIP3    H147654   0.172   3.153  12.856 -0.1293 -1.0083 -0.3237
 8721TIP3    H247655   0.190   3.169  13.005  0.6360  2.2844 -0.7294
 8722TIP3   OH247656   1.639   3.440   1.331 -0.2401  0.4912  0.2028
 8722TIP3    H147657   1.570   3.422   1.395 -0.0986 -2.0396 -0.2975
 8722TIP3    H247658   1.719   3.449   1.384 -0.1555 -1.4242  0.4528
 8723TIP3   OH247659   0.502   2.018   2.540  0.4816  0.0691  0.2391
 8723TIP3    H147660   0.414   1.995   2.510  0.6054 -0.5597  0.3728
 8723TIP3    H247661   0.514   1.971   2.622  1.0602 -0.0812  0.0701
 8724TIP3   OH247662   2.454   6.283   2.795 -0.7085  0.0205 -0.1738
 8724TIP3    H147663   2.404   6.237   2.727  0.9572 -0.3096 -1.2297
 8724TIP3    H247664   2.529   6.319   2.748  0.1381  0.3358  1.3934
 8725TIP3   OH247665   2.219   5.290   1.599  0.3474 -0.0233  0.6156
 8725TIP3    H147666   2.182   5.245   1.524  2.2215  1.0099 -0.9855
 8725TIP3    H247667   2.297   5.240   1.621  1.2233  1.1625  0.2234
 8726TIP3   OH247668   5.812   3.588  13.293  0.5871  0.4127 -0.2726
 8726TIP3    H147669   5.892   3.560  13.247 -0.0146 -0.2418 -0.9437
 8726TIP3    H247670   5.759   3.628  13.224  0.5296  1.2534  0.2663
 8727TIP3   OH247671   2.893   0.199  16.424 -0.2904 -0.0951  0.3966
 8727TIP3    H147672   2.820   0.219  16.482 -0.9769  0.5788 -0.6793
 8727TIP3    H247673   2.867   0.236  16.339  2.1502  1.9805  0.4820
 8728TIP3   OH247674   6.334   4.867   3.613 -0.5255 -0.2827 -0.3659
 8728TIP3    H147675   6.319   4.781   3.574  0.0610 -1.3655  1.7288
 8728TIP3    H247676   6.251   4.889   3.655 -0.6534  0.1427 -0.8420
 8729TIP3   OH247677   5.123   0.372  15.194  0.3729 -0.0108  0.5069
 8729TIP3    H147678   5.062   0.410  15.131  1.0095 -0.6677 -0.5082
 8729TIP3    H247679   5.067   0.331  15.260 -0.3218  1.8301  1.1265
 8730TIP3   OH247680   3.965   4.741   1.890  0.2918  0.8974 -0.2203
 8730TIP3    H147681   3.951   4.745   1.796 -1.7005  1.9790  0.0734
 8730TIP3    H247682   4.003   4.826   1.912 -1.4714  1.5977  0.2402
 8731TIP3   OH247683   2.111   6.399  13.776 -1.2378  0.6436 -0.4015
 8731TIP3    H147684   2.035   6.371  13.826 -1.4369 -0.5666 -1.3562
 8731TIP3    H247685   2.164   6.450  13.837 -1.0978 -1.4247  1.2312
 8732TIP3   OH247686   2.656   6.665   1.884 -0.0595  0.5343  0.1669
 8732TIP3    H147687   2.634   6.713   1.964  2.8703  3.1347 -0.5016
 8732TIP3    H247688   2.597   6.700   1.817  0.0956  1.1215  0.3386
 8733TIP3   OH247689   2.780   0.196   1.612  0.2303 -0.0998  0.0655
 8733TIP3    H147690   2.835   0.270   1.588  0.9227  0.0152  1.9218
 8733TIP3    H247691   2.842   0.130   1.645 -0.6582 -0.2121  1.5808
 8734TIP3   OH247692   3.827   6.816   2.788  0.2124  0.6147 -0.1113
 8734TIP3    H147693   3.841   6.904   2.822  0.1715 -0.3345  2.4358
 8734TIP3    H247694   3.735   6.815   2.761 -0.3035  0.7965  1.5942
 8735TIP3   OH247695   5.385   3.832   4.220  0.1888 -0.9436 -0.3394
 8735TIP3    H147696   5.355   3.750   4.180 -1.3099 -0.4753 -0.2009
 8735TIP3    H247697   5.307   3.868   4.262  0.7060  0.8170 -0.8378
 8736TIP3   OH247698   6.101   0.028   2.530  0.2523 -0.0132  0.2623
 8736TIP3    H147699   6.164   0.099   2.546 -0.6158  0.9719 -0.5916
 8736TIP3    H247700   6.153  -0.042   2.492  1.0481  0.3159  0.7126
 8737TIP3   OH247701   5.559   1.769   5.770 -0.1561 -0.2112  0.6833
 8737TIP3    H147702   5.474   1.812   5.767  0.0910  0.4569  2.5514
 8737TIP3    H247703   5.584   1.758   5.678 -2.2067 -0.3558  0.1203
 8738TIP3   OH247704   0.535   6.432  14.775 -0.0149  0.3441 -0.1310
 8738TIP3    H147705   0.576   6.438  14.861 -0.7072 -0.0918  0.2367
 8738TIP3    H247706   0.444   6.458  14.791 -1.1571 -3.4679  0.0481
 8739TIP3   OH247707   5.608   0.765  16.585  0.2448  0.4896 -0.1026
 8739TIP3    H147708   5.556   0.766  16.505  0.8848  0.0863 -0.5326
 8739TIP3    H247709   5.698   0.778  16.555  0.4956  0.2624  0.5436
 8740TIP3   OH247710   1.584   1.309  16.675 -0.1741  0.1459  0.4867
 8740TIP3    H147711   1.581   1.246  16.746 -0.6550  0.2599  0.5691
 8740TIP3    H247712   1.497   1.350  16.675  0.1765  0.8960  0.5167
 8741TIP3   OH247713   0.392   5.962  11.412  0.1657 -0.5060  0.2967
 8741TIP3    H147714   0.415   5.871  11.396 -1.4334 -1.2774  2.1485
 8741TIP3    H247715   0.463   6.013  11.374  1.2406 -2.5381 -0.4401
 8742TIP3   OH247716   1.370   3.282   3.215  0.2009 -0.6620  0.3398
 8742TIP3    H147717   1.304   3.313   3.278 -0.5009 -0.5001 -0.4694
 8742TIP3    H247718   1.450   3.330   3.238 -0.7154  1.3578 -0.5433
 8743TIP3   OH247719   3.264   3.387  17.109  0.5836  0.2956 -0.2583
 8743TIP3    H147720   3.291   3.346  17.191 -1.1712  0.1122  0.2414
 8743TIP3    H247721   3.325   3.352  17.044  1.1364 -0.6138  0.7311
 8744TIP3   OH247722   2.844   3.171  12.911  0.3977  0.1228  0.0572
 8744TIP3    H147723   2.762   3.144  12.870  1.6587 -1.0467 -1.7937
 8744TIP3    H247724   2.904   3.097  12.897  2.1733  1.5112  0.1155
 8745TIP3   OH247725   6.192   1.532  15.029  0.3899  0.2025 -0.0276
 8745TIP3    H147726   6.246   1.607  15.004  1.4134 -0.2496  0.8238
 8745TIP3    H247727   6.213   1.465  14.963  1.1315 -0.0852  0.4893
 8746TIP3   OH247728   2.228   6.433  11.222 -0.1449  0.5148  0.4648
 8746TIP3    H147729   2.273   6.481  11.153  0.8400 -1.5560 -0.3787
 8746TIP3    H247730   2.293   6.424  11.292 -0.3936  0.6190  0.7098
 8747TIP3   OH247731   5.438   3.507  11.357  0.1289 -0.0914  0.8531
 8747TIP3    H147732   5.525   3.539  11.334 -0.2084  0.5044  0.3731
 8747TIP3    H247733   5.379   3.578  11.330 -0.6693 -1.2634 -0.5519
 8748TIP3   OH247734   5.574   4.572  11.962 -0.3602 -0.0975 -0.1874
 8748TIP3    H147735   5.596   4.487  11.999  0.6406  0.6512  0.9663
 8748TIP3    H247736   5.633   4.583  11.887 -0.4451 -0.3873 -0.2960
 8749TIP3   OH247737   0.229   3.184   4.387  0.3926  0.4349  0.0669
 8749TIP3    H147738   0.222   3.117   4.318 -1.1337  1.1571 -0.5060
 8749TIP3    H247739   0.250   3.134   4.466 -0.0219 -0.6631 -0.4983
 8750TIP3   OH247740   3.426   4.239   3.826  0.3588  0.2820  0.2650
 8750TIP3    H147741   3.381   4.167   3.871 -0.5943  0.2430 -0.7376
 8750TIP3    H247742   3.426   4.311   3.889  0.7005 -0.3660  1.0138
 8751TIP3   OH247743   4.161   5.686  12.548  0.1343  0.3429  0.1872
 8751TIP3    H147744   4.236   5.650  12.501 -0.0168  0.4449 -0.1288
 8751TIP3    H247745   4.135   5.763  12.498 -0.2097  0.2840  0.2730
 8752TIP3   OH247746   0.108   3.301  13.840 -0.1436  0.3490  1.0514
 8752TIP3    H147747   0.062   3.345  13.768  1.5215 -0.4632 -0.5387
 8752TIP3    H247748   0.095   3.207  13.823  1.6128  0.1269  0.9077
 8753TIP3   OH247749   1.711   3.465  15.104 -0.2303 -0.0599 -0.6587
 8753TIP3    H147750   1.625   3.478  15.144  0.6537  2.6479  0.5245
 8753TIP3    H247751   1.771   3.457  15.179  0.5070 -2.2229 -1.4663
 8754TIP3   OH247752   6.517   5.172  16.349  0.0617  0.2490  0.5024
 8754TIP3    H147753   6.454   5.223  16.400 -1.4330 -0.2250 -0.8413
 8754TIP3    H247754   6.491   5.186  16.258 -1.4125 -4.1931  0.1595
 8755TIP3   OH247755   0.093   1.434  15.081  0.2464  0.2940 -1.1462
 8755TIP3    H147756   0.072   1.503  15.144  0.2479  0.0719 -0.9027
 8755TIP3    H247757   0.041   1.456  15.003 -1.2662 -0.5264 -0.3857
 8756TIP3   OH247758   5.361   5.775  15.715  0.0107  0.3652  0.3709
 8756TIP3    H147759   5.334   5.813  15.799  0.6007  1.7383 -0.0345
 8756TIP3    H247760   5.386   5.685  15.736  0.6001  0.8319  1.7423
 8757TIP3   OH247761   1.696   4.447   0.257 -0.2095  0.1430  0.8803
 8757TIP3    H147762   1.722   4.420   0.168  1.7636  1.1547  1.1046
 8757TIP3    H247763   1.607   4.415   0.267  0.5554 -2.5820 -0.3861
 8758TIP3   OH247764   3.972   0.622   3.212  0.2549 -0.7023  0.0059
 8758TIP3    H147765   3.964   0.656   3.123  0.7374  0.6328  0.4592
 8758TIP3    H247766   4.043   0.558   3.206  0.1116 -0.8082 -0.6295
 8759TIP3   OH247767   5.663   3.917   4.190  0.6513  0.3533 -0.1196
 8759TIP3    H147768   5.575   3.893   4.218  0.5635  0.3568 -0.3973
 8759TIP3    H247769   5.677   4.005   4.227  0.3133  0.6030 -0.5816
 8760TIP3   OH247770   0.684   2.266  14.172 -0.0836 -0.6276 -0.2365
 8760TIP3    H147771   0.652   2.269  14.262 -0.4995  0.3068 -0.4168
 8760TIP3    H247772   0.760   2.325  14.172  1.6066 -2.7323  0.1619
 8761TIP3   OH247773   4.347   3.374   3.502  0.0310  0.1286  0.3805
 8761TIP3    H147774   4.341   3.349   3.595 -2.5048  1.0062  0.4808
 8761TIP3    H247775   4.329   3.468   3.502  0.3002  0.1792 -0.9963
 8762TIP3   OH247776   3.252   4.317  14.024 -0.1987 -0.1471  0.3915
 8762TIP3    H147777   3.239   4.288  14.114 -1.3295  0.7168  0.5266
 8762TIP3    H247778   3.191   4.264  13.972 -0.0340 -0.1829  0.2359
 8763TIP3   OH247779   5.724   6.432   1.106 -0.0160 -0.1093  0.2912
 8763TIP3    H147780   5.815   6.429   1.075 -0.1355 -0.0059 -0.0705
 8763TIP3    H247781   5.690   6.515   1.074 -0.1255  0.0278  0.7522
 8764TIP3   OH247782   1.615   1.390   2.031 -0.2789  0.1610  0.0866
 8764TIP3    H147783   1.579   1.322   1.975  1.8513 -0.3189 -0.7725
 8764TIP3    H247784   1.627   1.465   1.973 -0.5017  0.5206  0.5039
 8765TIP3   OH247785   2.642   5.211  16.766  0.0007 -0.0977 -0.9847
 8765TIP3    H147786   2.709   5.143  16.766  0.3484  0.2261 -2.5077
 8765TIP3    H247787   2.560   5.165  16.750 -0.0324 -0.3778 -0.0682
 8766TIP3   OH247788   1.414   6.112   1.818  0.0867 -0.0394 -0.2901
 8766TIP3    H147789   1.458   6.030   1.841  0.9876  0.4938 -0.0910
 8766TIP3    H247790   1.447   6.132   1.730 -0.5014 -0.1329 -0.5369
 8767TIP3   OH247791   3.197   4.684   0.147 -0.0525 -0.4088  0.1069
 8767TIP3    H147792   3.192   4.625   0.223 -2.6777 -0.3820  0.0259
 8767TIP3    H247793   3.182   4.771   0.184  0.0068 -0.2409 -0.2671
 8768TIP3   OH247794   2.360   2.994  13.315 -0.0499  0.2064 -0.4940
 8768TIP3    H147795   2.298   3.063  13.336  1.3203  1.0276  0.9377
 8768TIP3    H247796   2.341   2.924  13.378  1.2563  0.9530  0.7543
 8769TIP3   OH247797   3.753   4.122  16.498  0.2852  0.2684  0.5066
 8769TIP3    H147798   3.666   4.118  16.457  0.3094  0.0501  0.4757
 8769TIP3    H247799   3.793   4.038  16.476  0.1629  0.0059  1.2849
 8770TIP3   OH247800   0.411   6.440   5.833  0.2762 -0.4829 -0.1179
 8770TIP3    H147801   0.427   6.346   5.840  0.0839 -0.5116 -0.0569
 8770TIP3    H247802   0.376   6.465   5.919 -2.0640 -0.8284 -0.9439
 8771TIP3   OH247803   3.203   3.910   4.663 -0.8488 -0.3015 -0.2367
 8771TIP3    H147804   3.227   3.953   4.746  1.1217 -1.5991 -0.0983
 8771TIP3    H247805   3.186   3.819   4.688 -1.8004 -0.3502 -1.0386
 8772TIP3   OH247806   5.124   3.204   5.781  0.8750 -0.6989 -0.1699
 8772TIP3    H147807   5.189   3.266   5.749  0.6610 -0.5992 -0.4116
 8772TIP3    H247808   5.146   3.192   5.874  1.9290 -1.5390 -0.5206
 8773TIP3   OH247809   1.285   1.363  17.270 -0.1702 -0.1528 -0.1609
 8773TIP3    H147810   1.203   1.396  17.234 -0.7098 -2.1813 -0.8596
 8773TIP3    H247811   1.341   1.350  17.194  0.7152  0.9328  0.2905
 8774TIP3   OH247812   3.237   0.196  11.582 -0.5154  0.3151  0.1568
 8774TIP3    H147813   3.161   0.253  11.595 -0.8326 -0.1080  0.1692
 8774TIP3    H247814   3.312   0.250  11.608 -0.9609  0.1509  1.8727
 8775TIP3   OH247815   5.539   2.239  15.461 -0.0905  0.0606  0.4992
 8775TIP3    H147816   5.581   2.156  15.482  1.3413  0.7324  0.3324
 8775TIP3    H247817   5.611   2.299  15.440 -0.9813  1.8280  2.3004
 8776TIP3   OH247818   5.250   0.997  13.342 -1.1471 -0.6192  0.2717
 8776TIP3    H147819   5.287   1.083  13.359 -0.0327 -1.2597  1.0925
 8776TIP3    H247820   5.302   0.962  13.270 -0.1032 -1.5442  1.4676
 8777TIP3   OH247821   1.198   6.721   3.903 -0.2363 -0.6155  0.5088
 8777TIP3    H147822   1.286   6.755   3.885 -0.4883  0.0080  0.4766
 8777TIP3    H247823   1.139   6.778   3.855 -0.7769 -0.0463  1.8277
 8778TIP3   OH247824   4.694   6.616  15.129 -0.1651 -0.6447 -0.2507
 8778TIP3    H147825   4.703   6.558  15.054 -0.7266 -1.0152 -0.0336
 8778TIP3    H247826   4.648   6.564  15.195  0.2639 -0.3009  0.3264
 8779TIP3   OH247827   1.980   2.098   5.354  0.3115  0.3628 -0.2649
 8779TIP3    H147828   1.923   2.171   5.329  1.3291  1.2155 -0.1438
 8779TIP3    H247829   1.955   2.077   5.444  0.6715  1.2019  0.0344
 8780TIP3   OH247830   0.035   2.242   4.168  0.2258  0.2891  0.0840
 8780TIP3    H147831   0.005   2.156   4.196 -1.0151  1.5138  2.7203
 8780TIP3    H247832  -0.017   2.261   4.090 -0.3689 -0.8364  0.1962
 8781TIP3   OH247833   1.366   4.693   0.975 -0.0522 -1.2935 -0.2293
 8781TIP3    H147834   1.356   4.640   1.053  0.0833 -1.4169 -0.2959
 8781TIP3    H247835   1.416   4.638   0.914  1.8538 -0.3308  0.4462
 8782TIP3   OH247836   0.873   1.248   2.128 -0.1294 -0.1579 -0.4737
 8782TIP3    H147837   0.835   1.187   2.191  0.3617 -0.0471 -0.0702
 8782TIP3    H247838   0.960   1.267   2.162 -0.5032  1.2282 -0.3009
 8783TIP3   OH247839   3.452   2.763   1.532 -0.3305  0.2979 -0.0985
 8783TIP3    H147840   3.364   2.752   1.496 -0.5743  0.7890  0.3305
 8783TIP3    H247841   3.496   2.821   1.470 -0.3330  0.0987 -0.2846
 8784TIP3   OH247842   3.745   4.856   1.094  0.5834 -0.0453 -0.0415
 8784TIP3    H147843   3.710   4.780   1.140  1.7270 -0.8745 -0.5177
 8784TIP3    H247844   3.704   4.853   1.007 -0.1743  0.4750  0.3019
 8785TIP3   OH247845   3.517   0.253   0.849 -0.2304  0.5338 -0.2231
 8785TIP3    H147846   3.544   0.337   0.811 -1.9435  0.9590 -0.5920
 8785TIP3    H247847   3.450   0.221   0.789 -0.0256 -0.8088  0.2537
 8786TIP3   OH247848   3.115   0.563   6.148  0.7709  0.6006 -0.3393
 8786TIP3    H147849   3.164   0.578   6.229  2.3573 -0.1647 -1.1361
 8786TIP3    H247850   3.051   0.495   6.171  1.5840 -0.0143  0.1384
 8787TIP3   OH247851   2.107   3.441  13.094  0.2598 -0.5986 -0.1974
 8787TIP3    H147852   2.174   3.477  13.152 -0.5833  1.1849 -0.2846
 8787TIP3    H247853   2.141   3.355  13.068  2.2301  0.0224  0.2299
 8788TIP3   OH247854   5.520   4.128   5.361  0.6341  0.3847  0.2266
 8788TIP3    H147855   5.485   4.138   5.450  1.0546 -0.1222  0.4521
 8788TIP3    H247856   5.449   4.158   5.304  0.8994  2.1696  0.7858
 8789TIP3   OH247857   4.544   4.122   2.275 -0.4570  0.4249 -0.4371
 8789TIP3    H147858   4.518   4.044   2.226  1.0943 -0.2065 -0.2760
 8789TIP3    H247859   4.607   4.166   2.218  0.2099  0.4941  0.3546
 8790TIP3   OH247860   5.955   3.696   0.252 -0.4254 -0.2944  0.7233
 8790TIP3    H147861   5.976   3.630   0.186 -1.7775 -0.5519  0.5349
 8790TIP3    H247862   5.870   3.731   0.225 -0.8623 -0.2127  2.1880
 8791TIP3   OH247863   1.391   3.857  12.834 -0.0588  0.6088 -0.4962
 8791TIP3    H147864   1.352   3.853  12.921 -1.1662  1.6260 -0.9377
 8791TIP3    H247865   1.327   3.904  12.781  1.6785  2.1670 -1.2597
 8792TIP3   OH247866   0.716   0.751  15.073  0.4073  0.1703 -0.3927
 8792TIP3    H147867   0.783   0.738  15.006  0.9418 -0.3296  0.2294
 8792TIP3    H247868   0.636   0.716  15.035  1.0410 -1.5413 -0.1800
 8793TIP3   OH247869   2.151   6.329  16.391 -0.2637  0.1670  0.6538
 8793TIP3    H147870   2.077   6.382  16.422 -0.0369  1.5029 -0.9722
 8793TIP3    H247871   2.122   6.298  16.305 -0.8039 -3.2726  2.0174
 8794TIP3   OH247872   1.457   5.503  15.083 -0.2961  0.3924 -0.3468
 8794TIP3    H147873   1.456   5.584  15.033  0.1550  0.4973 -0.1845
 8794TIP3    H247874   1.535   5.457  15.053 -0.2484  0.2687 -0.0396
 8795TIP3   OH247875   1.075   0.442  15.471 -0.0885  0.2910  0.5202
 8795TIP3    H147876   1.058   0.360  15.517  0.4519 -0.1967 -0.1298
 8795TIP3    H247877   1.014   0.504  15.510 -0.5475 -0.4326  0.9844
 8796TIP3   OH247878   1.041   2.068  14.026  0.0616  0.2209 -0.8881
 8796TIP3    H147879   0.949   2.060  14.052  0.6372 -1.0167  0.8756
 8796TIP3    H247880   1.042   2.045  13.934 -1.3238 -0.2852 -0.7904
 8797TIP3   OH247881   3.576   1.918  13.502 -0.1427  0.3144 -0.6097
 8797TIP3    H147882   3.513   1.971  13.551 -2.7663 -3.5278  0.3575
 8797TIP3    H247883   3.523   1.866  13.442  2.1605 -2.2806 -0.4984
 8798TIP3   OH247884   0.051   3.435  16.830  0.1088 -0.1462  0.2603
 8798TIP3    H147885   0.072   3.376  16.902 -0.4940  0.9237  1.3409
 8798TIP3    H247886  -0.042   3.423  16.815 -0.0633  0.6584  0.6282
 8799TIP3   OH247887   2.187   2.378   2.366 -0.2547  0.2472  0.2761
 8799TIP3    H147888   2.104   2.411   2.400 -1.7565 -2.8898 -0.1578
 8799TIP3    H247889   2.176   2.379   2.271  0.8749  1.3846  0.1365
 8800TIP3   OH247890   0.726   3.902  17.153 -0.3635  0.6393  0.0484
 8800TIP3    H147891   0.631   3.900  17.169 -0.5616  1.1653 -1.0221
 8800TIP3    H247892   0.736   3.871  17.063  0.5927 -0.6263  0.5804
 8801TIP3   OH247893   5.314   5.109   4.013  0.0767  0.5060  0.1244
 8801TIP3    H147894   5.317   5.203   3.992  0.3242 -0.1796 -3.1909
 8801TIP3    H247895   5.400   5.090   4.049 -0.4165  1.7948  2.0677
 8802TIP3   OH247896   2.664   4.794  14.693  0.0993  0.4212  0.1654
 8802TIP3    H147897   2.672   4.749  14.777 -0.0925  0.5926  0.2755
 8802TIP3    H247898   2.739   4.854  14.691 -1.4379  2.5008  1.4948
 8803TIP3   OH247899   0.461   6.088   2.481 -0.3299  0.2016 -0.0548
 8803TIP3    H147900   0.403   6.115   2.411  0.5725 -0.1814 -0.9590
 8803TIP3    H247901   0.404   6.042   2.543 -1.2950  1.3806 -0.0550
 8804TIP3   OH247902   3.233   2.172   3.218  0.1145 -0.2101  0.0789
 8804TIP3    H147903   3.262   2.260   3.194 -2.4131  0.6045 -0.1239
 8804TIP3    H247904   3.264   2.161   3.308 -0.1428  1.1728  0.3486
 8805TIP3   OH247905   6.335   4.383   0.937  0.6754  0.1387  1.2145
 8805TIP3    H147906   6.335   4.467   0.982  1.5074  0.3685  0.7867
 8805TIP3    H247907   6.387   4.326   0.994  2.0243  0.5228  0.3722
 8806TIP3   OH247908   0.952   0.552  17.052 -0.0516  0.0010 -0.1094
 8806TIP3    H147909   0.909   0.495  17.116 -0.0020  0.0100 -0.0675
 8806TIP3    H247910   0.886   0.618  17.030 -0.6828 -1.0279 -1.3910
 8807TIP3   OH247911   5.987   2.571  12.035  0.9992 -0.4973 -0.4321
 8807TIP3    H147912   6.002   2.613  11.950  1.8405  0.1683  0.0433
 8807TIP3    H247913   5.892   2.576  12.048  0.9228 -0.1662 -1.1076
 8808TIP3   OH247914   1.805   1.544  16.449 -0.6167 -0.2310 -0.2896
 8808TIP3    H147915   1.820   1.450  16.464 -0.7999 -0.3615 -0.9031
 8808TIP3    H247916   1.878   1.571  16.393 -1.3296 -0.3295 -1.2868
 8809TIP3   OH247917   2.904   2.267  13.835  0.9283 -0.3571 -0.0570
 8809TIP3    H147918   2.982   2.296  13.882  0.5242 -2.4753  1.9915
 8809TIP3    H247919   2.907   2.171  13.839 -0.8543 -0.5171 -1.5196
 8810TIP3   OH247920   1.567   3.762   2.204  0.1893  0.2428  0.3454
 8810TIP3    H147921   1.622   3.773   2.126 -1.8106 -0.8443 -1.2309
 8810TIP3    H247922   1.521   3.845   2.212 -0.0708  0.1282  0.0194
 8811TIP3   OH247923   5.861   2.592  16.265  0.0467  0.2531 -0.2190
 8811TIP3    H147924   5.851   2.645  16.344  0.4965  1.5734 -1.0296
 8811TIP3    H247925   5.772   2.571  16.238 -0.1319  0.6118  0.0988
 8812TIP3   OH247926   0.269   4.580  16.299  0.2755  0.5065 -0.0199
 8812TIP3    H147927   0.250   4.673  16.307 -0.4152  0.2303  1.7396
 8812TIP3    H247928   0.332   4.562  16.369 -0.0060 -0.4634 -0.0085
 8813TIP3   OH247929   3.371   1.798   0.855 -0.0430 -0.5337 -0.0110
 8813TIP3    H147930   3.280   1.806   0.826 -0.4120  0.5733  1.3939
 8813TIP3    H247931   3.417   1.866   0.805 -0.3242  0.1166  0.6143
 8814TIP3   OH247932   3.247   3.297   1.712  0.0473  0.0509 -0.1592
 8814TIP3    H147933   3.323   3.283   1.656  2.1510  0.0362  2.6314
 8814TIP3    H247934   3.247   3.391   1.730 -1.7590  0.3827 -1.6851
 8815TIP3   OH247935   6.803   5.485   6.283 -0.1981  0.4810 -0.5047
 8815TIP3    H147936   6.815   5.471   6.189 -0.0426  0.7405 -0.5249
 8815TIP3    H247937   6.718   5.529   6.290  0.5230  1.9229 -0.6571
 8816TIP3   OH247938   4.026   0.314  16.477 -0.0386  0.5203 -0.2168
 8816TIP3    H147939   3.966   0.252  16.516 -0.3340  0.9665  0.0385
 8816TIP3    H247940   4.038   0.382  16.543 -0.3164  1.1304 -0.7808
 8817TIP3   OH247941   5.364   0.768  15.709  0.3150  0.1910 -0.5463
 8817TIP3    H147942   5.348   0.814  15.792  0.1668 -0.3276 -0.2817
 8817TIP3    H247943   5.293   0.704  15.703  0.6920 -0.2113 -0.7561
 8818TIP3   OH247944   4.836   1.934   4.506 -0.7209 -0.0968 -0.0711
 8818TIP3    H147945   4.908   1.896   4.556 -0.9766  0.9302  1.1036
 8818TIP3    H247946   4.878   1.988   4.440 -0.3911  1.3245  1.2653
 8819TIP3   OH247947   3.986   0.152   6.021 -0.4474  0.2285 -0.0025
 8819TIP3    H147948   3.956   0.242   6.032 -0.5668  0.2056 -0.1340
 8819TIP3    H247949   3.965   0.109   6.105 -1.5197  0.0084 -0.3737
 8820TIP3   OH247950   5.758   3.991  12.666  0.3794 -0.5186  0.6429
 8820TIP3    H147951   5.706   4.058  12.711  0.4794  0.2429 -0.3603
 8820TIP3    H247952   5.849   4.017  12.683  0.4165 -0.3142  0.1282
 8821TIP3   OH247953   5.955   4.141   4.145 -0.0329  0.2044  0.9410
 8821TIP3    H147954   5.933   4.103   4.231 -1.4636  1.5257  1.1948
 8821TIP3    H247955   5.946   4.068   4.084  3.0107 -1.2610  2.1380
 8822TIP3   OH247956   6.487   6.696  15.590 -0.5287  0.4795 -0.3480
 8822TIP3    H147957   6.471   6.635  15.662  0.2439  0.4068 -0.2419
 8822TIP3    H247958   6.570   6.738  15.611 -0.3012  0.4669 -1.1932
 8823TIP3   OH247959   3.819   4.380  16.828 -0.1054 -0.2115 -0.0775
 8823TIP3    H147960   3.866   4.310  16.873  0.4117  0.5549  0.5771
 8823TIP3    H247961   3.886   4.426  16.777 -0.7959 -1.5606 -2.3180
 8824TIP3   OH247962   1.119   3.518   1.595 -0.0063  0.3342  0.4044
 8824TIP3    H147963   1.092   3.534   1.685  0.6783  0.4018  0.5976
 8824TIP3    H247964   1.194   3.575   1.581 -0.7418  1.0828 -0.5375
 8825TIP3   OH247965   1.626   5.721   0.742 -0.3239 -0.2740  0.2344
 8825TIP3    H147966   1.667   5.701   0.658  0.7453 -0.6231  0.8304
 8825TIP3    H247967   1.658   5.809   0.764 -0.8849 -0.0359  0.1133
 8826TIP3   OH247968   3.996   0.916   0.239  0.0168  0.2222  0.5079
 8826TIP3    H147969   3.980   0.831   0.196 -0.0739  0.7309 -0.4810
 8826TIP3    H247970   4.082   0.906   0.280  0.4283 -0.0452 -0.3929
 8827TIP3   OH247971   3.746   4.378   2.381 -0.1980  0.0227  0.1523
 8827TIP3    H147972   3.721   4.290   2.355  2.7001 -0.9318  0.3307
 8827TIP3    H247973   3.769   4.369   2.474 -1.1865  1.2753  0.5266
 8828TIP3   OH247974   3.235   3.717  12.542  0.1674  0.1246  1.2560
 8828TIP3    H147975   3.156   3.732  12.593 -1.1809 -0.1117 -0.6809
 8828TIP3    H247976   3.255   3.624  12.555  0.0090  0.1380  1.5929
 8829TIP3   OH247977   0.481   0.895  15.895 -0.2655 -0.3807  0.7640
 8829TIP3    H147978   0.418   0.861  15.958 -0.0333 -0.3872  0.9873
 8829TIP3    H247979   0.528   0.964  15.942  0.3511 -0.8239  0.7956
 8830TIP3   OH247980   6.312   5.447  16.896 -0.3384  0.0343  0.3632
 8830TIP3    H147981   6.231   5.492  16.919 -1.8065 -2.7899  0.9641
 8830TIP3    H247982   6.306   5.363  16.941  2.0130 -1.0421 -1.2404
 8831TIP3   OH247983   2.861   6.373   0.838  0.1576 -0.6296 -0.3663
 8831TIP3    H147984   2.891   6.456   0.799  0.0764  0.0453  0.9898
 8831TIP3    H247985   2.892   6.306   0.777 -0.4061  0.4388 -1.8654
 8832TIP3   OH247986   4.954   1.896   6.718 -0.5596 -0.3336 -0.3421
 8832TIP3    H147987   4.862   1.882   6.694  0.1755 -3.4783 -1.4602
 8832TIP3    H247988   4.975   1.824   6.778  0.5017  1.8029  1.9471
 8833TIP3   OH247989   2.707   5.826   4.120 -0.5052 -0.1027  0.2415
 8833TIP3    H147990   2.705   5.862   4.209 -2.1518 -0.7636  0.4764
 8833TIP3    H247991   2.681   5.735   4.131  0.4462 -0.5077 -0.7882
 8834TIP3   OH247992   4.603   3.420   5.930 -1.0413 -0.1995  0.0123
 8834TIP3    H147993   4.696   3.399   5.932 -0.5086  1.7867 -1.7163
 8834TIP3    H247994   4.564   3.352   5.876 -0.5067 -0.7514  0.3148
 8835TIP3   OH247995   0.413   6.819   3.475  0.0694  0.2276  0.2574
 8835TIP3    H147996   0.397   6.894   3.418  1.8135  0.5754  0.2098
 8835TIP3    H247997   0.410   6.743   3.417 -0.3331  0.3768  0.0808
 8836TIP3   OH247998   6.786   5.441  14.205 -0.2451  0.5550 -0.5887
 8836TIP3    H147999   6.846   5.367  14.204  0.2716  0.9752 -1.8440
 8836TIP3    H248000   6.751   5.442  14.293 -0.7395 -1.5666 -0.7445
 8837TIP3   OH248001   2.829   0.798  12.859  0.1414 -0.2841  0.3825
 8837TIP3    H148002   2.751   0.742  12.862  0.7788 -1.1454  1.0525
 8837TIP3    H248003   2.825   0.839  12.772  0.0660 -1.9735 -0.4408
 8838TIP3   OH248004   3.991   4.816  13.655 -0.1070  0.3950  0.3193
 8838TIP3    H148005   4.064   4.791  13.711 -0.4835 -2.0406 -0.2186
 8838TIP3    H248006   3.943   4.734  13.641 -1.5609  1.5030 -1.3167
 8839TIP3   OH248007   2.462   4.086   4.407  0.3308  0.7082  0.0081
 8839TIP3    H148008   2.403   4.130   4.345  0.2297 -2.6846 -2.4383
 8839TIP3    H248009   2.407   4.022   4.452  1.5535 -0.6657 -0.3975
 8840TIP3   OH248010   5.876   4.508   0.041 -0.1389 -0.5368  0.2224
 8840TIP3    H148011   5.966   4.510   0.074 -0.1378 -0.3469  0.2105
 8840TIP3    H248012   5.837   4.589   0.075 -1.1340 -1.9812  2.5768
 8841TIP3   OH248013   1.041   0.231   5.679 -0.1914 -0.2627  0.4649
 8841TIP3    H148014   1.082   0.260   5.761 -0.7075  2.1753 -0.1055
 8841TIP3    H248015   0.975   0.168   5.707  2.8465 -3.1881  1.5106
 8842TIP3   OH248016   5.749   6.196   3.435 -0.0438 -0.2635 -0.0941
 8842TIP3    H148017   5.723   6.105   3.427 -2.0455  0.2230  0.5692
 8842TIP3    H248018   5.696   6.230   3.507  1.9217  0.9874  0.8149
 8843TIP3   OH248019   0.288   3.448  12.912  0.0747  0.0098 -0.4983
 8843TIP3    H148020   0.380   3.473  12.904  0.0921 -0.3029 -1.2469
 8843TIP3    H248021   0.288   3.352  12.915 -0.1124  0.0375  0.9600
 8844TIP3   OH248022   6.687   2.391  11.593  0.0264 -0.6334  0.1813
 8844TIP3    H148023   6.705   2.433  11.509 -1.3677  1.2919  0.8107
 8844TIP3    H248024   6.596   2.362  11.586  0.3688 -1.7890  0.4895
 8845TIP3   OH248025   3.595   0.098  17.015  0.1608 -0.2327  0.0864
 8845TIP3    H148026   3.615   0.145  17.095 -1.6839  0.6092  0.0599
 8845TIP3    H248027   3.585   0.166  16.948  1.9187 -0.9283 -0.9471
 8846TIP3   OH248028   2.090   4.077  13.972 -0.0746  0.8393 -0.2712
 8846TIP3    H148029   2.029   4.070  14.046 -0.4403  2.3921 -0.4018
 8846TIP3    H248030   2.176   4.060  14.011 -0.1883  2.2850  0.6594
 8847TIP3   OH248031   6.337   0.206   5.788 -0.0491 -0.5527  0.8593
 8847TIP3    H148032   6.386   0.134   5.749 -2.8683 -1.3860 -1.2818
 8847TIP3    H248033   6.285   0.166   5.857 -0.5785 -0.3432  0.5872
 8848TIP3   OH248034   3.598   5.252   2.141 -0.3513 -0.6645 -0.3637
 8848TIP3    H148035   3.661   5.292   2.201  1.3171 -2.2036 -1.0744
 8848TIP3    H248036   3.532   5.214   2.199  0.1953 -0.4044  0.4408
 8849TIP3   OH248037   3.569   3.831   4.535  0.4421  0.8698  0.1551
 8849TIP3    H148038   3.551   3.748   4.581  1.2114 -0.0970 -1.2432
 8849TIP3    H248039   3.527   3.898   4.589 -0.8526 -0.5214  0.9236
 8850TIP3   OH248040   3.472   1.956   2.230 -0.4128 -0.0937  0.6071
 8850TIP3    H148041   3.384   1.924   2.213 -1.6115  3.2532  0.1396
 8850TIP3    H248042   3.495   1.919   2.316 -2.4752 -0.6059  0.9571
 8851TIP3   OH248043   0.712   2.752  11.036 -0.5118 -0.1392 -0.0550
 8851TIP3    H148044   0.787   2.801  11.071 -0.3200  0.3085 -1.0867
 8851TIP3    H248045   0.740   2.660  11.039  0.4269  0.0929 -1.2515
 8852TIP3   OH248046   5.588   3.872   2.326 -0.2166 -0.1891 -0.6006
 8852TIP3    H148047   5.574   3.811   2.398 -0.2159 -0.7594 -1.0876
 8852TIP3    H248048   5.501   3.910   2.310  0.0835  1.1390  0.7709
 8853TIP3   OH248049   3.403   5.752  10.567 -0.0536  0.3088  0.6409
 8853TIP3    H148050   3.451   5.743  10.649 -0.5909  0.4503  0.9725
 8853TIP3    H248051   3.409   5.666  10.526 -1.3581 -0.3079  1.7024
 8854TIP3   OH248052   0.125   1.773   6.509  0.1519  0.5442  0.0324
 8854TIP3    H148053   0.161   1.695   6.552 -0.7470 -0.0741 -0.3279
 8854TIP3    H248054   0.126   1.840   6.577  1.1248  0.2886  0.2914
 8855TIP3   OH248055   0.752   1.933   6.758 -0.4095 -0.3549  0.0040
 8855TIP3    H148056   0.819   1.994   6.727 -0.6934 -0.4478 -0.7937
 8855TIP3    H248057   0.800   1.853   6.780  0.0882  0.4528  1.9186
 8856TIP3   OH248058   4.039   3.721   2.972 -0.4773 -0.1692  0.1855
 8856TIP3    H148059   4.042   3.693   3.063  0.5876  1.7685  0.7893
 8856TIP3    H248060   4.115   3.679   2.932  0.8753  1.4037  0.9862
 8857TIP3   OH248061   6.186   4.918  12.124 -0.2122 -0.6513  0.2158
 8857TIP3    H148062   6.178   4.933  12.030  0.2817 -0.7327  0.1556
 8857TIP3    H248063   6.104   4.876  12.149  0.3119 -2.1218 -0.4796
 8858TIP3   OH248064   5.581   5.728  15.250 -0.2015  0.1003  0.2295
 8858TIP3    H148065   5.487   5.720  15.262 -0.4951  0.4214 -1.6175
 8858TIP3    H248066   5.614   5.638  15.256 -0.7610 -0.1277 -0.1012
 8859TIP3   OH248067   5.138   1.301   1.931  0.2005 -0.1756  0.1188
 8859TIP3    H148068   5.223   1.263   1.956  2.3455  2.1052 -3.3329
 8859TIP3    H248069   5.121   1.366   1.999  0.4116 -1.7010  1.6796
 8860TIP3   OH248070   0.654   5.617  12.953 -0.4451  0.2670 -0.0035
 8860TIP3    H148071   0.678   5.565  12.877 -0.6180 -1.7112  1.2558
 8860TIP3    H248072   0.594   5.684  12.919 -1.2035 -1.1363 -1.4496
 8861TIP3   OH248073   1.200   3.761  13.848  0.0004  0.4453  0.1537
 8861TIP3    H148074   1.128   3.698  13.848  0.2282  0.1836 -0.1658
 8861TIP3    H248075   1.216   3.779  13.940 -0.4146  0.4333  0.2299
 8862TIP3   OH248076   4.693   5.932  16.642  0.4274  0.4067 -0.4352
 8862TIP3    H148077   4.686   5.888  16.557  1.2490 -0.4281 -0.0826
 8862TIP3    H248078   4.639   5.878  16.701 -2.6184  2.6548 -1.0279
 8863TIP3   OH248079   4.824   2.052  15.960  0.4377 -0.6302 -0.6745
 8863TIP3    H148080   4.827   1.958  15.942  1.2944 -0.5134 -1.1737
 8863TIP3    H248081   4.849   2.060  16.052 -0.4959 -0.9522 -0.3818
 8864TIP3   OH248082   0.452   3.875   2.606  0.9581 -0.0419 -0.2398
 8864TIP3    H148083   0.517   3.885   2.536  2.2021 -0.8306  0.7816
 8864TIP3    H248084   0.452   3.959   2.651  1.4189 -0.1054 -0.1185
 8865TIP3   OH248085   4.581   5.914  11.396 -0.1351  0.6877 -0.2711
 8865TIP3    H148086   4.662   5.875  11.366  0.6125  2.5697 -0.7455
 8865TIP3    H248087   4.594   5.927  11.490  0.3120  1.4366 -0.4321
 8866TIP3   OH248088   4.077   5.241  10.189 -0.3397 -0.0004 -0.6076
 8866TIP3    H148089   3.997   5.236  10.241 -1.4409  0.0356 -2.2495
 8866TIP3    H248090   4.112   5.152  10.192 -0.7393 -0.1532 -0.3223
 8867TIP3   OH248091   1.162   3.391  13.899 -0.2742  0.5595 -0.2532
 8867TIP3    H148092   1.093   3.448  13.865  0.7394  1.3230 -1.0852
 8867TIP3    H248093   1.236   3.406  13.840  0.7060 -0.0122  0.8140
 8868TIP3   OH248094   0.225   6.501   2.321  0.5825 -0.2046  0.3174
 8868TIP3    H148095   0.131   6.512   2.335  0.6387 -1.0543  1.3843
 8868TIP3    H248096   0.243   6.551   2.241 -0.7259  0.1682  0.2433
 8869TIP3   OH248097   6.637   3.338   4.059  0.3422  0.3125 -0.5940
 8869TIP3    H148098   6.655   3.245   4.049 -0.3831  0.0281  0.6144
 8869TIP3    H248099   6.723   3.379   4.067  0.6035 -0.6545  2.0998
 8870TIP3   OH248100   3.278   0.598  11.332  0.6187  0.3549 -0.4449
 8870TIP3    H148101   3.185   0.577  11.338  0.8120 -0.7209 -1.0702
 8870TIP3    H248102   3.285   0.687  11.365 -0.3679 -0.2263  1.4018
 8871TIP3   OH248103   3.639   0.334   3.470 -0.0200 -0.0352 -0.1467
 8871TIP3    H148104   3.685   0.251   3.458  0.4609  0.3861 -1.3051
 8871TIP3    H248105   3.671   0.389   3.399 -1.6981  0.5487 -0.4772
 8872TIP3   OH248106   5.309   4.952   1.998 -0.5506  0.8708  0.4017
 8872TIP3    H148107   5.299   4.857   1.992 -0.6850  0.7187  2.7563
 8872TIP3    H248108   5.241   4.980   2.059  0.2328  2.3498  0.6314
 8873TIP3   OH248109   1.945   2.552  15.708 -0.0676 -0.0523 -0.0029
 8873TIP3    H148110   1.958   2.486  15.776 -0.6029  0.4736  0.6294
 8873TIP3    H248111   1.987   2.516  15.630  0.7106 -0.5843  0.6557
 8874TIP3   OH248112   3.874   6.790  13.472  0.2823  0.5988  0.7959
 8874TIP3    H148113   3.851   6.883  13.474  1.7522  0.9501  2.3522
 8874TIP3    H248114   3.941   6.784  13.403 -1.4074  0.2683 -0.8786
 8875TIP3   OH248115   1.742   2.109  13.534  0.2141 -0.1339  0.0288
 8875TIP3    H148116   1.748   2.064  13.450  0.7282  0.0960 -0.0598
 8875TIP3    H248117   1.786   2.193  13.520 -1.0629  0.5589  0.0829
 8876TIP3   OH248118   0.633   5.507   2.702 -0.0272  0.0082  0.0932
 8876TIP3    H148119   0.673   5.463   2.627  1.3635  1.1578  0.1366
 8876TIP3    H248120   0.551   5.461   2.716  0.0742 -0.7356 -1.6385
 8877TIP3   OH248121   0.545   4.405   4.897 -0.3161 -0.4813  0.3108
 8877TIP3    H148122   0.563   4.321   4.939 -0.4214  0.7046  2.8640
 8877TIP3    H248123   0.455   4.426   4.923 -0.0488  0.7368  0.2730
 8878TIP3   OH248124   3.755   5.582  16.086 -0.1082  0.3330 -0.4602
 8878TIP3    H148125   3.733   5.660  16.136 -0.8519 -0.3337  0.2684
 8878TIP3    H248126   3.703   5.590  16.006 -0.7824  0.2031 -0.0380
 8879TIP3   OH248127   2.496   5.101   4.616  0.0265  0.0477 -0.0114
 8879TIP3    H148128   2.488   5.033   4.550 -0.9219  0.4835 -0.3530
 8879TIP3    H248129   2.416   5.094   4.668 -0.0001  0.7967  0.0543
 8880TIP3   OH248130   1.959   6.616  14.814 -0.1079 -0.1358  0.3518
 8880TIP3    H148131   1.988   6.532  14.778 -0.4424 -0.0781 -0.0589
 8880TIP3    H248132   1.867   6.602  14.836 -0.0463 -0.0077  0.6932
 8881TIP3   OH248133   2.398   3.113   3.491 -0.1933 -0.4479  0.2156
 8881TIP3    H148134   2.369   3.025   3.515 -0.2529 -0.0014  1.8445
 8881TIP3    H248135   2.494   3.107   3.491 -0.1993 -0.5487  0.2052
 8882TIP3   OH248136   3.023   3.278   2.468  0.1693  0.2103 -0.4827
 8882TIP3    H148137   2.988   3.362   2.439  1.2011  0.7649 -0.1450
 8882TIP3    H248138   2.973   3.212   2.419 -2.0959  0.9484  0.8221
 8883TIP3   OH248139   5.794   1.988   1.089  0.7516  0.6267  0.1718
 8883TIP3    H148140   5.881   1.992   1.049  0.9534 -1.1404  0.4094
 8883TIP3    H248141   5.736   1.961   1.018  1.1683 -2.8958  1.0609
 8884TIP3   OH248142   3.971   1.676  15.080 -0.3526  0.1679  0.5398
 8884TIP3    H148143   3.922   1.755  15.100 -1.7844 -0.6412  0.2681
 8884TIP3    H248144   4.063   1.702  15.087 -0.8172  1.7752  0.7117
 8885TIP3   OH248145   0.352   1.458   5.273 -0.5131 -0.0045 -0.1078
 8885TIP3    H148146   0.345   1.427   5.183 -1.7585  0.4415 -0.1734
 8885TIP3    H248147   0.446   1.462   5.290 -0.2817 -0.7715 -1.1452
 8886TIP3   OH248148   0.341   0.261  16.579  0.4603  0.0417 -0.0607
 8886TIP3    H148149   0.396   0.318  16.633  1.5474 -0.9117 -0.1473
 8886TIP3    H248150   0.398   0.189  16.554 -0.7099 -0.7445 -0.5233
 8887TIP3   OH248151   6.061   0.681  10.495 -0.4039  0.7078 -0.2395
 8887TIP3    H148152   6.152   0.677  10.523  0.5717  1.4961 -3.0835
 8887TIP3    H248153   6.029   0.766  10.526 -0.9964 -0.6371  2.9767
 8888TIP3   OH248154   6.124   4.070  11.930 -0.0370  0.1780 -0.9259
 8888TIP3    H148155   6.208   4.024  11.927  0.9535  1.8097  0.8859
 8888TIP3    H248156   6.129   4.133  11.859  0.4297  0.5214 -0.5911
 8889TIP3   OH248157   1.247   4.526  16.852 -0.5578 -0.1127 -0.2925
 8889TIP3    H148158   1.169   4.514  16.907 -0.1201 -2.3216 -0.0898
 8889TIP3    H248159   1.243   4.617  16.824 -3.1808 -0.1584 -0.2156
 8890TIP3   OH248160   0.032   0.759  15.359 -0.0113 -0.4915  0.1354
 8890TIP3    H148161  -0.011   0.683  15.320 -0.7141 -0.0555  0.0466
 8890TIP3    H248162  -0.037   0.801  15.411  0.9994 -1.2778  2.1539
 8891TIP3   OH248163   5.148   3.748  16.994 -0.2482  0.2083 -0.3307
 8891TIP3    H148164   5.150   3.835  16.953 -1.1552 -0.3850 -1.6703
 8891TIP3    H248165   5.240   3.723  17.002  0.0234  1.3631  0.2203
 8892TIP3   OH248166   0.372   4.328   2.471 -0.3184 -0.0077  0.0234
 8892TIP3    H148167   0.462   4.295   2.465 -0.6408 -0.7368 -0.8815
 8892TIP3    H248168   0.382   4.423   2.484  0.6018 -0.3128  1.6278
 8893TIP3   OH248169   3.574   2.532   2.141 -0.1470  0.0638  0.5907
 8893TIP3    H148170   3.483   2.501   2.141 -0.2479  0.3558  0.0724
 8893TIP3    H248171   3.576   2.600   2.074  0.4991 -0.0661  0.4778
 8894TIP3   OH248172   4.589   5.128   3.686 -0.0626  0.0780 -0.3466
 8894TIP3    H148173   4.616   5.042   3.716 -2.7785 -1.4603 -2.1003
 8894TIP3    H248174   4.664   5.163   3.639  0.7393 -1.6866 -0.3834
 8895TIP3   OH248175   0.529   2.364  14.402  0.3690  0.7409  0.1084
 8895TIP3    H148176   0.542   2.320  14.486  0.1064  0.5965  0.0720
 8895TIP3    H248177   0.453   2.322  14.364  1.8830 -0.7992 -1.2821
 8896TIP3   OH248178   2.082   0.017   3.678 -0.0377 -0.1444 -0.9769
 8896TIP3    H148179   2.125  -0.066   3.656  0.4067 -0.6647  1.7080
 8896TIP3    H248180   2.022  -0.005   3.749  0.4567  1.9110  0.1238
 8897TIP3   OH248181   1.411   5.678   5.131  1.0436  0.1629  0.4595
 8897TIP3    H148182   1.487   5.730   5.156  2.3082 -2.1193  1.5104
 8897TIP3    H248183   1.375   5.647   5.214 -1.8130  2.2524  0.0412
 8898TIP3   OH248184   6.690   6.627   0.139 -0.4781  0.5798 -0.3501
 8898TIP3    H148185   6.677   6.533   0.126  0.4520  0.5199 -0.9296
 8898TIP3    H248186   6.761   6.633   0.202 -0.3247  0.8889 -0.5462
 8899TIP3   OH248187   5.078   4.813   6.339 -0.3682 -0.1355  0.4990
 8899TIP3    H148188   5.098   4.813   6.432 -2.3100 -1.5039  0.9443
 8899TIP3    H248189   5.091   4.722   6.311 -1.9784 -0.2154 -0.0556
 8900TIP3   OH248190   2.631   1.663  12.773 -0.6113  0.7002  0.3435
 8900TIP3    H148191   2.711   1.713  12.790 -1.0905  1.3995  0.5600
 8900TIP3    H248192   2.614   1.675  12.680 -0.3866  0.4381  0.2683
 8901TIP3   OH248193   5.445   0.772  12.071  0.0492  0.4032  0.4761
 8901TIP3    H148194   5.363   0.812  12.044  1.2212  3.1191  0.7571
 8901TIP3    H248195   5.488   0.747  11.990 -0.8508 -0.6281  0.3119
 8902TIP3   OH248196   2.486   5.619   1.049  0.2958  0.3947  0.4134
 8902TIP3    H148197   2.431   5.691   1.081  1.7480  2.3103 -1.2536
 8902TIP3    H248198   2.427   5.544   1.047 -1.8079  1.9770  0.3293
 8903TIP3   OH248199   0.595   0.449  11.144 -0.1489  0.5439 -0.2464
 8903TIP3    H148200   0.599   0.421  11.053  1.8219 -2.1820  0.6065
 8903TIP3    H248201   0.596   0.545  11.139  0.9656  0.4452 -3.0567
 8904TIP3   OH248202   2.387   0.621  14.956  0.5760 -0.4772  0.3099
 8904TIP3    H148203   2.310   0.640  15.010 -0.3687 -0.7972 -0.9089
 8904TIP3    H248204   2.459   0.662  15.003 -0.4114  0.2742  1.2074
 8905TIP3   OH248205   5.708   4.322   5.046 -0.0980 -0.0797 -0.3552
 8905TIP3    H148206   5.785   4.347   4.995  1.7399 -1.6143  1.5593
 8905TIP3    H248207   5.742   4.259   5.110 -3.0273 -1.0915  0.2706
 8906TIP3   OH248208   3.039   2.647  11.842 -0.1300  0.2098  0.8697
 8906TIP3    H148209   3.107   2.711  11.862  1.0103 -0.6258 -0.2543
 8906TIP3    H248210   2.985   2.689  11.774 -1.2716  1.2062  2.3466
 8907TIP3   OH248211   5.466   6.097  15.482  0.5427  0.3152 -0.6855
 8907TIP3    H148212   5.434   6.067  15.398  0.8377 -0.6461 -0.4575
 8907TIP3    H248213   5.509   6.021  15.521 -0.4638  0.4647  0.7694
 8908TIP3   OH248214   5.208   1.676  12.743  0.5215 -0.0900  0.3752
 8908TIP3    H148215   5.283   1.665  12.802  0.7831 -0.6079 -0.0558
 8908TIP3    H248216   5.167   1.757  12.773  1.0736  0.0373  0.8093
 8909TIP3   OH248217   2.157   3.546   0.150 -0.5810  0.3848  0.3386
 8909TIP3    H148218   2.097   3.472   0.144 -0.2448 -0.1450  3.1478
 8909TIP3    H248219   2.104   3.622   0.125 -1.1988 -0.6133 -1.5271
 8910TIP3   OH248220   2.760   4.290   1.542 -0.1765 -0.8113 -0.0053
 8910TIP3    H148221   2.717   4.355   1.487 -0.8379 -0.7516  0.5739
 8910TIP3    H248222   2.801   4.340   1.612  0.5589 -0.8997 -0.3628
 8911TIP3   OH248223   2.942   5.041  11.574  0.1939  0.6560  0.0171
 8911TIP3    H148224   2.874   5.054  11.508  0.3922 -0.5349 -0.4219
 8911TIP3    H248225   3.021   5.019  11.525  0.5816  0.6990  0.6046
 8912TIP3   OH248226   4.982   6.749  15.582 -0.3675 -0.5434 -0.2007
 8912TIP3    H148227   4.905   6.706  15.620 -1.0296  1.0905  0.4012
 8912TIP3    H248228   5.056   6.717  15.634 -1.0432  0.2388  1.2994
 8913TIP3   OH248229   5.818   4.254   0.504  0.3165  0.4174 -0.4412
 8913TIP3    H148230   5.899   4.294   0.535  0.2684  1.5686 -1.7470
 8913TIP3    H248231   5.749   4.301   0.552  0.3613  0.1832 -0.1411
 8914TIP3   OH248232   3.964   5.081  15.374  0.4552 -0.2647 -0.5984
 8914TIP3    H148233   3.957   5.168  15.334  0.7127  0.1615  0.2872
 8914TIP3    H248234   3.936   5.021  15.304 -1.8314  0.6721 -0.5263
 8915TIP3   OH248235   2.947   0.249  11.748 -0.3924  0.3298  0.4062
 8915TIP3    H148236   3.013   0.314  11.770  0.3586 -0.2679 -0.0285
 8915TIP3    H248237   2.930   0.262  11.654  0.0421 -0.3406  0.2299
 8916TIP3   OH248238   5.677   4.148  14.297 -0.3323  0.6863 -0.3154
 8916TIP3    H148239   5.733   4.090  14.246 -1.8742 -0.3064 -0.9235
 8916TIP3    H248240   5.632   4.203  14.232  0.0711  1.6130  0.1730
 8917TIP3   OH248241   4.783   0.230   4.891 -0.3921 -0.5844 -0.0574
 8917TIP3    H148242   4.779   0.228   4.796 -2.7636 -0.5610  0.0103
 8917TIP3    H248243   4.776   0.323   4.914  1.4058 -0.4796  0.1150
 8918TIP3   OH248244   5.531   3.923   6.174 -0.4105 -0.4127  0.0343
 8918TIP3    H148245   5.456   3.954   6.224  0.3788 -0.6974  1.4211
 8918TIP3    H248246   5.575   3.861   6.232  1.3508  0.3524 -0.4394
 8919TIP3   OH248247   0.722   2.924   6.260  0.1727 -0.3697  0.2623
 8919TIP3    H148248   0.733   2.978   6.181  1.4151  0.8936  1.2672
 8919TIP3    H248249   0.699   2.987   6.328  2.3994 -0.9745  1.6382
 8920TIP3   OH248250   2.233   4.060   0.248  0.1992 -1.1028 -0.2251
 8920TIP3    H148251   2.281   3.990   0.292  0.4576 -0.7734  0.0181
 8920TIP3    H248252   2.213   4.025   0.161  1.6161 -0.9197 -0.6347
 8921TIP3   OH248253   2.944   3.441  16.326 -0.2272 -0.6724 -0.2858
 8921TIP3    H148254   2.978   3.390  16.400  0.5945 -0.9175 -0.8297
 8921TIP3    H248255   2.886   3.506  16.367  2.0889  0.7601  0.8025
 8922TIP3   OH248256   3.096   1.664  13.985 -0.4978  0.5574 -0.0472
 8922TIP3    H148257   3.111   1.608  14.061 -2.0262  2.0246  1.3574
 8922TIP3    H248258   3.118   1.609  13.910  4.1665  0.0491  1.5036
 8923TIP3   OH248259   0.375   3.806  15.969  0.6716  0.2341  0.2595
 8923TIP3    H148260   0.391   3.799  15.874 -0.7194  0.0461  0.0345
 8923TIP3    H248261   0.332   3.724  15.992  2.0604 -0.2193  1.2912
 8924TIP3   OH248262   5.693   0.528  12.817 -0.0050  0.0113 -0.6823
 8924TIP3    H148263   5.746   0.472  12.760  0.8650  0.5130 -0.3647
 8924TIP3    H248264   5.708   0.494  12.905  0.4189  0.6555 -0.5041
 8925TIP3   OH248265   0.421   6.093   1.805  0.3317  0.0979 -0.1480
 8925TIP3    H148266   0.468   6.142   1.738  1.1214  0.8919  0.9617
 8925TIP3    H248267   0.484   6.029   1.836 -0.6138 -1.4685 -1.4028
 8926TIP3   OH248268   2.968   1.843  12.133 -0.1861 -0.2591  0.0098
 8926TIP3    H148269   2.985   1.832  12.040  2.2735  1.5862  0.1611
 8926TIP3    H248270   2.899   1.909  12.138  2.1824  2.3609 -0.5230
 8927TIP3   OH248271   2.246   0.605  12.481  0.2474 -0.0166 -0.2744
 8927TIP3    H148272   2.276   0.566  12.399 -0.8466  0.6398 -0.9985
 8927TIP3    H248273   2.151   0.609  12.472  0.2850  2.2172  0.0604
 8928TIP3   OH248274   5.704   3.825   6.925  0.3890 -0.0629  0.2945
 8928TIP3    H148275   5.679   3.785   6.841  0.9661  2.0400 -0.9380
 8928TIP3    H248276   5.626   3.815   6.980  0.4646 -2.6563 -0.0103
 8929TIP3   OH248277   3.785   5.334  12.799  0.4537  0.3491  0.0222
 8929TIP3    H148278   3.809   5.243  12.817 -0.2081  0.1960  0.1522
 8929TIP3    H248279   3.806   5.346  12.706 -3.9326 -1.4263 -1.3275
 8930TIP3   OH248280   1.021   6.693   4.772 -0.1288 -0.0717 -0.1153
 8930TIP3    H148281   1.001   6.721   4.861 -0.4601 -0.1147 -0.1749
 8930TIP3    H248282   0.945   6.640   4.746 -0.2929  0.4080 -0.6239
 8931TIP3   OH248283   2.782   3.260   6.511 -0.2686  0.2950  0.0409
 8931TIP3    H148284   2.725   3.195   6.469 -0.2838  1.1235 -1.2399
 8931TIP3    H248285   2.870   3.223   6.503 -0.3781  0.0244  0.0830
 8932TIP3   OH248286   6.232   0.259  13.509 -0.2612  0.3629  0.4637
 8932TIP3    H148287   6.292   0.226  13.575 -1.4295 -0.4156  1.1618
 8932TIP3    H248288   6.284   0.318  13.455  0.3163  2.3437  3.1147
 8933TIP3   OH248289   3.403   2.455   0.016  0.8181 -0.1607  0.6092
 8933TIP3    H148290   3.456   2.393  -0.033 -0.0117 -1.1389  0.9206
 8933TIP3    H248291   3.313   2.422   0.007  0.5225  0.2996  1.7922
 8934TIP3   OH248292   5.316   3.880  16.711 -0.0569 -0.4788 -0.3351
 8934TIP3    H148293   5.237   3.913  16.754  0.4437 -0.8872  0.8953
 8934TIP3    H248294   5.286   3.853  16.624 -0.6433  2.4373 -1.1060
 8935TIP3   OH248295   1.210   1.458   4.038 -0.2737 -0.4437 -0.1725
 8935TIP3    H148296   1.158   1.384   4.008  1.0041 -0.3556 -2.6911
 8935TIP3    H248297   1.298   1.442   4.003  0.7865  0.7009  1.8533
 8936TIP3   OH248298   2.826   5.025   6.461  0.2402 -0.0297  0.1638
 8936TIP3    H148299   2.831   5.070   6.377  1.0533 -0.1773  0.1350
 8936TIP3    H248300   2.747   5.061   6.502 -1.2014 -1.2834 -1.4326
 8937TIP3   OH248301   3.869   1.506   3.432 -0.1387 -0.0731 -0.2391
 8937TIP3    H148302   3.953   1.464   3.449 -0.2132  0.5963  1.8060
 8937TIP3    H248303   3.877   1.593   3.469 -1.0167  0.7418 -1.8851
 8938TIP3   OH248304   4.262   4.579   2.744  0.5469  0.3445  0.0687
 8938TIP3    H148305   4.220   4.510   2.692 -0.1901  1.0679 -0.3112
 8938TIP3    H248306   4.218   4.574   2.829  2.1999 -1.2644  0.8496
 8939TIP3   OH248307   1.555   3.826   2.525 -0.3938 -0.0021 -0.2982
 8939TIP3    H148308   1.480   3.865   2.572  0.9288  1.3933  0.7131
 8939TIP3    H248309   1.531   3.833   2.433 -1.6991  0.0260  0.0231
 8940TIP3   OH248310   2.555   5.550   1.407 -0.1640  0.0208 -0.2640
 8940TIP3    H148311   2.486   5.615   1.423  0.6615  0.6999  0.6176
 8940TIP3    H248312   2.510   5.477   1.364 -1.5125  0.2784  0.6667
 8941TIP3   OH248313   0.663   2.137   3.051 -0.0632  0.0410  0.5037
 8941TIP3    H148314   0.736   2.166   3.106 -1.4883  1.0517  1.9094
 8941TIP3    H248315   0.585   2.175   3.093 -1.5223 -2.0488 -0.2584
 8942TIP3   OH248316   0.716   3.181  16.676 -0.8031 -0.1376  0.2512
 8942TIP3    H148317   0.667   3.257  16.706  0.8378  0.8224  0.5554
 8942TIP3    H248318   0.657   3.107  16.690 -1.0753  0.6119  3.3743
 8943TIP3   OH248319   2.376   6.299  11.874  0.2545  0.1284 -0.3303
 8943TIP3    H148320   2.363   6.206  11.857 -0.3540  0.4217 -1.4918
 8943TIP3    H248321   2.292   6.339  11.852  0.7683  1.0577 -0.6153
 8944TIP3   OH248322   6.464   5.083   6.823 -1.3647 -0.5062 -0.1285
 8944TIP3    H148323   6.481   5.146   6.893 -1.3799  2.3783 -2.6290
 8944TIP3    H248324   6.490   4.998   6.860  0.9063  1.2657  2.5120
 8945TIP3   OH248325   3.034   6.390  14.606  0.9210  0.3008 -0.3527
 8945TIP3    H148326   3.041   6.386  14.511  2.5958 -0.5979 -0.2117
 8945TIP3    H248327   3.108   6.443  14.633  0.9094 -0.1128  0.4991
 8946TIP3   OH248328   3.515   4.382   1.734  0.3587  0.2238 -0.3449
 8946TIP3    H148329   3.442   4.388   1.795  0.4025 -3.1234  0.1459
 8946TIP3    H248330   3.592   4.372   1.790  0.6039 -1.1753 -0.9185
 8947TIP3   OH248331   5.706   3.910   1.005  0.0649  0.1698  0.2378
 8947TIP3    H148332   5.655   3.846   1.055 -0.0623  0.9474  1.1381
 8947TIP3    H248333   5.733   3.975   1.071  0.7123  0.7043 -0.5456
 8948TIP3   OH248334   5.070   2.403   4.134  0.0193 -0.5715 -0.0893
 8948TIP3    H148335   5.130   2.477   4.124  0.8869 -1.4202 -1.3399
 8948TIP3    H248336   5.090   2.346   4.060 -2.2224 -0.9679 -0.4180
 8949TIP3   OH248337   4.854   3.982  15.195 -0.1656 -0.0376  0.4955
 8949TIP3    H148338   4.916   4.009  15.127 -0.4815 -0.2879  0.1045
 8949TIP3    H248339   4.908   3.960  15.270  0.0900  2.2620  1.0342
 8950TIP3   OH248340   3.053   5.733   3.824  0.1717  0.5416 -0.0765
 8950TIP3    H148341   3.033   5.690   3.741  2.1104  2.9919 -1.8869
 8950TIP3    H248342   3.006   5.681   3.889 -0.3708 -2.2151 -2.5210
 8951TIP3   OH248343   4.638   6.462  14.326 -0.0934 -0.6710 -0.2063
 8951TIP3    H148344   4.643   6.547  14.284  1.7178 -0.8287 -0.3612
 8951TIP3    H248345   4.667   6.477  14.416  2.2552 -1.4679 -0.7963
 8952TIP3   OH248346   2.496   2.981  13.973 -0.2321 -0.2431  0.0251
 8952TIP3    H148347   2.444   2.923  13.917  0.4329 -2.9242  2.0847
 8952TIP3    H248348   2.586   2.972  13.940 -0.5995  2.1835 -1.7220
 8953TIP3   OH248349   0.506   2.063   6.862  0.3939 -0.0129 -0.1425
 8953TIP3    H148350   0.495   2.158   6.864 -1.3513 -0.1668 -1.4286
 8953TIP3    H248351   0.582   2.049   6.805  1.0349  0.6215  0.5434
 8954TIP3   OH248352   0.100   3.996  13.796 -0.5184 -0.5135  0.1320
 8954TIP3    H148353   0.155   3.945  13.737 -1.2587 -1.3352  0.1465
 8954TIP3    H248354   0.162   4.050  13.846  0.1079  0.2476 -1.4323
 8955TIP3   OH248355   4.332   0.166   1.405  0.1069  0.0529 -0.6022
 8955TIP3    H148356   4.306   0.076   1.387 -0.7346  0.1843 -0.0779
 8955TIP3    H248357   4.379   0.161   1.488  1.1007 -0.0763 -1.1742
 8956TIP3   OH248358   0.872   1.740  12.298 -0.2642 -0.6221  0.5562
 8956TIP3    H148359   0.914   1.825  12.308  0.7832 -1.0795  0.2266
 8956TIP3    H248360   0.884   1.719  12.205 -0.5377 -1.1104  0.6297
 8957TIP3   OH248361   4.144   4.326  13.846  0.5913 -0.6393 -0.3982
 8957TIP3    H148362   4.169   4.246  13.893 -0.1261 -0.3868  0.4267
 8957TIP3    H248363   4.170   4.397  13.904 -1.5363 -0.3536  0.2747
 8958TIP3   OH248364   3.554   1.417  12.531 -0.0227  0.2634 -0.0411
 8958TIP3    H148365   3.542   1.336  12.481 -1.6003  0.9617 -0.8245
 8958TIP3    H248366   3.469   1.433  12.571  0.2982  1.5024  0.1545
 8959TIP3   OH248367   6.000   4.519   5.108  0.2603 -0.5918 -0.2547
 8959TIP3    H148368   5.977   4.459   5.038  2.2003 -0.3711 -1.1173
 8959TIP3    H248369   5.966   4.604   5.079  0.4825 -0.6262 -0.6148
 8960TIP3   OH248370   3.786   5.575  14.519  0.3752  0.4013  0.0699
 8960TIP3    H148371   3.691   5.581  14.517  0.2873 -1.0372 -0.5957
 8960TIP3    H248372   3.808   5.567  14.611 -0.0371  2.0755  0.3389
 8961TIP3   OH248373   3.344   5.684   1.429  0.2637 -0.0578  0.1522
 8961TIP3    H148374   3.359   5.711   1.519 -1.2141 -1.1136  0.7412
 8961TIP3    H248375   3.383   5.596   1.424  0.5651  0.1011 -0.3083
 8962TIP3   OH248376   6.404   6.427   1.522 -0.1527 -0.2511  0.3883
 8962TIP3    H148377   6.444   6.400   1.439 -0.7480 -0.8315  0.2911
 8962TIP3    H248378   6.387   6.521   1.510 -0.0579 -0.2879 -0.0713
 8963TIP3   OH248379   3.852   3.433   0.958 -0.0370 -0.3352 -0.1011
 8963TIP3    H148380   3.851   3.342   0.989  0.5669  0.0791  1.1524
 8963TIP3    H248381   3.942   3.463   0.973 -0.3511  0.6146 -0.0729
 8964TIP3   OH248382   1.319   1.534  12.054 -0.1360 -0.3931 -0.6582
 8964TIP3    H148383   1.298   1.540  12.147  2.3466  0.0770 -0.0851
 8964TIP3    H248384   1.289   1.447  12.027 -1.1584 -0.4061  0.4905
 8965TIP3   OH248385   4.867   2.898  13.420  0.0591 -0.2489 -0.0851
 8965TIP3    H148386   4.821   2.970  13.377  0.9749  0.4886  0.1557
 8965TIP3    H248387   4.809   2.871  13.491 -1.1232 -0.9732 -1.3167
 8966TIP3   OH248388   4.235   4.314   0.234  0.2524  0.7175 -0.2231
 8966TIP3    H148389   4.157   4.261   0.253  0.0668  1.1284  0.1550
 8966TIP3    H248390   4.241   4.314   0.139 -0.9996  1.8304 -0.3219
 8967TIP3   OH248391   6.398   1.379  11.267  0.3397 -0.0635 -0.0577
 8967TIP3    H148392   6.464   1.410  11.329 -1.2511  0.9776  1.1819
 8967TIP3    H248393   6.387   1.452  11.206  2.1569 -1.2242 -1.7979
 8968TIP3   OH248394   3.325   3.671  13.246  0.5614  0.5568 -0.4675
 8968TIP3    H148395   3.234   3.685  13.272  0.7045  0.2742  0.2070
 8968TIP3    H248396   3.342   3.579  13.266  1.2732  0.8412  0.3020
 8969TIP3   OH248397   5.316   2.883   4.365  0.6340 -0.4021  0.3487
 8969TIP3    H148398   5.299   2.860   4.456  2.5814  0.7556  1.0188
 8969TIP3    H248399   5.244   2.843   4.317 -0.9822 -0.1553  2.5026
 8970TIP3   OH248400   2.545   2.227   3.172  0.1198  0.0484 -0.5579
 8970TIP3    H148401   2.454   2.222   3.142  0.2354 -0.1379 -0.8809
 8970TIP3    H248402   2.587   2.288   3.111  0.0693  0.6010 -0.0447
 8971TIP3   OH248403   0.754   2.165   6.132 -0.0765 -0.4075  0.0788
 8971TIP3    H148404   0.666   2.199   6.116  0.6367  1.2643 -0.4582
 8971TIP3    H248405   0.767   2.177   6.226 -0.5570 -0.9974  0.2223
 8972TIP3   OH248406   4.477   5.092  15.331  0.3184 -0.0472 -0.0086
 8972TIP3    H148407   4.536   5.148  15.381 -1.1531  1.0989  0.4953
 8972TIP3    H248408   4.533   5.047  15.270  1.6959  1.1986  0.2987
 8973TIP3   OH248409   2.163   4.294  15.212  0.5226  0.1489 -0.1914
 8973TIP3    H148410   2.088   4.350  15.233 -0.8361 -1.4415 -0.7596
 8973TIP3    H248411   2.239   4.351  15.224 -0.7023  1.5043  1.3674
 8974TIP3   OH248412   6.363   3.757   0.836  0.3103 -0.3057 -0.8096
 8974TIP3    H148413   6.351   3.681   0.780  1.7321 -2.3747  1.5809
 8974TIP3    H248414   6.435   3.805   0.797  0.8490 -1.3606 -1.1304
 8975TIP3   OH248415   2.667   4.864  16.568 -0.6401 -0.5396  0.5716
 8975TIP3    H148416   2.698   4.775  16.581  0.0554 -0.5189 -0.8496
 8975TIP3    H248417   2.717   4.917  16.631 -1.1806 -1.1650  1.5349
 8976TIP3   OH248418   6.504   5.630  17.021  0.3889  0.0429 -0.2003
 8976TIP3    H148419   6.578   5.598  16.971  0.6566  2.1364 -1.1797
 8976TIP3    H248420   6.427   5.594  16.976  0.7281 -0.3870 -0.4372
 8977TIP3   OH248421   3.991   5.634   4.810  0.4412  0.2252  0.1700
 8977TIP3    H148422   4.079   5.629   4.775  0.5827 -0.1295  0.5738
 8977TIP3    H248423   3.935   5.598   4.741  0.5693  0.7898 -0.2318
 8978TIP3   OH248424   1.996   3.362   1.770  0.4388  0.3990  0.2748
 8978TIP3    H148425   1.925   3.413   1.731  0.7261  0.4276 -0.2277
 8978TIP3    H248426   2.034   3.420   1.836  0.1195  0.4568  0.4058
 8979TIP3   OH248427   3.343   1.115  12.789  0.5739 -0.2111 -0.5564
 8979TIP3    H148428   3.282   1.051  12.825  0.3259  0.0803 -0.4570
 8979TIP3    H248429   3.316   1.198  12.827  0.0917  0.1522 -1.7023
 8980TIP3   OH248430   2.748   6.176   2.860 -0.0418  0.2671  0.6779
 8980TIP3    H148431   2.720   6.091   2.825  1.6866 -0.6023  1.3368
 8980TIP3    H248432   2.694   6.240   2.814 -0.9501 -1.1480 -0.2733
 8981TIP3   OH248433   0.909   1.639  12.977  0.3584  0.2387  0.4863
 8981TIP3    H148434   0.910   1.649  12.882 -2.1605 -0.2113  0.3931
 8981TIP3    H248435   0.878   1.724  13.009  1.0843  0.3466  0.9263
 8982TIP3   OH248436   1.533   6.161   1.023 -0.4354 -0.0234 -0.1926
 8982TIP3    H148437   1.442   6.142   1.001 -0.2010  0.1920 -1.3635
 8982TIP3    H248438   1.549   6.249   0.988  0.3079 -0.1863 -0.2764
 8983TIP3   OH248439   2.444   6.563   2.390 -0.2482 -0.1157  0.3192
 8983TIP3    H148440   2.531   6.584   2.425 -0.0971 -0.9980  0.4961
 8983TIP3    H248441   2.390   6.638   2.413  0.3823  0.2780  0.5334
 8984TIP3   OH248442   3.241   1.932  14.062  0.1135 -0.2911 -0.4892
 8984TIP3    H148443   3.267   1.843  14.040  0.5092 -0.2080 -0.3512
 8984TIP3    H248444   3.178   1.956  13.994 -1.3785 -1.3287  0.4873
 8985TIP3   OH248445   0.391   0.281   6.315 -0.0419 -0.5093 -0.0771
 8985TIP3    H148446   0.343   0.346   6.366  0.5775 -0.3825  0.3407
 8985TIP3    H248447   0.450   0.240   6.377  1.3085  0.2108 -0.8699
 8986TIP3   OH248448   5.222   3.069  16.426  0.3940 -0.8053  0.5938
 8986TIP3    H148449   5.264   3.147  16.462  1.4599 -0.6114 -1.0164
 8986TIP3    H248450   5.128   3.084  16.437  0.6504  0.0192  1.6801
 8987TIP3   OH248451   1.567   2.618  10.951  0.5015 -0.4328  0.2418
 8987TIP3    H148452   1.525   2.575  11.025 -0.0065  0.0097  0.2170
 8987TIP3    H248453   1.523   2.582  10.874  1.2094 -1.0879  0.1367
 8988TIP3   OH248454   0.701   5.995   4.223 -0.5551  0.8598  0.2575
 8988TIP3    H148455   0.782   5.948   4.206 -2.0804 -1.2351 -1.4676
 8988TIP3    H248456   0.701   6.067   4.159 -1.1300 -0.5140 -1.3060
 8989TIP3   OH248457   6.249   6.758  10.924 -0.0551 -0.4033  0.0564
 8989TIP3    H148458   6.163   6.798  10.918  0.4800  0.7607 -0.0865
 8989TIP3    H248459   6.237   6.681  10.980 -0.7712  0.9734  1.8681
 8990TIP3   OH248460   5.110   1.090   5.851 -0.3070 -0.2209 -0.4713
 8990TIP3    H148461   5.187   1.064   5.799 -0.3325 -2.1469  0.4136
 8990TIP3    H248462   5.137   1.076   5.941 -1.0037  1.1117 -0.0453
 8991TIP3   OH248463   4.543   0.566  11.722  0.1415  0.2798 -0.1277
 8991TIP3    H148464   4.490   0.592  11.798  0.5238 -0.5423  0.4362
 8991TIP3    H248465   4.565   0.474  11.739  0.7557  0.2711 -0.9328
 8992TIP3   OH248466   0.052   6.559  13.673  0.3063 -0.0604  0.4282
 8992TIP3    H148467   0.118   6.619  13.706  0.3701  0.4163 -0.5540
 8992TIP3    H248468  -0.030   6.591  13.709  0.6037 -0.6881  1.7007
 8993TIP3   OH248469   3.231   4.784  16.841 -0.4230 -0.2286  0.1401
 8993TIP3    H148470   3.170   4.753  16.907 -1.3915  1.3724  0.0340
 8993TIP3    H248471   3.238   4.878  16.857 -0.3013  0.1040 -1.7140
 8994TIP3   OH248472   1.499   1.216  13.364  0.1704 -0.3220 -0.4585
 8994TIP3    H148473   1.575   1.269  13.341 -0.7556  0.9536 -0.6822
 8994TIP3    H248474   1.513   1.192  13.456  0.3605  0.7550 -0.1988
 8995TIP3   OH248475   1.239   3.359  16.019  0.0914  0.3503  0.1190
 8995TIP3    H148476   1.322   3.360  16.068  0.0951  1.6600  0.1112
 8995TIP3    H248477   1.184   3.423  16.064 -0.4614  0.4383 -0.6699
 8996TIP3   OH248478   3.902   6.431  16.729  0.7083  0.4944  0.3952
 8996TIP3    H148479   3.816   6.474  16.730  0.0909 -0.7728  1.7225
 8996TIP3    H248480   3.931   6.441  16.638 -0.8919  0.8236 -0.1123
 8997TIP3   OH248481   2.298   5.802  11.211 -0.1007 -0.3605  0.2558
 8997TIP3    H148482   2.297   5.859  11.134  0.3995  0.1793  0.6441
 8997TIP3    H248483   2.211   5.763  11.213 -0.9342  1.4694  0.7698
 8998TIP3   OH248484   4.744   0.550  14.797  0.0639  0.2146 -0.8981
 8998TIP3    H148485   4.731   0.551  14.702  0.2510 -0.7836 -0.9401
 8998TIP3    H248486   4.832   0.583  14.810  0.9345 -1.8781 -1.2466
 8999TIP3   OH248487   1.540   3.110  16.748  0.2044  1.0058  0.0191
 8999TIP3    H148488   1.596   3.033  16.742  0.2074  0.9290  0.9257
 8999TIP3    H248489   1.483   3.093  16.823 -0.3487  1.5249 -0.2760
 9000TIP3   OH248490   4.176   0.639  12.802  0.3368 -0.0094 -1.0417
 9000TIP3    H148491   4.231   0.594  12.866  1.2516  3.0568  0.4213
 9000TIP3    H248492   4.087   0.615  12.825  0.6591  1.1214  1.4532
 9001TIP3   OH248493   1.908   2.378   0.697 -0.8107 -0.3624  0.8194
 9001TIP3    H148494   1.896   2.406   0.788  1.7080 -1.3318  1.4727
 9001TIP3    H248495   2.002   2.385   0.681 -1.1461 -0.7771 -1.5374
 9002TIP3   OH248496   3.817   4.907   5.559 -0.2839 -0.0108 -0.2762
 9002TIP3    H148497   3.734   4.868   5.531 -1.1315  2.1817 -0.9322
 9002TIP3    H248498   3.882   4.838   5.545 -2.2434 -2.5227  2.2004
 9003TIP3   OH248499   3.200   5.393   2.305  0.0020  0.2710  0.1990
 9003TIP3    H148500   3.248   5.320   2.266  0.8574  1.7010 -1.5015
 9003TIP3    H248501   3.256   5.469   2.290 -2.1811  1.7675 -0.6102
 9004TIP3   OH248502   6.512   4.198  11.336  0.1832 -0.1048 -0.1987
 9004TIP3    H148503   6.492   4.110  11.304 -2.1200  0.0884  0.5962
 9004TIP3    H248504   6.559   4.240  11.264 -0.4361 -1.3329 -1.3323
 9005TIP3   OH248505   3.660   0.830   4.300  0.0660 -0.5736  0.6780
 9005TIP3    H148506   3.640   0.896   4.233  1.6651 -0.2458  0.4926
 9005TIP3    H248507   3.577   0.786   4.316 -0.0890 -1.5222 -2.4511
 9006TIP3   OH248508   2.106   4.973  15.499 -0.8339 -0.1868 -0.0587
 9006TIP3    H148509   2.155   4.897  15.470 -1.5160 -0.8797  0.5568
 9006TIP3    H248510   2.155   5.048  15.467  0.1581 -0.8820 -0.1671
 9007TIP3   OH248511   0.539   4.266   0.541  0.0414 -0.3783 -0.1250
 9007TIP3    H148512   0.615   4.300   0.588 -0.2982  0.7526 -0.3792
 9007TIP3    H248513   0.531   4.322   0.464 -1.3521 -0.1737  0.1553
 9008TIP3   OH248514   4.020   1.526  10.739 -0.5239 -0.1407 -0.3277
 9008TIP3    H148515   4.038   1.606  10.787 -1.5880  0.9709 -1.7389
 9008TIP3    H248516   3.924   1.523  10.730 -0.5162 -1.6613 -0.1222
 9009TIP3   OH248517   1.472   3.047  11.058  0.0402 -0.4495  0.5309
 9009TIP3    H148518   1.512   2.992  10.991  1.7535  0.6972  0.5724
 9009TIP3    H248519   1.543   3.107  11.085 -1.8270  1.9503  0.2629
 9010TIP3   OH248520   5.917   4.093   5.019 -0.3573  0.8040  0.2085
 9010TIP3    H148521   5.954   4.076   5.105  0.8045 -1.4764 -0.7147
 9010TIP3    H248522   5.979   4.152   4.977 -0.3814  1.0714  0.5493
 9011TIP3   OH248523   1.731   0.945   1.404  0.3056  0.4445  0.1763
 9011TIP3    H148524   1.750   0.922   1.495  0.4266 -1.2180 -0.2521
 9011TIP3    H248525   1.745   0.864   1.355  0.6452  1.4259 -1.3909
 9012TIP3   OH248526   5.929   0.091   5.236 -0.8593 -0.1765 -0.3889
 9012TIP3    H148527   5.942   0.019   5.174 -0.4190 -2.1413  1.9068
 9012TIP3    H248528   5.842   0.076   5.273 -1.4892  1.4882 -1.1164
 9013TIP3   OH248529   1.878   3.410  13.761  0.2955  0.6065 -0.2489
 9013TIP3    H148530   1.800   3.354  13.766  0.3709  0.5340  0.1589
 9013TIP3    H248531   1.844   3.499  13.758  0.1599  0.5311 -1.3189
 9014TIP3   OH248532   4.433   0.446   3.114  0.1293 -0.0807 -0.5667
 9014TIP3    H148533   4.515   0.396   3.120 -0.7876 -1.3103  2.5404
 9014TIP3    H248534   4.460   0.537   3.131  1.5613  0.3590 -4.6805
 9015TIP3   OH248535   5.037   0.667  14.763  0.1587  0.1839  0.0751
 9015TIP3    H148536   5.096   0.742  14.774  0.7626 -0.0144 -1.6806
 9015TIP3    H248537   5.081   0.595  14.810 -0.7260  1.0617  2.2937
 9016TIP3   OH248538   4.643   6.757  12.438 -0.3888  0.1862  0.0672
 9016TIP3    H148539   4.698   6.817  12.387  3.9662 -1.3056  2.6419
 9016TIP3    H248540   4.628   6.682  12.380  0.7985  0.4027 -0.5386
 9017TIP3   OH248541   4.786   2.086  10.647 -0.2231 -0.4293 -0.1325
 9017TIP3    H148542   4.748   2.170  10.672 -0.6678 -0.9048  0.8218
 9017TIP3    H248543   4.729   2.021  10.687 -1.0129 -1.2363 -2.4839
 9018TIP3   OH248544   3.121   0.022   1.591 -0.0824  0.1111 -0.2514
 9018TIP3    H148545   3.172  -0.035   1.648  0.9256  0.6166 -0.6340
 9018TIP3    H248546   3.053   0.059   1.648 -0.8943 -1.6241 -0.0528
 9019TIP3   OH248547   4.675   4.112   0.066 -0.0097  0.4141  0.0387
 9019TIP3    H148548   4.634   4.146  -0.013 -1.0768  1.3086  0.9586
 9019TIP3    H248549   4.624   4.149   0.138  0.2299 -1.2986  1.1318
 9020TIP3   OH248550   1.735   1.837  15.720 -0.1319  0.0938  0.3500
 9020TIP3    H148551   1.803   1.902  15.699  2.7073 -2.9044 -0.0936
 9020TIP3    H248552   1.660   1.862  15.667  0.6142  3.4157  0.7296
 9021TIP3   OH248553   2.132   0.886   5.977  0.3569 -1.2260 -0.3049
 9021TIP3    H148554   2.048   0.893   6.021 -0.0005 -0.4656 -1.0922
 9021TIP3    H248555   2.149   0.791   5.972 -0.6525 -1.3989 -0.5320
 9022TIP3   OH248556   4.447   4.302   0.937  0.2261  0.0035  0.1973
 9022TIP3    H148557   4.403   4.220   0.960  1.8804 -0.9449  0.0277
 9022TIP3    H248558   4.530   4.274   0.897 -0.2409  1.6945 -2.0586
 9023TIP3   OH248559   5.817   2.861   4.623  0.1764  0.2027  0.0271
 9023TIP3    H148560   5.865   2.802   4.681 -1.1812 -1.1340 -0.1700
 9023TIP3    H248561   5.864   2.857   4.540  2.1303  2.1241  0.9959
 9024TIP3   OH248562   1.959   0.037  15.650  0.3963  0.4010 -0.0038
 9024TIP3    H148563   1.882   0.057  15.703 -0.2512  0.3802 -0.9341
 9024TIP3    H248564   2.032   0.042  15.712 -0.4537 -0.6047  1.1031
 9025TIP3   OH248565   6.422   0.792   3.387  0.2556 -0.3479  0.4494
 9025TIP3    H148566   6.380   0.737   3.453  1.9689  0.7983  2.5270
 9025TIP3    H248567   6.467   0.730   3.330 -2.8470 -1.4950 -0.8935
 9026TIP3   OH248568   0.901   5.173   0.493  0.0429 -0.2783 -0.3337
 9026TIP3    H148569   0.860   5.112   0.555 -5.4742  2.0042 -1.4386
 9026TIP3    H248570   0.891   5.130   0.407  1.8140 -0.5494 -0.4195
 9027TIP3   OH248571   1.318   2.227   3.695 -0.3962 -0.2552  0.0785
 9027TIP3    H148572   1.366   2.206   3.615 -0.2060  0.4792 -0.0040
 9027TIP3    H248573   1.253   2.158   3.702  0.7748 -1.3684  0.2797
 9028TIP3   OH248574   2.862   5.892  13.367  0.3616 -0.4569  0.2546
 9028TIP3    H148575   2.904   5.813  13.400 -1.6910 -1.0225  1.6371
 9028TIP3    H248576   2.773   5.864  13.344  0.5586  0.7760 -2.1709
 9029TIP3   OH248577   1.920   6.693   4.526 -0.1378  0.6243  0.2989
 9029TIP3    H148578   1.835   6.650   4.517 -1.0824  1.9549  2.4874
 9029TIP3    H248579   1.943   6.719   4.437 -0.9052 -1.7645 -0.6519
 9030TIP3   OH248580   3.835   1.148  12.655 -0.2721 -0.4574  0.9579
 9030TIP3    H148581   3.746   1.113  12.653 -0.7350  0.7197  0.2423
 9030TIP3    H248582   3.834   1.214  12.724  0.0220 -0.3938  0.9032
 9031TIP3   OH248583   6.047   3.504  14.399  0.1399 -0.2019 -0.2799
 9031TIP3    H148584   6.078   3.474  14.485 -1.3542  1.2268  0.7745
 9031TIP3    H248585   6.125   3.540  14.356  0.8617 -0.7909  0.5245
 9032TIP3   OH248586   3.582   6.433  11.224  0.3115  0.1867 -0.2764
 9032TIP3    H148587   3.499   6.403  11.187  0.1436  1.3811 -0.9059
 9032TIP3    H248588   3.561   6.459  11.314 -0.1180  1.0147 -0.6133
 9033TIP3   OH248589   6.274   6.159  15.697  0.0046 -0.3545 -0.1635
 9033TIP3    H148590   6.324   6.198  15.625  1.4929 -1.8701  0.0399
 9033TIP3    H248591   6.223   6.089  15.656 -0.2567 -0.2696  0.0155
 9034TIP3   OH248592   4.286   3.450   6.401  0.1004  0.0732 -0.0375
 9034TIP3    H148593   4.382   3.444   6.407  0.0950 -1.8053 -1.5398
 9034TIP3    H248594   4.255   3.377   6.455 -0.5111  1.1073  1.0165
 9035TIP3   OH248595   1.169   4.711  12.980  0.5017 -0.3182 -0.2001
 9035TIP3    H148596   1.188   4.751  12.895  0.6753 -3.1585 -1.5881
 9035TIP3    H248597   1.091   4.658  12.964  0.4511 -0.7544  1.4508
 9036TIP3   OH248598   0.826   0.758   5.075  0.2673  0.1845  0.0987
 9036TIP3    H148599   0.822   0.667   5.103  0.2413  0.0792 -0.2445
 9036TIP3    H248600   0.908   0.790   5.110  0.0144  0.1857  0.6901
 9037TIP3   OH248601   4.658   1.536   2.166  0.2289 -0.9667  0.3726
 9037TIP3    H148602   4.725   1.475   2.197  0.8279  0.2458  1.5005
 9037TIP3    H248603   4.585   1.524   2.226 -0.0761 -1.3476 -0.0684
 9038TIP3   OH248604   6.007   2.992   2.417 -0.1023  0.0461  0.0299
 9038TIP3    H148605   5.970   2.928   2.357  1.0631 -0.3707 -0.2554
 9038TIP3    H248606   5.969   3.076   2.390  0.4598 -0.1304 -1.3299
 9039TIP3   OH248607   3.494   2.482   5.577 -0.2779 -0.0874 -0.0950
 9039TIP3    H148608   3.553   2.544   5.620 -1.1798  0.9871 -0.3823
 9039TIP3    H248609   3.529   2.396   5.600 -0.2896  0.4756  2.1228
 9040TIP3   OH248610   5.609   0.478   4.433 -0.3896  0.1655  0.0812
 9040TIP3    H148611   5.690   0.508   4.393 -0.2638  0.0359  0.2416
 9040TIP3    H248612   5.555   0.557   4.439  1.1414  1.0849  3.4556
 9041TIP3   OH248613   0.910   6.520  11.321 -0.2161 -0.0694 -0.0553
 9041TIP3    H148614   1.003   6.531  11.342 -0.6741  0.6421  1.6499
 9041TIP3    H248615   0.907   6.524  11.225  1.3932  0.7071 -0.0974
 9042TIP3   OH248616   2.988   2.692   4.986 -0.2311 -0.0208 -0.6609
 9042TIP3    H148617   2.987   2.780   5.024 -0.8648 -0.0243 -0.6629
 9042TIP3    H248618   3.071   2.687   4.939  1.1946 -0.4811  1.8291
 9043TIP3   OH248619   4.135   2.076   5.788 -0.6383 -0.3616  0.5609
 9043TIP3    H148620   4.177   2.095   5.704 -0.5956  0.1584  0.6977
 9043TIP3    H248621   4.045   2.054   5.765 -1.0520  1.3758  0.5240
 9044TIP3   OH248622   0.683   4.145   5.894  0.5334  0.6513 -0.1559
 9044TIP3    H148623   0.631   4.085   5.841  0.6214  2.0178 -1.8648
 9044TIP3    H248624   0.768   4.102   5.904  0.1653 -0.0925 -0.2273
 9045TIP3   OH248625   1.955   5.692   4.694 -0.0533  0.2016  0.1552
 9045TIP3    H148626   1.868   5.719   4.725  0.0243 -0.5492  1.0514
 9045TIP3    H248627   2.015   5.723   4.762  0.2621 -0.3103  0.1067
 9046TIP3   OH248628   6.356   0.457  13.939  0.1399 -0.3108 -0.4867
 9046TIP3    H148629   6.420   0.388  13.922  0.2227 -0.1939 -0.6377
 9046TIP3    H248630   6.282   0.436  13.881 -0.9630 -1.8180  1.3788
 9047TIP3   OH248631   3.654   6.271  14.299  0.3164  0.0907  0.3806
 9047TIP3    H148632   3.702   6.210  14.355  2.1897  0.5398 -0.7167
 9047TIP3    H248633   3.707   6.351  14.299 -0.0087  0.3235 -1.4854
 9048TIP3   OH248634   5.143   3.600  14.658 -0.5511 -0.0480  0.3192
 9048TIP3    H148635   5.158   3.645  14.575 -3.3681  1.1289  0.3740
 9048TIP3    H248636   5.170   3.509  14.641  1.1612  0.7044 -1.1226
 9049TIP3   OH248637   3.519   1.125  10.745 -0.3127 -0.3860  0.0057
 9049TIP3    H148638   3.537   1.219  10.757 -0.1786 -0.2729 -1.0422
 9049TIP3    H248639   3.544   1.107  10.654 -0.1980 -1.4769  0.2431
 9050TIP3   OH248640   3.848   3.178   3.256  0.1373 -0.1150 -0.2243
 9050TIP3    H148641   3.813   3.238   3.190  0.6012 -2.0380 -2.2843
 9050TIP3    H248642   3.933   3.215   3.279 -0.1623  0.7500 -0.4675
 9051TIP3   OH248643   4.090   4.716  16.866  0.1939 -0.4116 -0.3151
 9051TIP3    H148644   4.044   4.792  16.899  0.7360  0.2703 -1.0961
 9051TIP3    H248645   4.119   4.669  16.944 -1.3168 -0.5550  0.1750
 9052TIP3   OH248646   4.257   6.755   1.783 -0.2221 -0.2041 -0.4198
 9052TIP3    H148647   4.323   6.751   1.852 -0.0204 -0.8614 -0.6458
 9052TIP3    H248648   4.193   6.689   1.808  0.1166 -0.8077 -1.1306
 9053TIP3   OH248649   6.484   5.429   3.311 -0.3380 -0.1715  0.0731
 9053TIP3    H148650   6.474   5.522   3.329 -0.1497 -0.3846  1.4015
 9053TIP3    H248651   6.577   5.417   3.293  0.1989 -0.5141  2.7572
 9054TIP3   OH248652   4.805   4.531   4.903 -0.1309  0.1259 -0.5115
 9054TIP3    H148653   4.841   4.553   4.818  0.3171  0.7417 -0.1683
 9054TIP3    H248654   4.711   4.549   4.896 -0.2588 -0.8111 -1.1905
 9055TIP3   OH248655   4.887   4.636  16.094  0.0817  0.0593 -0.5970
 9055TIP3    H148656   4.971   4.607  16.131  0.4058  1.1527 -0.4585
 9055TIP3    H248657   4.821   4.587  16.143  0.4696  1.8425  1.8171
 9056TIP3   OH248658   1.558   0.696  14.398 -0.0414  0.2529  0.0942
 9056TIP3    H148659   1.528   0.621  14.347  3.3993 -0.9251 -0.3880
 9056TIP3    H248660   1.512   0.689  14.481 -2.4233 -0.3335 -1.2427
 9057TIP3   OH248661   0.454   4.044  15.441 -0.2869 -0.6154 -0.6192
 9057TIP3    H148662   0.498   4.069  15.360 -0.1683  1.5173  0.0801
 9057TIP3    H248663   0.368   4.013  15.413 -0.3281  0.3177 -1.5443
 9058TIP3   OH248664   1.176   1.804  13.286  0.6004  0.5345 -0.8461
 9058TIP3    H148665   1.204   1.760  13.206 -0.7911  0.4011 -1.2701
 9058TIP3    H248666   1.103   1.859  13.259 -0.1030  0.2342  0.3934
 9059TIP3   OH248667   2.688   6.242   0.322  0.4216  0.0316  0.6525
 9059TIP3    H148668   2.698   6.318   0.379 -2.1580  0.1577  0.9951
 9059TIP3    H248669   2.673   6.280   0.235  1.0499 -0.1148  0.4795
 9060TIP3   OH248670   4.066   2.985  16.396 -0.5977  0.2581  0.2176
 9060TIP3    H148671   3.984   2.988  16.348 -2.2630 -0.6759  2.8601
 9060TIP3    H248672   4.047   3.031  16.478  1.5042 -0.0006  0.8705
 9061TIP3   OH248673   4.624   5.093   4.013 -0.3618  0.2833 -0.5412
 9061TIP3    H148674   4.624   5.188   4.028 -1.7212  0.2371 -0.2085
 9061TIP3    H248675   4.682   5.059   4.081 -0.2296  0.8265 -0.3755
 9062TIP3   OH248676   0.086   5.060   6.822 -0.1821  0.0795  0.2036
 9062TIP3    H148677   0.096   4.966   6.811  0.8097  0.1047  0.8174
 9062TIP3    H248678   0.002   5.081   6.780 -0.4639 -1.0895  0.1806
 9063TIP3   OH248679   1.671   4.422   4.958 -0.7301  0.3278 -0.3566
 9063TIP3    H148680   1.667   4.367   4.880 -0.1844 -0.6233  0.2693
 9063TIP3    H248681   1.604   4.489   4.944  0.1437  0.8363 -2.1360
 9064TIP3   OH248682   1.830   2.758   4.645 -0.6015 -0.7253 -0.0763
 9064TIP3    H148683   1.914   2.720   4.672 -1.1933 -1.9738  0.0322
 9064TIP3    H248684   1.784   2.686   4.602 -1.3659  0.1275 -0.7102
 9065TIP3   OH248685   0.514   4.139  11.931  0.4020 -0.0464 -0.3848
 9065TIP3    H148686   0.547   4.186  12.007 -1.3244  0.4057  0.1094
 9065TIP3    H248687   0.527   4.046  11.953 -0.2825  0.0715  0.5638
 9066TIP3   OH248688   3.546   4.095  14.923  0.0536 -0.1039 -0.2976
 9066TIP3    H148689   3.461   4.112  14.883 -0.4947  0.6133  1.1215
 9066TIP3    H248690   3.559   4.000  14.914  0.2068  0.1327 -2.6236
 9067TIP3   OH248691   5.549   4.827  13.794 -0.3592 -0.1618 -0.0808
 9067TIP3    H148692   5.483   4.785  13.739 -0.6052 -1.2538  1.0229
 9067TIP3    H248693   5.526   4.920  13.792 -0.3306 -0.1818 -1.8400
 9068TIP3   OH248694   4.095   6.014   2.814 -0.1822 -0.5294  0.1634
 9068TIP3    H148695   4.051   6.099   2.817  2.6739  0.9889  1.1545
 9068TIP3    H248696   4.049   5.960   2.878 -0.4187  1.1103  1.3945
 9069TIP3   OH248697   3.004   3.936   0.392 -0.0622 -0.0206  0.1232
 9069TIP3    H148698   2.917   3.896   0.393 -0.0157 -0.1301  2.5703
 9069TIP3    H248699   3.010   3.978   0.306 -1.8324 -1.4981 -0.7597
 9070TIP3   OH248700   3.290   5.317  16.993 -0.0082  0.0380  0.6590
 9070TIP3    H148701   3.372   5.364  16.978  0.6203 -0.9155  0.9972
 9070TIP3    H248702   3.249   5.362  17.067 -0.5212  1.4495 -0.4804
 9071TIP3   OH248703   6.312   4.379  14.118 -0.4345 -0.1654  0.1065
 9071TIP3    H148704   6.315   4.359  14.212  2.8949 -0.2384  0.0233
 9071TIP3    H248705   6.270   4.302  14.079  0.1703 -1.1115  1.2820
 9072TIP3   OH248706   1.563   6.688   2.514 -0.1056 -0.4511  0.1097
 9072TIP3    H148707   1.593   6.598   2.528  4.2022  0.9885  0.8692
 9072TIP3    H248708   1.597   6.712   2.428 -0.1320  0.8407  0.4451
 9073TIP3   OH248709   3.504   2.019  13.060 -0.4616 -0.3806  0.3956
 9073TIP3    H148710   3.441   2.059  13.119 -0.8171 -2.1161  1.2379
 9073TIP3    H248711   3.515   2.082  12.989 -0.5358  1.4313  1.9759
 9074TIP3   OH248712   3.154   3.294   4.837  0.2435 -0.0585 -0.2102
 9074TIP3    H148713   3.240   3.283   4.797 -0.0973 -0.1192 -0.9302
 9074TIP3    H248714   3.169   3.355   4.910  0.7960  0.3493 -0.6593
 9075TIP3   OH248715   5.879   0.534   3.042 -0.1511  0.6557  0.4017
 9075TIP3    H148716   5.939   0.601   3.010  0.3644  1.0640  2.1346
 9075TIP3    H248717   5.936   0.472   3.089 -0.9389  0.4357  1.0807
 9076TIP3   OH248718   4.130   3.662  15.499  0.2103 -0.2718 -0.6175
 9076TIP3    H148719   4.156   3.696  15.585  0.2330 -1.0681 -0.3017
 9076TIP3    H248720   4.083   3.734  15.458 -0.9239 -0.3141  0.5850
 9077TIP3   OH248721   1.327   5.483  17.256 -0.2204  0.1289 -0.1550
 9077TIP3    H148722   1.362   5.402  17.295  0.2461  0.0005 -0.8318
 9077TIP3    H248723   1.404   5.537  17.241 -0.2664 -0.2664 -1.9133
 9078TIP3   OH248724   3.937   6.538   0.584  0.3319  0.1169 -0.4648
 9078TIP3    H148725   3.978   6.622   0.565 -0.2223  0.9169  1.6870
 9078TIP3    H248726   3.845   6.559   0.599  0.2584 -0.7973  0.4374
 9079TIP3   OH248727   4.489   1.261  12.962  0.0351 -0.6764 -0.5235
 9079TIP3    H148728   4.579   1.292  12.972  0.0340 -0.5038 -1.0419
 9079TIP3    H248729   4.441   1.338  12.930 -0.6508 -0.2728  1.4226
 9080TIP3   OH248730   2.331   5.704  14.261  0.0593  0.5373 -0.0244
 9080TIP3    H148731   2.409   5.703  14.317 -0.4858 -0.1708  0.7264
 9080TIP3    H248732   2.359   5.750  14.182  1.3138  0.0687  0.1376
 9081TIP3   OH248733   0.707   5.564  14.169  0.1882  0.4202  0.6124
 9081TIP3    H148734   0.789   5.586  14.126  0.0953  1.4190  0.9356
 9081TIP3    H248735   0.648   5.637  14.149 -0.6864 -0.3707  0.2262
 9082TIP3   OH248736   4.559   6.166  15.334  0.0183  0.6463 -0.1471
 9082TIP3    H148737   4.529   6.113  15.261  0.6928 -1.7669  1.2934
 9082TIP3    H248738   4.498   6.147  15.405  1.1403  0.6270  0.8331
 9083TIP3   OH248739   3.251   6.352  15.074  0.4106  0.3478  0.0827
 9083TIP3    H148740   3.161   6.318  15.065  0.1581  0.8756  0.5898
 9083TIP3    H248741   3.303   6.298  15.014 -0.1255 -0.4210  0.3005
 9084TIP3   OH248742   5.735   0.121  13.877  0.3347  0.1500  0.0259
 9084TIP3    H148743   5.797   0.183  13.917  0.8093 -1.2785  1.5538
 9084TIP3    H248744   5.790   0.064  13.823  0.4871 -1.5362  1.8970
 9085TIP3   OH248745   1.789   1.962   2.075  0.5674 -0.0950 -0.1499
 9085TIP3    H148746   1.705   1.916   2.070  0.6723 -0.3594  0.5723
 9085TIP3    H248747   1.766   2.055   2.070  0.3908 -0.2194 -2.1563
 9086TIP3   OH248748   0.685   1.942  15.726 -0.0695 -0.5331  0.0232
 9086TIP3    H148749   0.641   1.966  15.808 -0.5043 -0.3600 -0.2641
 9086TIP3    H248750   0.727   1.858  15.747 -2.1848 -1.7141 -0.2880
 9087TIP3   OH248751   1.261   0.305  13.398 -0.4593 -0.0563 -0.2730
 9087TIP3    H148752   1.301   0.344  13.320 -1.8371  0.0590 -0.9272
 9087TIP3    H248753   1.202   0.238  13.364 -0.2162 -0.7932  0.7258
 9088TIP3   OH248754   2.917   6.279   5.708  0.0025 -0.0830 -0.6538
 9088TIP3    H148755   2.874   6.193   5.708 -0.6702  0.2475  0.4806
 9088TIP3    H248756   2.897   6.316   5.794  2.8404 -0.0549  0.0544
 9089TIP3   OH248757   6.430   3.871   3.304 -0.0132  0.0842  0.0243
 9089TIP3    H148758   6.458   3.962   3.315  2.6536 -0.7874  0.9025
 9089TIP3    H248759   6.481   3.840   3.229 -1.8510 -0.3650 -1.0815
 9090TIP3   OH248760   2.608   3.806  11.385 -1.1087 -0.6995  0.5254
 9090TIP3    H148761   2.672   3.873  11.360 -1.5185 -1.2245 -2.0556
 9090TIP3    H248762   2.659   3.740  11.432 -0.3616  0.4839  1.3976
 9091TIP3   OH248763   5.311   1.985  12.466 -0.7872 -0.5197  0.3183
 9091TIP3    H148764   5.305   1.901  12.419 -0.0054  0.5482 -1.7599
 9091TIP3    H248765   5.365   1.966  12.543 -0.4581 -1.8813 -0.2388
 9092TIP3   OH248766   6.566   5.058  11.297  0.4519  0.1270 -0.5572
 9092TIP3    H148767   6.517   4.989  11.254  1.0791 -0.0803 -0.9422
 9092TIP3    H248768   6.511   5.136  11.287 -0.6287 -0.4753  0.5867
 9093TIP3   OH248769   6.804   0.080   1.987  0.1516  0.2166 -0.6872
 9093TIP3    H148770   6.890   0.089   2.026  0.0853 -2.1476  0.0866
 9093TIP3    H248771   6.743   0.117   2.051  0.3859 -0.1892 -0.2334
 9094TIP3   OH248772   5.495   5.981  14.521  0.4574  0.2265 -0.0277
 9094TIP3    H148773   5.571   5.943  14.475 -0.8690 -1.3375 -0.9912
 9094TIP3    H248774   5.430   5.994  14.452 -0.2784  1.2455  0.8520
 9095TIP3   OH248775   6.268   2.119  13.524 -0.3776  0.4505  0.1933
 9095TIP3    H148776   6.242   2.207  13.497 -1.0095  0.7749  1.8043
 9095TIP3    H248777   6.362   2.126  13.540 -0.1274  0.4286 -1.1946
 9096TIP3   OH248778   0.154   1.248  12.494 -0.1573 -0.2861  0.1131
 9096TIP3    H148779   0.237   1.231  12.451 -0.0973 -1.2650  0.6095
 9096TIP3    H248780   0.158   1.197  12.575 -0.9650  0.1901  0.4621
 9097TIP3   OH248781   1.971   5.354  13.083 -0.5425 -0.2240 -0.3796
 9097TIP3    H148782   2.034   5.287  13.054  0.5377  0.2225  0.9254
 9097TIP3    H248783   1.971   5.348  13.178 -0.6203  1.4679 -0.2576
 9098TIP3   OH248784   1.129   1.460  15.987  0.2316 -0.3121  0.1919
 9098TIP3    H148785   1.151   1.418  16.070  0.3217 -0.9089 -0.1326
 9098TIP3    H248786   1.195   1.529  15.977  0.8607 -0.9246  0.1034
 9099TIP3   OH248787   2.001   0.835  16.336  0.1342 -0.4634 -0.0261
 9099TIP3    H148788   1.953   0.888  16.399 -0.7092  0.1360 -1.1603
 9099TIP3    H248789   2.088   0.874  16.333 -0.9224  1.9044 -2.0174
 9100TIP3   OH248790   1.590   4.305  12.385  0.8811 -0.2424 -0.3337
 9100TIP3    H148791   1.527   4.372  12.360  1.6035  0.2936 -0.7484
 9100TIP3    H248792   1.638   4.285  12.305 -0.2083 -2.2317 -0.5147
 9101TIP3   OH248793   4.048   5.731  13.106  0.1756  0.4907 -0.3006
 9101TIP3    H148794   3.969   5.749  13.158  0.8139  0.2497  0.7698
 9101TIP3    H248795   4.019   5.738  13.015 -1.2083 -0.1374  0.0813
 9102TIP3   OH248796   0.310   6.505  15.751 -0.4989 -0.3672 -0.0235
 9102TIP3    H148797   0.359   6.548  15.821  2.7066 -0.9929 -1.7865
 9102TIP3    H248798   0.289   6.418  15.786 -1.8605  0.4871  1.3548
 9103TIP3   OH248799   4.156   0.412  11.311 -0.1871  0.8534  0.0495
 9103TIP3    H148800   4.112   0.497  11.318  0.9152  1.4641 -0.2604
 9103TIP3    H248801   4.249   0.433  11.319  0.0723 -0.3802  0.3981
 9104TIP3   OH248802   6.010   5.714  14.228 -0.0954 -0.3755 -0.9628
 9104TIP3    H148803   6.060   5.643  14.186 -0.3897 -0.5389 -1.0403
 9104TIP3    H248804   5.932   5.724  14.173 -0.3071 -0.3437 -0.6604
 9105TIP3   OH248805   6.642   0.373  15.795 -0.0502  0.4032  0.2389
 9105TIP3    H148806   6.599   0.422  15.865 -0.7950 -0.6211  0.5001
 9105TIP3    H248807   6.721   0.424  15.776  0.6968  0.1668  2.5230
 9106TIP3   OH248808   0.764   0.454   6.457 -0.3105  0.1627 -0.1555
 9106TIP3    H148809   0.675   0.466   6.425 -0.1633  2.1348  0.1142
 9106TIP3    H248810   0.817   0.515   6.405  1.1372 -2.1100 -1.4063
 9107TIP3   OH248811   4.366   1.396   4.502  0.1281 -0.2106  0.2120
 9107TIP3    H148812   4.408   1.474   4.537  0.8388  0.3484 -1.7836
 9107TIP3    H248813   4.304   1.369   4.570  2.8333 -0.3648  2.7087
 9108TIP3   OH248814   3.304   2.433   5.378  0.2925  0.0621  0.2925
 9108TIP3    H148815   3.380   2.453   5.433 -1.1169  1.3369  1.8418
 9108TIP3    H248816   3.241   2.503   5.397 -1.6567 -1.4980 -0.1875
 9109TIP3   OH248817   1.046   3.547   3.170 -0.2378  0.0434  0.2244
 9109TIP3    H148818   0.972   3.605   3.187 -0.3533 -0.3150  0.9692
 9109TIP3    H248819   1.076   3.572   3.083 -1.7941 -0.4127 -0.4532
 9110TIP3   OH248820   5.242   2.382   4.672 -0.0115 -0.1286 -0.2755
 9110TIP3    H148821   5.184   2.332   4.614  0.9549 -0.5768 -0.8722
 9110TIP3    H248822   5.317   2.324   4.686 -0.5221 -0.2638  1.9510
 9111TIP3   OH248823   2.473   3.834  12.271  0.2719  0.5482  0.0793
 9111TIP3    H148824   2.424   3.900  12.320  0.6730 -0.3041  1.6608
 9111TIP3    H248825   2.450   3.751  12.313  0.8447 -0.1660 -1.0071
 9112TIP3   OH248826   5.478   1.623   5.164 -0.0315  0.1267  0.2134
 9112TIP3    H148827   5.463   1.535   5.197  1.8392 -0.2033  0.2749
 9112TIP3    H248828   5.458   1.680   5.238 -0.0973 -0.3244  0.5456
 9113TIP3   OH248829   2.450   5.108  13.877  0.0929 -0.5678 -0.5119
 9113TIP3    H148830   2.366   5.069  13.854 -0.4572  0.8538 -0.9818
 9113TIP3    H248831   2.493   5.042  13.932 -1.7744 -0.8641  0.6395
 9114TIP3   OH248832   1.979   2.499  12.194  0.0948 -0.4842 -0.2283
 9114TIP3    H148833   1.913   2.568  12.192  1.3192  0.7160 -0.0100
 9114TIP3    H248834   1.954   2.444  12.268 -1.1623 -0.5643 -0.6959
 9115TIP3   OH248835   0.946   2.266  17.273 -0.4317 -0.6169  0.4842
 9115TIP3    H148836   0.985   2.318  17.344 -0.4084 -0.1950  0.1675
 9115TIP3    H248837   0.853   2.265  17.292 -0.7942  1.7956 -0.9283
 9116TIP3   OH248838   2.680   5.233   1.366 -0.0616  0.1098 -0.5595
 9116TIP3    H148839   2.647   5.161   1.420  3.2046 -0.7250  0.4543
 9116TIP3    H248840   2.606   5.256   1.309 -1.3833 -3.6730 -0.5476
 9117TIP3   OH248841   3.486   0.527  12.839 -0.1769  0.6449  0.5800
 9117TIP3    H148842   3.492   0.593  12.770  2.2793  0.2373  0.3515
 9117TIP3    H248843   3.435   0.456  12.800 -2.0306  1.9623  0.5088
 9118TIP3   OH248844   3.296   2.200   4.805  0.4711 -0.6507 -0.0919
 9118TIP3    H148845   3.201   2.192   4.796  0.6527 -1.9185 -1.1043
 9118TIP3    H248846   3.327   2.110   4.813  1.6639 -0.2960 -0.6022
 9119TIP3   OH248847   3.386   4.295   2.978  0.2325 -0.1592  0.1657
 9119TIP3    H148848   3.304   4.258   3.010 -0.3900  0.9739 -0.1043
 9119TIP3    H248849   3.368   4.388   2.966  1.3805 -0.0035 -0.4739
 9120TIP3   OH248850   4.476   0.577   4.515 -0.2832 -0.1405  0.0876
 9120TIP3    H148851   4.413   0.637   4.475  0.0075  0.1540  0.0668
 9120TIP3    H248852   4.512   0.626   4.589  0.4432 -0.0435 -0.3284
 9121TIP3   OH248853   5.048   2.245  14.395  0.1352  0.1394  0.4203
 9121TIP3    H148854   4.959   2.212  14.395 -1.2260  3.5192 -0.8436
 9121TIP3    H248855   5.090   2.200  14.322 -0.4342 -1.6681  1.1885
 9122TIP3   OH248856   2.444   4.124  14.572 -0.1858 -0.0250  0.6959
 9122TIP3    H148857   2.393   4.047  14.594  0.2491  0.0332  1.9914
 9122TIP3    H248858   2.449   4.173  14.655 -0.7941  1.5837 -0.1931
 9123TIP3   OH248859   1.617   2.580  15.073 -0.4398  0.2123  0.1518
 9123TIP3    H148860   1.574   2.663  15.097 -0.2331  0.1171  0.8636
 9123TIP3    H248861   1.643   2.592  14.982  0.0826  1.1441  0.4128
 9124TIP3   OH248862   2.723   6.673   4.836 -0.6197 -0.5505 -0.5225
 9124TIP3    H148863   2.651   6.655   4.897 -0.3319 -0.0395 -0.0194
 9124TIP3    H248864   2.802   6.649   4.885 -0.5384 -2.7094 -1.6800
 9125TIP3   OH248865   6.620   5.652  11.911  0.3537 -0.7735  0.2770
 9125TIP3    H148866   6.635   5.681  11.821  1.3634  0.1465  0.7342
 9125TIP3    H248867   6.682   5.580  11.923  0.0113 -1.0900  0.1341
 9126TIP3   OH248868   0.855   1.909   2.732 -0.0891  0.2402 -0.7101
 9126TIP3    H148869   0.773   1.958   2.741 -0.4589 -0.3726 -0.7333
 9126TIP3    H248870   0.919   1.961   2.781 -0.7033  0.2124  0.1370
 9127TIP3   OH248871   6.817   5.124   5.808  0.0666 -0.7554 -0.4257
 9127TIP3    H148872   6.813   5.032   5.782  1.4176 -0.4332 -1.7990
 9127TIP3    H248873   6.774   5.171   5.736  0.9025 -0.1603 -0.5398
 9128TIP3   OH248874   2.019   6.514  15.318  0.0219  0.5076 -0.0808
 9128TIP3    H148875   2.062   6.501  15.234 -1.5658 -0.9667 -0.7084
 9128TIP3    H248876   2.079   6.476  15.382  1.3557  1.8688 -0.4882
 9129TIP3   OH248877   6.177   4.508  11.883  0.1715  0.1586 -1.0090
 9129TIP3    H148878   6.111   4.490  11.950  0.2642  2.2414 -0.3145
 9129TIP3    H248879   6.211   4.422  11.859  0.4828 -0.6326  1.9704
 9130TIP3   OH248880   3.452   6.007  13.435  0.0336  0.2533 -0.0387
 9130TIP3    H148881   3.528   6.042  13.388 -0.1654 -0.2544 -0.7409
 9130TIP3    H248882   3.417   5.939  13.377 -1.0731  0.6189  0.1945
 9131TIP3   OH248883   1.012   2.623   1.137 -0.4804 -0.2382  0.3226
 9131TIP3    H148884   1.103   2.618   1.168  0.0500 -1.1234 -1.3032
 9131TIP3    H248885   0.994   2.716   1.132  0.4647 -0.0447  0.3226
 9132TIP3   OH248886   5.609   0.805   4.268  0.0845 -0.4302 -0.1877
 9132TIP3    H148887   5.632   0.859   4.344 -1.7210  2.3495 -1.5390
 9132TIP3    H248888   5.540   0.747   4.300 -1.5727  1.5926  0.0347
 9133TIP3   OH248889   2.672   6.716  11.355 -0.0475 -0.0726  0.2427
 9133TIP3    H148890   2.680   6.756  11.269  1.2205 -0.4910  0.1503
 9133TIP3    H248891   2.698   6.625  11.341 -1.8571 -0.6868  0.6594
 9134TIP3   OH248892   1.986   1.853  12.373  0.1747  0.5573  0.7680
 9134TIP3    H148893   2.040   1.779  12.400  0.9725  1.5329  1.9035
 9134TIP3    H248894   1.944   1.882  12.454 -0.3381  1.1754  0.2810
 9135TIP3   OH248895   0.865   0.510  12.961  0.3105 -0.9163 -0.1448
 9135TIP3    H148896   0.910   0.547  13.037 -0.7696 -0.6288  0.3643
 9135TIP3    H248897   0.850   0.585  12.904  0.0805 -0.9376 -0.1114
 9136TIP3   OH248898   5.554   4.491   0.335  0.0312  0.2452 -0.0493
 9136TIP3    H148899   5.637   4.537   0.345 -0.0455 -0.0502  2.0897
 9136TIP3    H248900   5.515   4.491   0.423 -2.0048 -0.0496 -0.9111
 9137TIP3   OH248901   2.826   0.563   1.377  0.2374 -0.0008 -0.8288
 9137TIP3    H148902   2.740   0.600   1.358  0.6609  1.5686  0.1847
 9137TIP3    H248903   2.839   0.495   1.311 -1.5505  0.1018 -1.3034
 9138TIP3   OH248904   5.880   3.871   2.881  0.4038  0.3582 -0.0234
 9138TIP3    H148905   5.838   3.891   2.798  0.9449  1.7934  0.0406
 9138TIP3    H248906   5.887   3.955   2.926 -0.9478 -0.5677  1.9859
 9139TIP3   OH248907   0.587   3.364  12.319  0.6919 -0.2084 -0.2680
 9139TIP3    H148908   0.633   3.411  12.249  0.1781 -0.9084 -1.0818
 9139TIP3    H248909   0.494   3.377  12.301  0.5519  0.0120  0.5703
 9140TIP3   OH248910   2.759   4.656  13.315  0.0120  0.3577  0.1463
 9140TIP3    H148911   2.735   4.578  13.366  2.6423 -0.1308  0.6883
 9140TIP3    H248912   2.758   4.728  13.379 -0.0765  0.3549  0.1469
 9141TIP3   OH248913   0.033   4.396  16.414 -0.1700 -0.3945  0.0736
 9141TIP3    H148914   0.117   4.442  16.421 -0.3484  0.0302 -0.5297
 9141TIP3    H248915   0.057   4.304  16.404  0.1905 -0.4331  1.2746
 9142TIP3   OH248916   2.784   0.355   0.479 -0.2832 -0.2366 -0.5342
 9142TIP3    H148917   2.750   0.338   0.392  0.0428 -1.3335 -0.4618
 9142TIP3    H248918   2.863   0.301   0.485 -0.6012 -0.5946  0.6235
 9143TIP3   OH248919   6.298   5.212   4.943  0.4386 -0.5185  0.5502
 9143TIP3    H148920   6.224   5.216   5.004 -1.1781 -0.1268 -1.3954
 9143TIP3    H248921   6.289   5.126   4.902  0.3523  0.0219 -0.5624
 9144TIP3   OH248922   5.224   2.460   2.586 -0.1644  0.0337  0.0245
 9144TIP3    H148923   5.303   2.482   2.538 -1.9513 -1.3189 -3.7054
 9144TIP3    H248924   5.243   2.376   2.628  1.0617  0.7350  0.8995
 9145TIP3   OH248925   2.254   0.308   1.211  0.2200 -0.2509 -0.5338
 9145TIP3    H148926   2.177   0.359   1.238  0.1579 -0.0787 -1.0391
 9145TIP3    H248927   2.293   0.359   1.141  1.4665  0.2446  0.5087
 9146TIP3   OH248928   6.175   5.044   6.170  0.4639 -0.2299  0.2674
 9146TIP3    H148929   6.201   4.965   6.123 -1.4625 -0.9276  0.3214
 9146TIP3    H248930   6.129   5.012   6.247  0.5376  0.9498  0.8180
 9147TIP3   OH248931   5.667   0.968  10.677 -0.2740  0.0094 -0.3857
 9147TIP3    H148932   5.661   1.000  10.767 -0.7472 -2.2893  0.4338
 9147TIP3    H248933   5.577   0.943  10.654  0.3681 -2.5313 -0.2766
 9148TIP3   OH248934   6.086   1.268   5.219 -0.0505  0.2645 -0.3027
 9148TIP3    H148935   6.005   1.311   5.243  0.5325  1.6451 -0.7410
 9148TIP3    H248936   6.146   1.339   5.198  0.7885 -0.7654 -1.5517
 9149TIP3   OH248937   3.706   5.622  12.697 -0.5831  0.3390  0.2539
 9149TIP3    H148938   3.735   5.571  12.621 -1.0888  0.9498 -0.3640
 9149TIP3    H248939   3.768   5.600  12.766  0.6690  0.7692 -0.7156
 9150TIP3   OH248940   6.193   5.907  13.055 -0.7701  0.0207  0.6605
 9150TIP3    H148941   6.262   5.850  13.020 -1.2040 -0.4521  0.5761
 9150TIP3    H248942   6.112   5.869  13.022 -0.9746  1.5753 -0.6567
 9151TIP3   OH248943   1.867   0.550  11.541 -0.1678 -0.2469  0.1710
 9151TIP3    H148944   1.852   0.551  11.447 -2.2696  0.0280  0.4940
 9151TIP3    H248945   1.945   0.495  11.552 -0.5481 -1.1798 -1.6197
 9152TIP3   OH248946   0.518   5.664   2.237  0.2608  0.3371  0.4619
 9152TIP3    H148947   0.531   5.663   2.142 -1.6566  0.5154  0.1815
 9152TIP3    H248948   0.558   5.747   2.265  0.3186  0.5639 -0.2707
 9153TIP3   OH248949   3.912   2.889  13.484 -0.2392  0.0271  0.2141
 9153TIP3    H148950   3.964   2.952  13.436 -2.7689  2.0287  0.0048
 9153TIP3    H248951   3.949   2.804  13.460  0.7908  1.1908 -2.4983
 9154TIP3   OH248952   3.108   4.348  13.547 -0.1915  0.4169  0.0555
 9154TIP3    H148953   3.075   4.348  13.457  1.3499  0.3060 -0.5268
 9154TIP3    H248954   3.112   4.441  13.571  0.2672  0.5033 -0.3373
 9155TIP3   OH248955   3.291   3.214  15.606  0.2204 -0.6059  0.1921
 9155TIP3    H148956   3.319   3.137  15.656 -2.1914  1.3654  4.8615
 9155TIP3    H248957   3.359   3.279  15.623 -0.1581 -0.2049  0.1763
 9156TIP3   OH248958   4.127   2.493   1.989  0.1543  0.2272  0.0855
 9156TIP3    H148959   4.050   2.504   1.933  0.8858  0.5994 -0.8701
 9156TIP3    H248960   4.146   2.399   1.985  2.5438  0.7428 -3.5474
 9157TIP3   OH248961   5.243   4.553  10.839 -0.3374  0.2608 -0.4138
 9157TIP3    H148962   5.238   4.596  10.753  1.1890  0.6411 -0.3187
 9157TIP3    H248963   5.324   4.585  10.877  0.0221 -1.5024  0.3301
 9158TIP3   OH248964   0.490   3.993   4.266  0.4721  0.2538  0.1493
 9158TIP3    H148965   0.476   4.083   4.235 -0.6987 -0.6267 -1.9521
 9158TIP3    H248966   0.406   3.950   4.255  1.6064 -1.7390 -1.0252
 9159TIP3   OH248967   0.625   1.177   5.411 -0.4441 -0.2219  0.3093
 9159TIP3    H148968   0.614   1.211   5.322 -1.2953  0.7448  0.7750
 9159TIP3    H248969   0.640   1.255   5.464 -0.3132 -0.7711  1.0795
 9160TIP3   OH248970   5.235   5.560  11.375  0.0981 -0.4653  0.1481
 9160TIP3    H148971   5.214   5.483  11.428 -0.7395  0.3358  0.9962
 9160TIP3    H248972   5.161   5.619  11.388  1.1169  0.8283  0.1692
 9161TIP3   OH248973   3.640   6.575   1.840 -0.7794  0.6438  0.1731
 9161TIP3    H148974   3.606   6.661   1.816 -1.2272  0.3128 -0.3981
 9161TIP3    H248975   3.642   6.526   1.757  0.7479  0.5353  0.2497
 9162TIP3   OH248976   5.794   0.681   4.864 -0.1720  0.4550 -0.6555
 9162TIP3    H148977   5.724   0.710   4.804 -0.1166 -0.1881 -1.0320
 9162TIP3    H248978   5.865   0.743   4.849 -0.4792  0.8201 -0.6244
 9163TIP3   OH248979   2.580   0.690  15.834 -0.5661 -0.0053 -0.3825
 9163TIP3    H148980   2.529   0.679  15.753 -0.0392 -2.0622 -0.4729
 9163TIP3    H248981   2.591   0.601  15.867  1.1667  0.6028  0.7509
 9164TIP3   OH248982   5.345   2.456   3.630 -0.2264 -0.0518  0.0055
 9164TIP3    H148983   5.278   2.491   3.689 -0.6277 -0.1066 -0.4176
 9164TIP3    H248984   5.331   2.503   3.548 -1.1553 -1.6288 -0.7524
 9165TIP3   OH248985   2.988   3.526  15.295  0.1399  0.4053  0.1377
 9165TIP3    H148986   2.902   3.569  15.299 -0.9113 -1.6507  0.1934
 9165TIP3    H248987   3.020   3.547  15.207 -0.0631  1.8432  0.3957
 9166TIP3   OH248988   4.010   3.297   0.621  0.0571 -1.1623  0.1817
 9166TIP3    H148989   4.005   3.212   0.663 -1.5278 -1.3094 -0.2785
 9166TIP3    H248990   3.935   3.299   0.561  0.9345 -0.0419 -0.9108
 9167TIP3   OH248991   6.209   1.450  13.083  0.7830  0.3418 -0.3366
 9167TIP3    H148992   6.200   1.421  12.992  1.4332  0.4326 -0.4310
 9167TIP3    H248993   6.118   1.458  13.114  0.5886 -1.9999 -0.2377
 9168TIP3   OH248994   6.601   1.337   5.487  0.8100 -0.7513  0.9211
 9168TIP3    H148995   6.655   1.413   5.507  1.4686 -1.5107  2.0825
 9168TIP3    H248996   6.560   1.358   5.403  0.0740  1.3691  1.7679
 9169TIP3   OH248997   4.083   4.137   0.787  0.0878 -0.0703  0.2699
 9169TIP3    H148998   4.082   4.185   0.870  1.8859 -0.1876  0.3936
 9169TIP3    H248999   4.038   4.055   0.805  0.5629 -0.1384  1.1663
 9170TIP3   OH249000   2.103   2.617   4.803 -0.0222 -0.7087 -0.6231
 9170TIP3    H149001   2.090   2.530   4.767  2.3661 -1.6204  0.6075
 9170TIP3    H249002   2.193   2.617   4.835 -1.0198  1.0868  2.4507
 9171TIP3   OH249003   6.741   1.718  16.279  0.5214  0.3354  0.2805
 9171TIP3    H149004   6.802   1.783  16.246  0.6177  0.4687  0.7174
 9171TIP3    H249005   6.708   1.755  16.361  0.1541  0.0889  0.2483
 9172TIP3   OH249006   2.907   5.432   5.788  0.3548 -0.1745  0.0437
 9172TIP3    H149007   2.857   5.507   5.755  0.2785 -0.6825 -1.0397
 9172TIP3    H249008   2.998   5.460   5.780  0.2973  0.1020  0.3736
 9173TIP3   OH249009   5.603   0.889   5.035 -0.4324  0.7948 -0.4216
 9173TIP3    H149010   5.531   0.894   5.098  0.2766  1.9910  0.3317
 9173TIP3    H249011   5.616   0.796   5.020  0.0613  0.4428  2.0192
 9174TIP3   OH249012   4.752   5.832   1.248  0.0190 -0.1455  0.2341
 9174TIP3    H149013   4.794   5.792   1.324 -1.1624 -1.5172  0.1826
 9174TIP3    H249014   4.812   5.815   1.176  0.2282 -0.5259  0.4948
 9175TIP3   OH249015   2.586   4.384   4.040  0.1402 -0.6827  0.4322
 9175TIP3    H149016   2.610   4.474   4.063  1.1243 -1.3578  2.1729
 9175TIP3    H249017   2.500   4.372   4.082  1.3044 -1.4571  2.6811
 9176TIP3   OH249018   4.256   0.191   5.376 -0.5262  0.0756 -0.0051
 9176TIP3    H149019   4.329   0.208   5.435  0.1151 -1.2009 -0.4303
 9176TIP3    H249020   4.240   0.275   5.334  1.8291 -0.0107 -1.1797
 9177TIP3   OH249021   4.471   1.659   4.171 -0.0274  0.4905 -0.3223
 9177TIP3    H149022   4.435   1.570   4.179  2.0802 -0.2723  1.3972
 9177TIP3    H249023   4.403   1.716   4.207 -0.7811 -0.6014  0.0157
 9178TIP3   OH249024   2.538   2.433  11.340  0.0410  0.1817 -0.0766
 9178TIP3    H149025   2.582   2.392  11.415  1.6028  0.5501 -0.7610
 9178TIP3    H249026   2.536   2.526  11.361 -0.0333  0.2133 -0.2228
 9179TIP3   OH249027   1.380   6.100  13.897  0.0596  0.6278  0.1704
 9179TIP3    H149028   1.470   6.105  13.865  0.6064  1.2759  1.7611
 9179TIP3    H249029   1.339   6.031  13.845  1.1945  0.9931 -1.2196
 9180TIP3   OH249030   5.604   6.341  11.438 -0.0753  0.3045  0.0821
 9180TIP3    H149031   5.526   6.296  11.406 -0.1634 -1.1523  2.2553
 9180TIP3    H249032   5.570   6.413  11.491  0.0242 -1.2005  2.2247
 9181TIP3   OH249033   6.478   2.619   4.542  0.1033 -0.1996  0.1126
 9181TIP3    H149034   6.402   2.577   4.501 -2.8939  1.8953  3.2510
 9181TIP3    H249035   6.492   2.571   4.623  3.0023 -1.3217 -0.9752
 9182TIP3   OH249036   1.811   5.014  16.794 -0.1750  0.0241 -0.1054
 9182TIP3    H149037   1.804   5.049  16.882 -1.0618 -0.3131 -0.0333
 9182TIP3    H249038   1.884   5.062  16.754  0.8849 -0.5510  1.1368
 9183TIP3   OH249039   6.513   3.959   0.255  0.0815 -0.7319 -0.7106
 9183TIP3    H149040   6.529   3.916   0.171 -1.8799  0.2252 -1.6320
 9183TIP3    H249041   6.477   3.890   0.311  1.7472 -1.4608 -0.5205
 9184TIP3   OH249042   4.799   0.251   3.726  0.2322 -0.5674 -0.6254
 9184TIP3    H149043   4.741   0.310   3.678  1.3836  0.5309 -0.6922
 9184TIP3    H249044   4.805   0.173   3.671  0.4123  0.1108 -1.5759
 9185TIP3   OH249045   3.875   6.707   5.292  0.3432  0.5083  0.3188
 9185TIP3    H149046   3.855   6.627   5.244 -0.4122  0.9202 -0.0578
 9185TIP3    H249047   3.950   6.745   5.245 -0.1767  0.7361 -0.3339
 9186TIP3   OH249048   1.540   0.083  13.057  0.6779  0.5402 -0.2599
 9186TIP3    H149049   1.603   0.022  13.019  2.5380  0.7740  2.2888
 9186TIP3    H249050   1.462   0.029  13.074  0.7016 -0.0959 -2.0682
 9187TIP3   OH249051   4.161   6.525  11.910  0.4947  0.2308  0.0703
 9187TIP3    H149052   4.237   6.493  11.861  0.3497 -1.7661  1.1165
 9187TIP3    H249053   4.107   6.568  11.844  0.4741 -2.1040 -1.4951
 9188TIP3   OH249054   1.281   0.895   2.178 -0.1556  1.0519  0.5652
 9188TIP3    H149055   1.285   0.822   2.116 -0.0193 -0.5389  2.4056
 9188TIP3    H249056   1.231   0.963   2.132 -0.4075 -0.2567 -1.1243
 9189TIP3   OH249057   0.805   4.804   5.797 -0.0054 -0.1219  0.6155
 9189TIP3    H149058   0.841   4.767   5.717 -0.2919  0.6837  0.1076
 9189TIP3    H249059   0.816   4.898   5.788  0.1787 -0.0357  1.6325
 9190TIP3   OH249060   2.477   6.167  12.529  0.1723  0.2058 -0.3316
 9190TIP3    H149061   2.450   6.081  12.563 -1.7601 -0.1841 -2.7413
 9190TIP3    H249062   2.572   6.168  12.541 -0.0050 -1.4148  1.5988
 9191TIP3   OH249063   2.068   0.982  13.484 -0.1542 -0.2075  0.0197
 9191TIP3    H149064   2.136   1.047  13.468 -0.9292  0.0899 -2.2831
 9191TIP3    H249065   2.100   0.902  13.442 -0.3223 -0.6370  0.6934
 9192TIP3   OH249066   5.758   5.497  15.278  0.0685 -0.2728 -0.0547
 9192TIP3    H149067   5.817   5.482  15.204 -0.5898  0.8272 -0.8122
 9192TIP3    H249068   5.817   5.509  15.353  0.7899 -0.0563 -0.6442
 9193TIP3   OH249069   5.947   4.941  15.447  0.8112 -0.2405  0.2662
 9193TIP3    H149070   6.004   4.884  15.395 -0.7753 -1.1122 -0.5510
 9193TIP3    H249071   5.860   4.903  15.438 -0.0414  1.4904  0.8947
 9194TIP3   OH249072   1.420   3.304  15.225  0.0056 -0.4032  0.1305
 9194TIP3    H149073   1.485   3.269  15.287 -0.4390  0.9264  1.3892
 9194TIP3    H249074   1.432   3.399  15.230  2.2133 -0.3114 -4.2850
 9195TIP3   OH249075   1.676   2.274  16.460  0.2145 -0.2232  0.0869
 9195TIP3    H149076   1.608   2.327  16.418 -1.4499 -3.1995 -1.1673
 9195TIP3    H249077   1.708   2.328  16.532 -2.2014  1.9847 -0.4290
 9196TIP3   OH249078   3.294   3.485   1.222 -0.4365  0.0591  0.5433
 9196TIP3    H149079   3.314   3.439   1.304  2.1712 -1.1445 -0.7208
 9196TIP3    H249080   3.202   3.465   1.206 -1.2475  1.0227  3.6003
 9197TIP3   OH249081   5.429   2.450   2.105  0.7014  0.2002 -0.2131
 9197TIP3    H149082   5.438   2.535   2.060  0.0273  0.7101  0.5951
 9197TIP3    H249083   5.361   2.465   2.171 -0.8106 -1.5146 -1.3268
 9198TIP3   OH249084   2.878   3.738   4.774  0.7057  0.2778 -0.6104
 9198TIP3    H149085   2.855   3.810   4.833 -2.6230  0.9909 -2.6933
 9198TIP3    H249086   2.884   3.661   4.832  1.4427  1.6577  1.2092
 9199TIP3   OH249087   6.623   6.726  15.915  0.4567 -0.4845  0.1146
 9199TIP3    H149088   6.536   6.766  15.915  0.3295 -0.5924 -3.6048
 9199TIP3    H249089   6.683   6.799  15.935 -0.2333  0.2910 -0.6262
 9200TIP3   OH249090   0.182   4.134   4.978  0.6472  0.1567  0.8054
 9200TIP3    H149091   0.180   4.189   4.900 -0.5041 -2.0507 -0.7831
 9200TIP3    H249092   0.200   4.046   4.945  1.2704 -0.6388  3.1507
 9201TIP3   OH249093   2.549   5.495  13.640  0.3159  0.2338  0.4995
 9201TIP3    H149094   2.593   5.428  13.693 -0.8463 -0.9442  0.0374
 9201TIP3    H249095   2.511   5.555  13.704 -1.7308 -1.6032  1.0792
 9202TIP3   OH249096   4.703   1.921  15.369 -0.0323  0.4378  0.6077
 9202TIP3    H149097   4.642   1.993  15.355  0.3664  0.9889  1.7016
 9202TIP3    H249098   4.784   1.950  15.328 -0.3208 -0.0550 -0.3360
 9203TIP3   OH249099   6.497   4.499   3.696  0.5713  0.2384 -0.1809
 9203TIP3    H149100   6.417   4.516   3.647 -0.3946 -1.1376  0.8866
 9203TIP3    H249101   6.550   4.445   3.636  0.2437  0.2405 -0.4731
 9204TIP3   OH249102   4.288   3.511  11.424  0.0950 -0.1320 -0.1253
 9204TIP3    H149103   4.322   3.520  11.335 -0.2770 -3.2751 -0.6579
 9204TIP3    H249104   4.198   3.478  11.412 -0.7034  1.4331  1.3856
 9205TIP3   OH249105   3.687   4.127   4.145 -0.0778 -0.1549 -0.3061
 9205TIP3    H149106   3.669   4.215   4.178  2.9890  0.4777 -0.1345
 9205TIP3    H249107   3.623   4.071   4.189 -0.8454  1.7181  1.0224
 9206TIP3   OH249108   5.557   1.205   4.819  0.2100 -0.0042 -0.3309
 9206TIP3    H149109   5.637   1.162   4.790 -1.1277 -1.5268 -1.8221
 9206TIP3    H249110   5.487   1.143   4.800 -1.5433  2.0123 -0.6875
 9207TIP3   OH249111   6.753   2.253   3.909 -0.0679 -0.2203  0.3512
 9207TIP3    H149112   6.817   2.189   3.876  2.4357  2.6307 -0.5206
 9207TIP3    H249113   6.668   2.214   3.889  1.3926 -2.2033 -2.2882
 9208TIP3   OH249114   2.161   3.726   0.536  0.2454 -0.2450 -0.3515
 9208TIP3    H149115   2.090   3.663   0.542  0.3228 -0.1151  2.2041
 9208TIP3    H249116   2.234   3.676   0.500  0.1343 -1.4971  1.1155
 9209TIP3   OH249117   2.988   3.012  14.008 -0.0782  0.1554  0.0702
 9209TIP3    H149118   2.948   3.057  14.083 -1.2152 -0.8510  0.0849
 9209TIP3    H249119   3.072   2.979  14.042 -0.8124 -0.7355  1.0744
 9210TIP3   OH249120   6.199   5.864  14.501  0.3276 -0.1455  0.0465
 9210TIP3    H149121   6.183   5.873  14.407  0.0976  0.5892  0.1524
 9210TIP3    H249122   6.267   5.928  14.519  0.0908 -0.0106  0.4542
 9211TIP3   OH249123   0.923   5.489  16.893  1.0467 -0.4994  0.1589
 9211TIP3    H149124   0.998   5.475  16.950  1.9472 -1.3688 -1.2039
 9211TIP3    H249125   0.960   5.495  16.805 -0.2900  0.9782 -0.3370
 9212TIP3   OH249126   6.610   2.281  15.466  0.0995 -0.1449 -0.5458
 9212TIP3    H149127   6.579   2.243  15.384  1.0373  0.0765 -1.0142
 9212TIP3    H249128   6.654   2.361  15.440 -2.0901  1.4410  0.4566
 9213TIP3   OH249129   6.133   3.815  11.503  0.1225  0.1727  0.1890
 9213TIP3    H149130   6.103   3.726  11.521 -0.2287 -0.0942 -1.5611
 9213TIP3    H249131   6.193   3.805  11.429  0.5560  1.3265  0.3702
 9214TIP3   OH249132   1.619   4.528  16.673 -0.0735  0.1605  0.1511
 9214TIP3    H149133   1.687   4.574  16.623  0.4313 -0.8877 -0.1439
 9214TIP3    H249134   1.644   4.436  16.669  0.0114  0.0484  2.3799
 9215TIP3   OH249135   1.182   2.074  16.941 -0.1487 -0.2684  0.4005
 9215TIP3    H149136   1.237   2.001  16.911  2.4501  0.8352  2.2680
 9215TIP3    H249137   1.173   2.060  17.035 -1.2738  0.7445  0.4502
 9216TIP3   OH249138   0.876   5.339   5.151 -0.9192 -0.0909  0.5520
 9216TIP3    H149139   0.916   5.426   5.155 -1.5185  0.1208  2.1297
 9216TIP3    H249140   0.932   5.284   5.206  0.1521 -1.0255 -1.3774
 9217TIP3   OH249141   6.700   5.865  13.005  0.1500 -0.0817 -0.3484
 9217TIP3    H149142   6.748   5.867  13.088 -0.2737 -0.2524 -0.0929
 9217TIP3    H249143   6.713   5.952  12.967 -1.1125  0.6037  0.7436
 9218TIP3   OH249144   6.071   3.637  11.755  0.1996 -0.3588 -0.3567
 9218TIP3    H149145   6.056   3.718  11.804  0.5670  0.6635 -1.8729
 9218TIP3    H249146   6.164   3.617  11.771  0.6881  0.7292 -1.6827
 9219TIP3   OH249147   5.425   4.302  15.748 -0.4338  0.2805  0.0992
 9219TIP3    H149148   5.339   4.263  15.762 -0.1224 -0.2662  0.5046
 9219TIP3    H249149   5.407   4.392  15.720 -1.1182  0.7035  1.8398
 9220TIP3   OH249150   3.539   0.838  14.204  0.1116  0.6005  0.0912
 9220TIP3    H149151   3.522   0.770  14.270  1.0763  1.0919  0.8580
 9220TIP3    H249152   3.458   0.843  14.154 -1.1974  1.2837  2.2052
 9221TIP3   OH249153   1.396   3.640  14.433 -0.3063  0.1639 -0.1812
 9221TIP3    H149154   1.475   3.588  14.445 -0.5334 -0.3920 -1.1090
 9221TIP3    H249155   1.422   3.729  14.460  0.4525 -0.1355  0.0930
 9222TIP3   OH249156   5.572   5.672  13.916 -0.5020 -0.2494  0.7575
 9222TIP3    H149157   5.523   5.732  13.859  0.1235 -1.8136 -1.5108
 9222TIP3    H249158   5.649   5.723  13.943 -0.9146  0.5953  0.3793
 9223TIP3   OH249159   0.950   4.064   3.372 -0.6911 -0.1191 -1.2068
 9223TIP3    H149160   0.937   4.036   3.463 -1.8484 -0.6804 -1.5316
 9223TIP3    H249161   0.964   4.159   3.378  1.3819 -0.4463 -0.2699
 9224TIP3   OH249162   0.756   3.853  13.265 -0.1544  0.0009  0.1383
 9224TIP3    H149163   0.673   3.884  13.301  0.0617 -0.1808  0.7906
 9224TIP3    H249164   0.758   3.760  13.285  0.1362 -0.0253 -0.0048
 9225TIP3   OH249165   0.428   5.506  14.664  0.2503 -0.0038  0.4433
 9225TIP3    H149166   0.440   5.416  14.635  1.2261  0.8904 -2.1484
 9225TIP3    H249167   0.508   5.527  14.712 -0.1482 -0.6309  1.3845
 9226TIP3   OH249168   5.234   4.443   4.337 -0.1329 -0.3014 -0.0934
 9226TIP3    H149169   5.141   4.438   4.360 -0.1272  1.7237  0.5355
 9226TIP3    H249170   5.279   4.396   4.406 -0.8056 -3.0207 -1.4575
 9227TIP3   OH249171   1.776   3.831  14.652 -0.2430  0.1486 -0.0907
 9227TIP3    H149172   1.852   3.885  14.675  0.6460 -1.6766  1.3687
 9227TIP3    H249173   1.762   3.776  14.729 -0.4693 -2.4484 -1.9510
 9228TIP3   OH249174   1.584   2.260  17.267 -0.5751 -0.3131  0.0214
 9228TIP3    H149175   1.616   2.241  17.355 -0.3430  2.4032  0.5685
 9228TIP3    H249176   1.489   2.262  17.275 -0.5753 -0.6777  0.0866
 9229TIP3   OH249177   0.904   6.454   4.146 -0.0526  0.2396 -0.1001
 9229TIP3    H149178   0.945   6.485   4.065 -2.0085  0.1855 -1.1372
 9229TIP3    H249179   0.884   6.362   4.129 -2.3055  0.7402 -0.3353
 9230TIP3   OH249180   6.105   0.376  13.813 -0.3938 -0.3954  0.3784
 9230TIP3    H149181   6.065   0.364  13.727  1.3849 -0.4328 -0.4548
 9230TIP3    H249182   6.076   0.300  13.863  0.4945 -1.6306 -0.9425
 9231TIP3   OH249183   4.672   0.225  12.503  0.4963 -0.1174 -0.3271
 9231TIP3    H149184   4.748   0.282  12.495  0.0432  0.3575 -1.3057
 9231TIP3    H249185   4.662   0.186  12.416 -1.2998  1.0178 -0.6470
 9232TIP3   OH249186   2.772   4.019   5.216 -0.3327 -0.4000  0.3001
 9232TIP3    H149187   2.689   4.016   5.169  0.2892 -1.4389 -0.7514
 9232TIP3    H249188   2.831   4.066   5.157 -0.5316  1.5954  1.6453
 9233TIP3   OH249189   5.231   0.749  16.414  0.1655  1.2513  0.4180
 9233TIP3    H149190   5.177   0.701  16.352 -0.9044  0.8133  1.6612
 9233TIP3    H249191   5.320   0.718  16.398 -0.3996 -0.5672  0.6634
 9234TIP3   OH249192   6.756   2.287   0.789 -0.6434  0.4854 -0.0075
 9234TIP3    H149193   6.764   2.383   0.789  1.1496  0.3940 -2.7381
 9234TIP3    H249194   6.794   2.261   0.873 -0.1427  2.1093  0.3060
 9235TIP3   OH249195   2.318   5.833   1.138 -0.7275 -0.0904  0.3064
 9235TIP3    H149196   2.350   5.823   1.227 -2.7880  0.0649  1.0975
 9235TIP3    H249197   2.280   5.921   1.136 -2.2037 -0.7168 -0.2038
 9236TIP3   OH249198   1.485   5.602  12.926 -0.2043  0.0349  0.1209
 9236TIP3    H149199   1.443   5.518  12.910  2.5572 -1.4126  0.1234
 9236TIP3    H249200   1.497   5.605  13.021  2.4409 -1.0009 -0.1397
 9237TIP3   OH249201   3.138   2.043   2.106 -0.3614 -0.3870 -0.5369
 9237TIP3    H149202   3.050   2.035   2.143  0.2607  0.5776  1.1833
 9237TIP3    H249203   3.170   2.127   2.138  0.6415 -0.0578 -2.3403
 9238TIP3   OH249204   2.026   5.823  15.316 -0.3098 -0.1761  0.5025
 9238TIP3    H149205   2.001   5.910  15.348  0.5992 -0.1894  1.2795
 9238TIP3    H249206   1.985   5.763  15.378 -3.2648 -0.4274 -1.6243
 9239TIP3   OH249207   4.497   4.452  17.006 -0.8564  0.0927  0.0028
 9239TIP3    H149208   4.450   4.455  16.924  0.1916  0.5976 -0.5874
 9239TIP3    H249209   4.587   4.474  16.983 -0.7294  1.0872  1.4163
 9240TIP3   OH249210   1.081   2.394  10.734 -0.3006  0.3325 -0.5137
 9240TIP3    H149211   1.131   2.342  10.797  0.5050  1.7630  0.0531
 9240TIP3    H249212   0.994   2.402  10.774 -0.6822 -1.2316 -0.9851
 9241TIP3   OH249213   3.035   0.600  10.849 -0.2852 -0.2466  0.0548
 9241TIP3    H149214   3.019   0.680  10.800 -1.7895 -0.3456  0.3493
 9241TIP3    H249215   3.062   0.536  10.782  0.3221  0.3447 -0.2619
 9242TIP3   OH249216   4.352   6.137  15.586 -0.1533  0.0013  0.2780
 9242TIP3    H149217   4.306   6.154  15.669 -0.4282  0.7798 -0.0345
 9242TIP3    H249218   4.320   6.050  15.560  0.0427 -0.3148  1.0525
 9243TIP3   OH249219   5.487   5.978  15.225 -0.0550 -0.3089 -0.0521
 9243TIP3    H149220   5.495   6.039  15.151 -0.4181 -0.8714 -0.5567
 9243TIP3    H249221   5.540   5.903  15.200  0.1118 -0.3514  0.4208
 9244TIP3   OH249222   3.073   0.467  12.883 -0.0521  0.1870 -0.2891
 9244TIP3    H149223   3.121   0.550  12.887 -0.7123  0.6018 -0.9743
 9244TIP3    H249224   3.117   0.417  12.815 -0.2536  0.3574 -0.5457
 9245TIP3   OH249225   2.604   2.928  16.485 -0.2048 -0.0157  0.2082
 9245TIP3    H149226   2.583   2.909  16.394 -1.3561  0.6656  0.3142
 9245TIP3    H249227   2.519   2.934  16.529  0.1635  2.8290  0.6692
 9246TIP3   OH249228   1.021   3.380   0.895 -0.8835 -0.5204 -0.6460
 9246TIP3    H149229   1.050   3.304   0.944 -1.8742 -0.4875 -0.0079
 9246TIP3    H249230   1.007   3.448   0.961 -2.1278 -0.4515 -0.9605
 9247TIP3   OH249231   4.583   0.920   2.801 -0.3181 -0.0391  0.7921
 9247TIP3    H149232   4.515   0.881   2.746 -0.0793 -0.5004  0.8320
 9247TIP3    H249233   4.534   0.967   2.869 -0.6399  1.5979 -0.5394
 9248TIP3   OH249234   1.718   4.286   1.939 -0.7654  0.3046 -0.2625
 9248TIP3    H149235   1.690   4.263   1.851  0.4506 -0.5988 -0.4269
 9248TIP3    H249236   1.637   4.296   1.989 -1.4588  0.9155 -1.5034
 9249TIP3   OH249237   3.523   6.541  14.395  0.3423 -0.5761 -0.6881
 9249TIP3    H149238   3.561   6.601  14.331 -1.6722  0.8603 -0.5946
 9249TIP3    H249239   3.598   6.506  14.443  1.6573  0.6928 -1.7783
 9250TIP3   OH249240   2.705   0.210   2.557  0.2172 -0.7238  0.0531
 9250TIP3    H149241   2.787   0.214   2.606  0.8006  0.7306 -1.0091
 9250TIP3    H249242   2.723   0.256   2.476 -1.5532 -0.7247 -0.3658
 9251TIP3   OH249243   5.934   1.454  13.108 -0.3182  0.5152  0.5224
 9251TIP3    H149244   5.904   1.541  13.082 -0.8158  0.4408  0.8371
 9251TIP3    H249245   5.854   1.408  13.133 -0.3629 -0.7986 -1.8542
 9252TIP3   OH249246   2.106   0.833   4.493  1.0566 -0.1133  0.2363
 9252TIP3    H149247   2.149   0.752   4.465 -0.6062 -1.1474  0.6051
 9252TIP3    H249248   2.034   0.804   4.549  1.3562  1.7085  1.5805
 9253TIP3   OH249249   4.377   3.756   0.078  0.0355 -0.3803  0.5972
 9253TIP3    H149250   4.431   3.760   0.157 -0.9668  1.5992  1.2135
 9253TIP3    H249251   4.328   3.839   0.078  0.1006 -0.2937 -2.1482
 9254TIP3   OH249252   6.410   2.180   3.323 -0.0012 -0.1201  0.0070
 9254TIP3    H149253   6.347   2.237   3.367  1.1424  1.3182 -0.2180
 9254TIP3    H249254   6.370   2.162   3.238  0.2521  1.4181 -0.4372
 9255TIP3   OH249255   3.976   0.506   0.829  0.6929  0.1315 -0.1843
 9255TIP3    H149256   3.946   0.597   0.834  0.8544  0.2008 -0.4409
 9255TIP3    H249257   3.904   0.455   0.865 -0.0827  0.2316 -1.5750
 9256TIP3   OH249258   2.953   3.130   6.145  0.4534 -0.3895  0.1212
 9256TIP3    H149259   2.891   3.164   6.081  0.0772  0.6001  0.9963
 9256TIP3    H249260   2.939   3.035   6.143 -1.3141 -0.1672  0.5029
 9257TIP3   OH249261   2.010   5.451  16.929 -0.1383  0.1612  0.0546
 9257TIP3    H149262   2.027   5.371  16.879  0.0804 -1.2028  2.2680
 9257TIP3    H249263   2.079   5.452  16.996  0.0436  2.3715 -0.1467
 9258TIP3   OH249264   2.379   0.520   0.392  0.0726 -0.7417  0.0037
 9258TIP3    H149265   2.381   0.502   0.298  0.8146  1.3513 -0.4248
 9258TIP3    H249266   2.289   0.548   0.409  0.0086 -0.8508 -0.1499
 9259TIP3   OH249267   1.037   0.815   4.026 -0.4762 -0.2454  0.6101
 9259TIP3    H149268   0.943   0.797   4.030 -0.3422 -1.1502 -0.1466
 9259TIP3    H249269   1.076   0.760   4.093 -0.2066 -1.9076 -0.8646
 9260TIP3   OH249270   2.260   5.951  13.728  0.2691  0.3505 -0.8045
 9260TIP3    H149271   2.286   5.945  13.636  0.7531  0.4877 -0.6749
 9260TIP3    H249272   2.289   6.037  13.756 -0.4169  0.5519 -0.6846
 9261TIP3   OH249273   0.575   3.219   2.866 -0.3241  0.7725 -0.4516
 9261TIP3    H149274   0.535   3.170   2.938  1.1501  1.0036  0.5399
 9261TIP3    H249275   0.503   3.233   2.804 -1.2306 -0.8664  0.1952
 9262TIP3   OH249276   6.406   0.239   2.531 -0.2094  0.3349  0.1707
 9262TIP3    H149277   6.479   0.301   2.526  0.1764  0.0302  1.9677
 9262TIP3    H249278   6.447   0.153   2.523  0.0001  0.0083  4.0344
 9263TIP3   OH249279   6.641   1.098  12.063  0.7959 -0.5044 -0.0511
 9263TIP3    H149280   6.596   1.016  12.048  0.7297 -0.2047 -1.5334
 9263TIP3    H249281   6.704   1.105  11.991  0.9574  0.6192  0.1829
 9264TIP3   OH249282   2.495   6.286   2.371  0.0855  0.3842  0.0042
 9264TIP3    H149283   2.446   6.365   2.395 -0.3369  0.4587 -1.0769
 9264TIP3    H249284   2.535   6.308   2.287  1.9981  0.3294  0.8642
 9265TIP3   OH249285   5.438   5.922   3.114  0.0113  0.2960  0.1642
 9265TIP3    H149286   5.343   5.928   3.106 -0.1233 -0.8222  0.8069
 9265TIP3    H249287   5.465   6.011   3.136 -1.0016  0.4142  1.0017
 9266TIP3   OH249288   1.552   0.190  14.030  0.3488  0.3416  0.1993
 9266TIP3    H149289   1.542   0.254  13.959 -2.9129 -0.7315 -0.4035
 9266TIP3    H249290   1.602   0.118  13.992 -0.2664  0.3458 -0.6220
 9267TIP3   OH249291   5.227   3.473   3.484  0.2348  0.3443 -0.0245
 9267TIP3    H149292   5.174   3.532   3.430  2.2525  2.1892 -0.0302
 9267TIP3    H249293   5.231   3.392   3.433 -0.0441  1.2002 -1.4548
 9268TIP3   OH249294   0.428   0.192   0.660  0.1158 -0.4157  0.3604
 9268TIP3    H149295   0.480   0.125   0.704 -2.1080 -0.4723  3.0479
 9268TIP3    H249296   0.398   0.250   0.730 -2.1177  0.4957 -1.2602
 9269TIP3   OH249297   0.536   2.674   1.272 -0.1827 -0.0538  0.5371
 9269TIP3    H149298   0.514   2.697   1.182  2.8170  1.5729  0.1761
 9269TIP3    H249299   0.509   2.751   1.323 -2.0144 -1.0303  1.0946
 9270TIP3   OH249300   6.819   0.594  11.152 -0.0705  0.0623 -0.2130
 9270TIP3    H149301   6.770   0.515  11.132 -1.2036  0.6636  0.1266
 9270TIP3    H249302   6.803   0.610  11.245 -0.0037  0.7848 -0.3174
 9271TIP3   OH249303   3.571   2.068  11.500  0.5908  0.4424  0.4337
 9271TIP3    H149304   3.518   2.147  11.503 -0.7779 -0.4819  0.8867
 9271TIP3    H249305   3.654   2.094  11.542  0.0659  1.5577  0.8042
 9272TIP3   OH249306   2.920   0.999   1.167 -0.3398 -0.2266  0.0216
 9272TIP3    H149307   2.825   1.004   1.154 -0.1184  0.7663 -1.3177
 9272TIP3    H249308   2.940   1.073   1.225 -0.3416 -0.2330  0.0304
 9273TIP3   OH249309   1.708   1.750   0.153  0.3257  0.2254 -0.5498
 9273TIP3    H149310   1.616   1.732   0.137  0.2970  0.8154 -1.0788
 9273TIP3    H249311   1.710   1.838   0.191  0.7384  0.6174 -1.4616
 9274TIP3   OH249312   0.796   4.397  11.928 -0.2750 -0.4831  0.3192
 9274TIP3    H149313   0.726   4.439  11.879  0.1226 -2.0182 -1.5966
 9274TIP3    H249314   0.825   4.464  11.990 -1.7164  1.0108 -0.5922
 9275TIP3   OH249315   5.906   3.841  11.205 -0.2438 -0.2642  0.9980
 9275TIP3    H149316   5.871   3.882  11.284  0.1777  0.3324  0.8804
 9275TIP3    H249317   5.922   3.750  11.230 -1.6902 -0.4968  1.1088
 9276TIP3   OH249318   5.158   5.164  10.311  0.3535 -0.1267  0.4181
 9276TIP3    H149319   5.112   5.223  10.250  0.8280  0.7531  0.9049
 9276TIP3    H249320   5.218   5.114  10.255 -1.8475 -1.9907 -0.3728
 9277TIP3   OH249321   6.368   0.107   1.406 -0.1227  0.7723 -0.2312
 9277TIP3    H149322   6.364   0.112   1.310  1.1202  2.5890 -0.2111
 9277TIP3    H249323   6.306   0.174   1.435  0.0114  0.6894  0.2389
 9278TIP3   OH249324   2.410   6.356  10.124 -0.4920  0.8992 -0.2875
 9278TIP3    H149325   2.329   6.338  10.172 -1.0908  2.2247 -0.7816
 9278TIP3    H249326   2.382   6.410  10.050  0.5495 -0.4134 -1.6592
 9279TIP3   OH249327   0.154   3.887   3.632 -0.2691  0.4095 -0.1530
 9279TIP3    H149328   0.136   3.816   3.570  1.2902 -0.3245  0.2178
 9279TIP3    H249329   0.239   3.921   3.605 -0.2887  1.1049  0.6469
 9280TIP3   OH249330   2.260   2.172   5.602  0.0311  0.7715 -0.0339
 9280TIP3    H149331   2.256   2.149   5.509  1.9943 -0.1505  0.0915
 9280TIP3    H249332   2.228   2.093   5.647 -1.6572  1.4899  0.0623
 9281TIP3   OH249333   5.434   0.203  14.029 -0.0519  0.0439 -0.6070
 9281TIP3    H149334   5.380   0.234  14.102 -0.3105 -2.5509  0.3661
 9281TIP3    H249335   5.520   0.185  14.068 -0.1181 -1.1216 -0.9703
 9282TIP3   OH249336   3.079   1.933   2.488  0.0396  0.0756 -0.0857
 9282TIP3    H149337   3.060   1.908   2.579 -1.1728  0.6272 -0.1812
 9282TIP3    H249338   3.172   1.910   2.476 -0.0489 -0.9167  0.9817
 9283TIP3   OH249339   4.946   0.631  16.845  0.3046  0.1589  0.6570
 9283TIP3    H149340   5.036   0.643  16.876  0.5239 -0.5545  0.3158
 9283TIP3    H249341   4.940   0.538  16.825 -0.4735  0.2266  0.5442
 9284TIP3   OH249342   4.687   2.508   6.896 -0.4633  0.1771 -0.0416
 9284TIP3    H149343   4.631   2.438   6.864  1.3624 -0.3667 -2.1887
 9284TIP3    H249344   4.686   2.573   6.825 -0.4148  1.3311  1.0019
 9285TIP3   OH249345   1.806   4.282   1.538 -0.1633  0.3015  0.2331
 9285TIP3    H149346   1.884   4.230   1.518 -0.3804 -0.8950  2.3692
 9285TIP3    H249347   1.816   4.306   1.630 -1.4306  1.7220  0.0233
 9286TIP3   OH249348   6.606   0.178   1.514  0.1663  0.3670 -0.2369
 9286TIP3    H149349   6.520   0.180   1.472 -0.1113  0.2918  0.3200
 9286TIP3    H249350   6.650   0.104   1.475 -0.0802  0.3176 -0.4206
 9287TIP3   OH249351   1.417   6.170   2.414  0.2491 -0.2409 -0.0838
 9287TIP3    H149352   1.489   6.218   2.372 -0.1712  0.7392  0.3121
 9287TIP3    H249353   1.452   6.146   2.500  0.2603 -0.1525 -0.0633
 9288TIP3   OH249354   5.433   4.740   5.177  0.6022 -0.1632  0.3182
 9288TIP3    H149355   5.417   4.735   5.083  0.6484 -0.4972  0.3307
 9288TIP3    H249356   5.511   4.686   5.192  0.8307  0.2057  0.4907
 9289TIP3   OH249357   0.826   2.711   4.355 -0.0466 -0.1112 -0.6255
 9289TIP3    H149358   0.824   2.806   4.344  0.5307  0.0457  0.6393
 9289TIP3    H249359   0.865   2.696   4.441  1.5723 -1.5591 -1.5641
 9290TIP3   OH249360   0.431   2.765  15.061  0.0453 -0.2153  0.4187
 9290TIP3    H149361   0.480   2.694  15.018 -1.3288 -1.0376  0.1724
 9290TIP3    H249362   0.352   2.775  15.007 -1.0912 -0.3847  2.0209
 9291TIP3   OH249363   6.441   1.062  14.180  0.1103 -0.2026  0.2122
 9291TIP3    H149364   6.372   1.100  14.125  0.0306  1.3255  1.3432
 9291TIP3    H249365   6.506   1.030  14.118 -0.4052  0.6883 -0.8071
 9292TIP3   OH249366   3.583   4.373  13.292 -0.0361  0.0720 -0.0111
 9292TIP3    H149367   3.594   4.421  13.210  1.0118  0.6591  0.4709
 9292TIP3    H249368   3.495   4.336  13.286 -1.1591  2.6486 -0.0822
 9293TIP3   OH249369   0.116   2.090   3.695  0.0003  0.4624 -0.2208
 9293TIP3    H149370   0.199   2.050   3.670 -1.1723 -1.6288 -0.8313
 9293TIP3    H249371   0.091   2.046   3.775 -0.6872  0.8689 -0.2094
 9294TIP3   OH249372   4.008   4.721  12.984  0.1269 -0.3286 -0.3035
 9294TIP3    H149373   3.990   4.800  13.035 -0.1880 -0.6514  0.0840
 9294TIP3    H249374   3.972   4.649  13.036  0.0175 -0.6876 -0.8604
 9295TIP3   OH249375   4.755   3.259  13.744  0.2536  0.3927  0.0663
 9295TIP3    H149376   4.716   3.331  13.794 -0.4420  0.0574  0.0174
 9295TIP3    H249377   4.745   3.286  13.653  0.4833  0.4831  0.0692
 9296TIP3   OH249378   1.179   2.047   5.307 -0.2670  0.3493  0.2058
 9296TIP3    H149379   1.172   1.956   5.279  0.3759  0.6537 -0.9892
 9296TIP3    H249380   1.089   2.079   5.308 -0.3692  0.0971 -0.7320
 9297TIP3   OH249381   3.714   6.278   5.794 -0.0277  0.0983  0.1941
 9297TIP3    H149382   3.712   6.338   5.868 -1.6324 -0.2540  0.4640
 9297TIP3    H249383   3.805   6.278   5.764 -0.3175  4.0640 -0.9608
 9298TIP3   OH249384   1.759   1.380  14.606 -0.0049  0.5528  0.8589
 9298TIP3    H149385   1.686   1.324  14.581  1.9898 -1.9345  0.4017
 9298TIP3    H249386   1.723   1.468  14.605 -2.8611 -0.5702  0.1759
 9299TIP3   OH249387   0.806   2.280   0.472  0.5940  0.0087 -0.0382
 9299TIP3    H149388   0.866   2.321   0.409  0.2725 -0.4133 -0.6198
 9299TIP3    H249389   0.720   2.311   0.446  0.1473 -2.3835 -1.5684
 9300TIP3   OH249390   0.319   4.198   5.225 -0.3849  0.4945  0.0206
 9300TIP3    H149391   0.316   4.170   5.133 -2.3096 -0.1784  0.2656
 9300TIP3    H249392   0.230   4.226   5.245 -0.6517 -1.8412  2.4161
 9301TIP3   OH249393   2.976   1.293  16.966  0.5530 -0.3840  0.0686
 9301TIP3    H149394   3.053   1.246  16.997  0.0437 -0.4148  1.2869
 9301TIP3    H249395   2.937   1.332  17.044  0.0354  0.6875 -0.7020
 9302TIP3   OH249396   0.491   0.632   5.690  0.2453  0.0776  0.3151
 9302TIP3    H149397   0.534   0.565   5.637 -0.0387 -0.1716  0.3998
 9302TIP3    H249398   0.407   0.593   5.714 -0.0372  0.5693  0.1350
 9303TIP3   OH249399   3.677   1.442  12.011 -0.1365 -0.3617  0.2042
 9303TIP3    H149400   3.700   1.535  12.005 -0.1742 -0.4582 -1.9307
 9303TIP3    H249401   3.635   1.433  12.096 -0.5255  1.6718  0.2567
 9304TIP3   OH249402   4.100   3.432   2.767  0.2789 -0.5022  0.4408
 9304TIP3    H149403   4.144   3.488   2.703  2.0467 -2.1447  0.1593
 9304TIP3    H249404   4.021   3.402   2.722 -0.0204  0.7232  0.1321
 9305TIP3   OH249405   3.073   5.577  14.856  0.2501 -0.0480  0.3528
 9305TIP3    H149406   2.997   5.614  14.811  1.3872  2.3966  0.3714
 9305TIP3    H249407   3.105   5.648  14.912  2.7700 -0.9059  0.0750
 9306TIP3   OH249408   1.530   0.111   1.278 -0.3106  0.3845  0.2118
 9306TIP3    H149409   1.579   0.135   1.357  0.2676  0.2066 -0.0840
 9306TIP3    H249410   1.597   0.105   1.210 -0.8422  0.7926 -0.3498
 9307TIP3   OH249411   2.110   3.970   3.771  0.4695  0.5691 -0.2286
 9307TIP3    H149412   2.035   3.949   3.714 -0.0972 -0.6668  0.9540
 9307TIP3    H249413   2.160   4.035   3.721 -2.1622  2.5362 -0.4250
 9308TIP3   OH249414   4.821   0.609   2.304 -0.1140 -0.7353 -0.1100
 9308TIP3    H149415   4.755   0.620   2.373 -1.1319 -1.5674 -0.9360
 9308TIP3    H249416   4.900   0.583   2.350 -0.0320  1.3561  1.0144
 9309TIP3   OH249417   1.623   5.428   3.713 -0.0142  0.5176 -0.5706
 9309TIP3    H149418   1.528   5.420   3.716 -0.1849  2.7096  1.4052
 9309TIP3    H249419   1.649   5.381   3.634 -2.7695  0.2191 -1.3410
 9310TIP3   OH249420   6.478   3.826   2.163 -0.2880  0.2600  0.0568
 9310TIP3    H149421   6.416   3.781   2.107  1.9466 -0.3597 -2.0110
 9310TIP3    H249422   6.527   3.757   2.207  0.7857  0.6904 -0.4374
 9311TIP3   OH249423   1.386   4.175   3.376 -0.0083 -0.4573  0.3384
 9311TIP3    H149424   1.338   4.241   3.426 -0.2214 -0.6325  0.3699
 9311TIP3    H249425   1.478   4.196   3.390 -0.0824  0.1955 -0.1522
 9312TIP3   OH249426   4.923   1.607   0.665 -0.1555  0.0766 -0.1078
 9312TIP3    H149427   4.986   1.620   0.593  1.3141 -0.6852  1.0112
 9312TIP3    H249428   4.941   1.678   0.726 -0.8749  0.2758 -0.1297
 9313TIP3   OH249429   2.811   1.536   4.644 -0.3355  0.1791 -0.1111
 9313TIP3    H149430   2.887   1.514   4.698  0.4977  2.6299 -0.2395
 9313TIP3    H249431   2.841   1.608   4.589 -2.2909  0.1289 -1.2855
 9314TIP3   OH249432   3.915   6.359  12.352  0.3967 -0.2181  0.6826
 9314TIP3    H149433   4.006   6.374  12.376  0.2943  0.0076  0.9230
 9314TIP3    H249434   3.896   6.271  12.385 -0.5178  1.0460  3.7408
 9315TIP3   OH249435   6.203   2.247  14.848 -0.3928 -0.2969  0.1439
 9315TIP3    H149436   6.237   2.283  14.766 -0.5256 -2.2221 -0.7727
 9315TIP3    H249437   6.260   2.172  14.867 -1.7276 -1.1857  0.6549
 9316TIP3   OH249438   6.078   0.300  12.621 -0.4653  0.3952  0.3096
 9316TIP3    H149439   5.997   0.324  12.667 -1.9777 -0.6030 -1.7336
 9316TIP3    H249440   6.110   0.383  12.585 -0.2629  0.8774  1.5447
 9317TIP3   OH249441   5.385   2.661  15.075 -0.3708  0.9399 -1.2119
 9317TIP3    H149442   5.478   2.680  15.063 -0.3974  2.5319  0.8398
 9317TIP3    H249443   5.380   2.614  15.158 -1.2908 -0.1413 -1.8625
 9318TIP3   OH249444   3.958   5.087  13.650  0.0509  0.3623  0.1491
 9318TIP3    H149445   3.991   4.997  13.641 -0.4767  0.2997 -1.2206
 9318TIP3    H249446   3.886   5.093  13.588 -0.8689  1.2995  1.2770
 9319TIP3   OH249447   2.059   5.961  16.959 -0.4656  0.6455 -0.5783
 9319TIP3    H149448   2.015   6.019  17.021  1.5341  1.7222 -0.1144
 9319TIP3    H249449   2.135   5.927  17.008  0.9219  1.2009 -2.2998
 9320TIP3   OH249450   5.042   5.753  11.028  0.2234  0.4540 -0.5942
 9320TIP3    H149451   5.023   5.660  11.044 -1.8362  1.3635  2.6792
 9320TIP3    H249452   5.136   5.761  11.044  0.3218 -0.9738 -0.3537
 9321TIP3   OH249453   3.327   4.463   0.249  0.2995 -0.3124  0.6045
 9321TIP3    H149454   3.303   4.370   0.249 -0.8510 -0.0240  1.0981
 9321TIP3    H249455   3.319   4.490   0.158 -0.6308 -0.3813  0.6604
 9322TIP3   OH249456   2.939   4.164  13.699  0.1978 -0.6827  0.0151
 9322TIP3    H149457   3.005   4.102  13.728  0.0704 -0.7549  0.1471
 9322TIP3    H249458   2.990   4.238  13.664  0.3476 -0.8713 -0.1679
 9323TIP3   OH249459   3.975   3.556   0.673 -0.2409  0.1544  0.0696
 9323TIP3    H149460   3.991   3.462   0.665  0.4444  0.2204  0.6224
 9323TIP3    H249461   3.908   3.564   0.741 -0.9781  0.0149 -0.6335
 9324TIP3   OH249462   3.260   2.378  11.989  0.1604 -1.2014  1.0934
 9324TIP3    H149463   3.328   2.363  12.054  0.3032  2.9789  2.0352
 9324TIP3    H249464   3.193   2.428  12.034 -0.3515  0.6542 -1.5802
 9325TIP3   OH249465   5.238   5.527  17.074  0.0973  0.1913  0.1584
 9325TIP3    H149466   5.283   5.592  17.020 -1.9832  0.4763 -1.2872
 9325TIP3    H249467   5.264   5.443  17.035 -1.8340  0.4173 -1.6836
 9326TIP3   OH249468   4.766   3.863   4.754  0.3966  0.3470 -0.4446
 9326TIP3    H149469   4.733   3.942   4.797 -0.4860 -0.3503  0.1807
 9326TIP3    H249470   4.826   3.825   4.818 -2.4904 -1.8053  1.0990
 9327TIP3   OH249471   6.503   4.419   4.628 -0.0712  0.3327 -0.1627
 9327TIP3    H149472   6.535   4.439   4.716 -1.6082 -2.1097  1.0105
 9327TIP3    H249473   6.429   4.478   4.615  0.2376  0.7881  0.1229
 9328TIP3   OH249474   0.677   4.158   0.959 -0.1967  0.3621 -0.3311
 9328TIP3    H149475   0.664   4.251   0.941 -0.9111  0.1708 -0.8281
 9328TIP3    H249476   0.683   4.152   1.054  3.2191  1.3410 -0.4306
 9329TIP3   OH249477   2.853   0.665   0.509 -0.1352  0.4313 -0.6034
 9329TIP3    H149478   2.791   0.707   0.569 -2.0726 -0.0761 -2.1651
 9329TIP3    H249479   2.799   0.602   0.460  2.0207 -1.4568 -0.6561
 9330TIP3   OH249480   3.058   2.156  14.522 -0.1092 -0.1096 -0.0218
 9330TIP3    H149481   3.041   2.187  14.611 -0.2590 -1.6400  0.5069
 9330TIP3    H249482   2.999   2.207  14.466 -2.8788 -1.8139  1.2087
 9331TIP3   OH249483   4.018   0.443  13.680  0.3206 -0.7074  0.3732
 9331TIP3    H149484   3.994   0.534  13.664 -0.4833 -1.4838 -3.3815
 9331TIP3    H249485   4.013   0.433  13.775  1.4179  3.4029  0.9510
 9332TIP3   OH249486   2.300   5.175   4.816  0.4297  0.2644  0.3451
 9332TIP3    H149487   2.211   5.203   4.798  0.8163  1.6680  0.5374
 9332TIP3    H249488   2.308   5.181   4.911 -0.3731 -3.3213  0.7062
 9333TIP3   OH249489   4.525   3.339   0.548  0.1256 -0.3138  0.0835
 9333TIP3    H149490   4.509   3.423   0.592 -0.5900 -0.4222  0.0332
 9333TIP3    H249491   4.458   3.280   0.583 -0.2344 -0.4927 -0.9023
 9334TIP3   OH249492   2.422   5.283   2.613  0.5018 -0.1835  0.2850
 9334TIP3    H149493   2.344   5.269   2.666  1.3888 -2.6461  1.0360
 9334TIP3    H249494   2.389   5.308   2.527 -1.1156 -0.9925  0.6455
 9335TIP3   OH249495   0.560   0.553  16.992  0.5309  0.4282 -0.0892
 9335TIP3    H149496   0.561   0.557  17.088  1.3255  0.5118 -0.0945
 9335TIP3    H249497   0.630   0.491  16.971  0.2705  0.3150 -0.6099
 9336TIP3   OH249498   4.420   0.384   6.675  0.2619  0.6889 -0.2802
 9336TIP3    H149499   4.473   0.334   6.736 -0.2638  1.2893  0.6906
 9336TIP3    H249500   4.481   0.412   6.607  0.9276  0.3184  0.1616
 9337TIP3   OH249501   5.485   0.385   0.702 -0.3431 -0.6775  0.7628
 9337TIP3    H149502   5.507   0.376   0.609  2.2197 -0.2716  1.2849
 9337TIP3    H249503   5.452   0.474   0.710  3.0114  0.6385  0.8388
 9338TIP3   OH249504   0.120   0.965  12.097 -0.5436 -0.7811  0.0087
 9338TIP3    H149505   0.047   0.906  12.076  0.2284 -1.7457  0.0462
 9338TIP3    H249506   0.106   1.041  12.041  0.6936 -2.6990 -2.9886
 9339TIP3   OH249507   1.888   0.282  16.290  0.4260 -0.4031 -0.1679
 9339TIP3    H149508   1.835   0.331  16.227 -0.6323  0.8978  1.6854
 9339TIP3    H249509   1.835   0.204  16.310  0.1248 -0.1099  0.1710
 9340TIP3   OH249510   4.892   5.429   0.992 -0.5590 -0.0872  0.0329
 9340TIP3    H149511   4.879   5.339   1.022 -2.4818  0.0511 -0.3479
 9340TIP3    H249512   4.814   5.449   0.939  0.1512  1.5766 -0.4285
 9341TIP3   OH249513   5.999   1.339  11.793  0.4379 -0.5118  0.0618
 9341TIP3    H149514   5.952   1.272  11.743  1.3088 -0.4111 -0.9069
 9341TIP3    H249515   5.986   1.419  11.743  0.7719 -0.2798  0.3480
 9342TIP3   OH249516   0.006   2.938   3.758 -0.2114 -0.3812 -0.1385
 9342TIP3    H149517  -0.019   3.030   3.748 -0.8092 -0.5270 -0.0201
 9342TIP3    H249518  -0.077   2.892   3.771 -0.0189 -1.0769 -1.2830
 9343TIP3   OH249519   0.471   6.074  10.739 -0.0361 -0.4466 -1.0722
 9343TIP3    H149520   0.534   6.086  10.810  0.0802  0.1011 -1.2649
 9343TIP3    H249521   0.385   6.086  10.781 -0.0549 -1.9252 -0.6637
 9344TIP3   OH249522   0.417   2.432   1.087  0.1304  0.0616  0.1618
 9344TIP3    H149523   0.354   2.503   1.083 -0.8400 -0.8649 -1.4091
 9344TIP3    H249524   0.490   2.462   1.032  0.1198  0.2101  0.2273
 9345TIP3   OH249525   0.599   0.491   0.345  0.1692 -0.0224 -0.3299
 9345TIP3    H149526   0.608   0.511   0.438  1.2777 -0.1608 -0.3944
 9345TIP3    H249527   0.533   0.552   0.313  0.7048  0.8891  0.2874
 9346TIP3   OH249528   4.132   5.265   6.139  0.1723  0.1225  0.5239
 9346TIP3    H149529   4.061   5.284   6.201  0.9736  1.7331  0.9579
 9346TIP3    H249530   4.096   5.286   6.053  0.1890  1.1043  0.7604
 9347TIP3   OH249531   0.020   1.925   3.003  0.3383  0.4507  0.1171
 9347TIP3    H149532  -0.060   1.972   2.980  0.7127  0.9284 -0.2129
 9347TIP3    H249533   0.091   1.979   2.969  0.7675 -0.5522 -0.6026
 9348TIP3   OH249534   2.173   2.424   0.769  0.3160  0.3208  0.2857
 9348TIP3    H149535   2.207   2.390   0.686 -1.7923 -0.5141 -0.2880
 9348TIP3    H249536   2.237   2.398   0.834  0.1883 -2.2689 -0.5708
 9349TIP3   OH249537   2.946   3.895  12.559  0.4103 -0.0811  0.2210
 9349TIP3    H149538   2.855   3.883  12.533  0.4074  1.0583 -0.3075
 9349TIP3    H249539   2.942   3.953  12.635  0.7364  0.5805 -0.2611
 9350TIP3   OH249540   5.161   3.427   0.438  0.0304 -0.4797 -0.0473
 9350TIP3    H149541   5.084   3.409   0.384  0.2179 -0.1321 -0.4320
 9350TIP3    H249542   5.221   3.355   0.421  0.5459  0.1907 -1.1522
 9351TIP3   OH249543   6.043   1.102   1.173 -0.4698 -0.5516  0.4700
 9351TIP3    H149544   6.075   1.058   1.095 -2.1902 -1.7642  0.4266
 9351TIP3    H249545   6.070   1.046   1.246  1.7129  0.9109  0.8438
 9352TIP3   OH249546   4.222   2.190   2.436  0.1875 -0.2687 -0.1283
 9352TIP3    H149547   4.310   2.200   2.400 -0.2364 -0.6484 -1.3081
 9352TIP3    H249548   4.184   2.277   2.430  0.5790 -0.0376  0.6614
 9353TIP3   OH249549   4.833   5.933   3.322 -0.3421 -0.4039 -0.0262
 9353TIP3    H149550   4.741   5.955   3.340  0.1982  0.6303  1.6099
 9353TIP3    H249551   4.883   6.000   3.369  1.2514 -1.0220 -0.8260
 9354TIP3   OH249552   5.296   2.096  12.764 -0.0979 -0.4719 -0.4282
 9354TIP3    H149553   5.341   2.015  12.738  1.1317 -0.1083  0.4920
 9354TIP3    H249554   5.330   2.163  12.705  0.7926 -0.1390  0.4578
 9355TIP3   OH249555   1.471   2.678  16.223 -0.3872  0.0539 -0.8528
 9355TIP3    H149556   1.386   2.720  16.234 -0.4191 -0.2098 -0.0469
 9355TIP3    H249557   1.467   2.640  16.135 -0.2698  1.9105 -1.7041
 9356TIP3   OH249558   3.151   3.079   5.528  0.6773  0.7300 -0.2230
 9356TIP3    H149559   3.072   3.027   5.518  0.6828  0.5521  0.5845
 9356TIP3    H249560   3.164   3.121   5.443 -0.1614  0.5954 -0.4199
 9357TIP3   OH249561   5.540   4.509  15.449  0.1002 -0.1847  0.0125
 9357TIP3    H149562   5.465   4.553  15.490  0.6913  0.4645  0.3954
 9357TIP3    H249563   5.611   4.519  15.511  0.0345 -2.4233  0.4709
 9358TIP3   OH249564   0.815   5.404   5.458 -0.0050 -0.7101  0.5568
 9358TIP3    H149565   0.811   5.462   5.534  0.1187 -0.2843  0.2430
 9358TIP3    H249566   0.846   5.461   5.387  1.4325 -1.4606  0.5551
 9359TIP3   OH249567   3.418   2.404  15.463  0.2460 -0.4237  0.3628
 9359TIP3    H149568   3.351   2.427  15.398 -1.3706 -0.1896  2.0593
 9359TIP3    H249569   3.432   2.484  15.512  1.4353 -0.6071  0.3269
 9360TIP3   OH249570   5.157   5.191   3.069 -0.0527 -0.1899  0.1711
 9360TIP3    H149571   5.187   5.104   3.094 -1.8183 -0.0371  2.9773
 9360TIP3    H249572   5.237   5.239   3.049  1.0868 -1.7946  0.8026
 9361TIP3   OH249573   1.330   0.365  15.368 -0.1083 -0.3302 -0.0609
 9361TIP3    H149574   1.253   0.412  15.402 -1.0515 -1.3429 -0.7696
 9361TIP3    H249575   1.310   0.349  15.276  1.6699  0.8178 -0.6761
 9362TIP3   OH249576   6.689   0.184  14.544  0.5628  0.0483 -0.4880
 9362TIP3    H149577   6.726   0.170  14.457 -0.3937  0.2236 -0.9294
 9362TIP3    H249578   6.734   0.262  14.577 -0.0978  0.8301 -1.4163
 9363TIP3   OH249579   1.118   5.139  14.390 -0.4952 -0.2211 -0.0319
 9363TIP3    H149580   1.100   5.151  14.483 -3.5043  0.9353 -0.7182
 9363TIP3    H249581   1.140   5.227  14.358  2.4744 -0.9127 -0.0960
 9364TIP3   OH249582   5.405   4.459   5.500 -0.5048 -0.7502 -0.5455
 9364TIP3    H149583   5.324   4.469   5.451 -0.4726  0.9957 -0.2885
 9364TIP3    H249584   5.474   4.459   5.434 -0.6349 -0.9653 -0.6795
 9365TIP3   OH249585   3.375   6.555  14.040  0.4184 -0.3262 -0.2221
 9365TIP3    H149586   3.313   6.483  14.027  1.0301 -0.5396 -2.2011
 9365TIP3    H249587   3.459   6.519  14.010  0.6234  1.3624 -1.7615
 9366TIP3   OH249588   5.721   6.099  15.840 -0.1395 -0.3375 -0.0271
 9366TIP3    H149589   5.774   6.091  15.761 -0.7213 -2.5766 -0.2169
 9366TIP3    H249590   5.723   6.012  15.880 -0.9908  0.3926  1.7049
 9367TIP3   OH249591   5.737   0.034  13.453  0.1932  0.0486  0.4113
 9367TIP3    H149592   5.686   0.081  13.519  0.3246  1.9168 -0.7807
 9367TIP3    H249593   5.769   0.103  13.395  0.3240 -1.5489 -1.4286
 9368TIP3   OH249594   1.959   0.964  16.807  0.7091  0.3400  0.6171
 9368TIP3    H149595   1.881   0.917  16.836  0.6293  0.7061  1.0107
 9368TIP3    H249596   2.032   0.912  16.841  0.6555 -0.3811 -0.3433
 9369TIP3   OH249597   0.804   5.030  17.274  0.2731 -0.3058  0.1138
 9369TIP3    H149598   0.827   4.938  17.266 -1.0494 -0.5549 -0.9764
 9369TIP3    H249599   0.801   5.047  17.369 -0.3916 -1.6141  0.3338
 9370TIP3   OH249600   1.748   0.940  15.511  0.1546 -0.1940 -0.4630
 9370TIP3    H149601   1.739   0.942  15.416  0.5363  1.3378 -0.4752
 9370TIP3    H249602   1.663   0.969  15.544 -0.5530 -2.4032 -0.2992
 9371TIP3   OH249603   3.909   6.479   0.890  0.4107  0.2145 -0.5720
 9371TIP3    H149604   3.976   6.432   0.938  0.5512  1.0264  0.0285
 9371TIP3    H249605   3.955   6.515   0.814  0.2489 -0.8163 -1.1788
 9372TIP3   OH249606   4.814   1.218  16.874  0.1686  0.0140 -0.3392
 9372TIP3    H149607   4.897   1.258  16.899  0.6932 -0.8326 -0.6904
 9372TIP3    H249608   4.756   1.233  16.949 -0.1793  2.8784 -1.1167
 9373TIP3   OH249609   0.581   4.859   2.619 -0.1761 -0.0233 -0.3319
 9373TIP3    H149610   0.614   4.804   2.689  0.5961  1.6326  0.6432
 9373TIP3    H249611   0.576   4.947   2.658 -0.8356  0.7000 -1.9982
 9374TIP3   OH249612   4.953   4.548  13.124 -0.4906  0.1011  0.2799
 9374TIP3    H149613   4.946   4.643  13.114 -1.4544 -0.1507 -1.4989
 9374TIP3    H249614   4.977   4.536  13.216 -0.1077  2.0711  0.4580
 9375TIP3   OH249615   6.366   1.721  15.931  0.2840 -0.4321  0.0600
 9375TIP3    H149616   6.433   1.654  15.942 -1.3888 -1.9918  0.9586
 9375TIP3    H249617   6.326   1.729  16.018  0.0590  1.2939 -0.1869
 9376TIP3   OH249618   1.686   4.773   1.169  0.2589 -0.0146  0.2226
 9376TIP3    H149619   1.621   4.837   1.140  0.0246  0.3898  1.5833
 9376TIP3    H249620   1.753   4.773   1.101 -1.6593 -1.1786 -1.7035
 9377TIP3   OH249621   1.819   6.420  17.275  0.3026  0.0879 -0.2994
 9377TIP3    H149622   1.824   6.492  17.212 -0.9028  0.9238  0.5333
 9377TIP3    H249623   1.736   6.434  17.320  0.2204 -1.6343  0.1196
 9378TIP3   OH249624   6.678   3.821  16.895 -0.5456 -0.5775 -0.3206
 9378TIP3    H149625   6.587   3.799  16.915 -0.4108 -2.3398 -1.5485
 9378TIP3    H249626   6.729   3.777  16.962 -0.5735  0.2686  0.2667
 9379TIP3   OH249627   5.178   2.568  12.445  0.3949  0.3973 -0.3101
 9379TIP3    H149628   5.118   2.637  12.418 -1.2168 -0.4898  0.8896
 9379TIP3    H249629   5.144   2.489  12.404  0.7303 -0.1152  0.3884
 9380TIP3   OH249630   2.255   3.257  13.325  0.0535  0.1389 -0.2766
 9380TIP3    H149631   2.303   3.339  13.320 -1.1070  0.7616 -1.1879
 9380TIP3    H249632   2.170   3.281  13.362  0.2444 -0.8926  0.8967
 9381TIP3   OH249633   3.982   5.885  12.137 -0.0854 -0.0075  0.3741
 9381TIP3    H149634   3.970   5.790  12.147  0.9300 -0.4770 -2.4866
 9381TIP3    H249635   3.903   5.914  12.091  1.3967 -0.1445 -2.3188
 9382TIP3   OH249636   6.705   4.500   6.265  0.1312  0.1020 -0.3642
 9382TIP3    H149637   6.790   4.490   6.309 -0.4651  0.4132  0.8755
 9382TIP3    H249638   6.727   4.504   6.172  1.4290 -0.3940 -0.0902
 9383TIP3   OH249639   3.014   2.468  15.407 -0.4619 -0.4424 -0.2828
 9383TIP3    H149640   3.080   2.438  15.344  0.2088  0.1510  0.1254
 9383TIP3    H249641   2.935   2.421  15.383  0.1297 -1.2307 -0.7362
 9384TIP3   OH249642   4.442   0.055   2.345 -0.1400  1.3193  0.1216
 9384TIP3    H149643   4.459   0.134   2.395  0.5179 -0.5106  2.9076
 9384TIP3    H249644   4.351   0.032   2.365  0.4493 -0.0006  1.3809
 9385TIP3   OH249645   3.107   1.748  14.511 -0.4638 -0.4421 -1.0217
 9385TIP3    H149646   3.141   1.677  14.457 -0.2568 -0.9721 -0.2115
 9385TIP3    H249647   3.177   1.765  14.575 -0.5354  0.4474 -1.1693
 9386TIP3   OH249648   2.171   1.711  11.084  0.1286  0.3210 -0.3239
 9386TIP3    H149649   2.234   1.710  11.156 -0.0344 -1.2741 -0.1891
 9386TIP3    H249650   2.221   1.741  11.008  0.8346 -0.0671 -0.0146
 9387TIP3   OH249651   5.096   0.321   2.257 -0.2297  0.5017  0.5024
 9387TIP3    H149652   5.008   0.285   2.268 -0.6088  0.8505 -1.2196
 9387TIP3    H249653   5.130   0.276   2.179  0.4021  1.7473  0.0533
 9388TIP3   OH249654   5.336   5.176   1.211  0.0712 -0.8372  0.2391
 9388TIP3    H149655   5.386   5.123   1.273 -0.2148 -0.4173  0.8396
 9388TIP3    H249656   5.382   5.166   1.128  1.4634 -0.0539  0.8911
 9389TIP3   OH249657   5.382   5.518   5.108  0.0260  0.3707  0.3523
 9389TIP3    H149658   5.375   5.570   5.189  2.2298  0.6414  0.3924
 9389TIP3    H249659   5.445   5.449   5.129  1.5833  1.1975 -1.5101
 9390TIP3   OH249660   6.411   2.077   1.189 -0.3948 -0.8193  0.8040
 9390TIP3    H149661   6.360   2.065   1.109 -0.7322 -0.3771  0.9527
 9390TIP3    H249662   6.349   2.114   1.252  0.4467  1.0020  0.5889
 9391TIP3   OH249663   4.896   5.014  16.236 -0.1725  0.8000 -0.5100
 9391TIP3    H149664   4.878   5.107  16.241  1.1319  1.0772 -0.7810
 9391TIP3    H249665   4.992   5.008  16.229 -0.1452 -0.5983  0.7865
 9392TIP3   OH249666   4.519   2.634  15.451 -0.1369 -0.3706 -0.0335
 9392TIP3    H149667   4.528   2.686  15.531 -1.7366 -0.1812  0.0461
 9392TIP3    H249668   4.602   2.646  15.405  0.4872  0.1862  1.2044
 9393TIP3   OH249669   1.889   2.403   2.325  0.3396 -0.0891 -0.1381
 9393TIP3    H149670   1.888   2.486   2.279 -0.8086  0.2629  0.4978
 9393TIP3    H249671   1.852   2.341   2.263 -1.1878  0.3820  0.2874
 9394TIP3   OH249672   6.255   1.132   0.550 -0.2363  0.4347  0.1256
 9394TIP3    H149673   6.238   1.183   0.471  2.3685  1.0144 -0.1105
 9394TIP3    H249674   6.250   1.041   0.520  1.5669  0.6584 -0.9347
 9395TIP3   OH249675   5.270   1.646   0.483  0.0215 -0.1755  0.1402
 9395TIP3    H149676   5.285   1.628   0.390  1.3061  2.5498 -0.2282
 9395TIP3    H249677   5.194   1.703   0.484 -0.5035 -0.8844  0.8412
 9396TIP3   OH249678   1.414   2.798  11.685  0.3771  0.3491  0.3454
 9396TIP3    H149679   1.412   2.729  11.751  0.2302 -0.3760 -0.4148
 9396TIP3    H249680   1.332   2.846  11.698  0.7617  0.7778  1.2771
 9397TIP3   OH249681   3.000   0.683   4.782  0.2626  0.2391  0.4948
 9397TIP3    H149682   3.009   0.697   4.688  0.6787  0.3972  0.5569
 9397TIP3    H249683   3.061   0.612   4.802  0.0374  0.0781  0.6144
 9398TIP3   OH249684   0.602   0.236   2.379 -0.0176 -0.0860  0.2410
 9398TIP3    H149685   0.662   0.268   2.446 -0.8752 -1.5243  1.7529
 9398TIP3    H249686   0.517   0.229   2.424 -0.8117 -0.2415 -1.2304
 9399TIP3   OH249687   0.017   2.260  12.383  0.0298 -0.5535 -0.5057
 9399TIP3    H149688   0.035   2.353  12.369 -0.4551 -0.3902 -0.0425
 9399TIP3    H249689  -0.002   2.226  12.295  0.5038 -0.2829 -0.7152
 9400TIP3   OH249690   5.319   1.379   2.913 -0.4261  0.1586 -0.5179
 9400TIP3    H149691   5.261   1.377   2.836  0.9134 -2.8133 -1.5118
 9400TIP3    H249692   5.407   1.369   2.877  0.1988 -1.4708  1.4180
 9401TIP3   OH249693   4.961   0.848   4.826  0.2071 -0.0346 -0.6807
 9401TIP3    H149694   5.042   0.837   4.875 -0.9926  0.1350  1.4082
 9401TIP3    H249695   4.936   0.758   4.802  0.8653 -0.1091 -1.1045
 9402TIP3   OH249696   0.846   5.144  15.109  0.1480 -0.3528 -0.5031
 9402TIP3    H149697   0.894   5.223  15.133  0.6762 -1.1344  1.1282
 9402TIP3    H249698   0.801   5.118  15.190 -0.4091 -1.4472 -1.1483
 9403TIP3   OH249699   4.944   0.591   2.875  0.1298  0.0201 -0.5299
 9403TIP3    H149700   4.996   0.517   2.842 -0.1395 -0.7191  0.6890
 9403TIP3    H249701   4.904   0.559   2.955  1.0919  1.9291  0.7535
 9404TIP3   OH249702   2.063   1.286  16.279  0.3327 -0.1310 -0.5953
 9404TIP3    H149703   2.056   1.380  16.258 -1.4952  0.8768  4.0700
 9404TIP3    H249704   1.989   1.246  16.233 -0.3690  1.0929 -0.5486
 9405TIP3   OH249705   1.362   6.577  16.047  0.0746 -0.3497 -0.3275
 9405TIP3    H149706   1.332   6.660  16.085 -0.6579 -0.0178 -1.5649
 9405TIP3    H249707   1.301   6.512  16.080  0.3633 -0.3085  0.2793
 9406TIP3   OH249708   4.835   5.873  15.421 -0.2026 -0.7258 -0.1176
 9406TIP3    H149709   4.864   5.964  15.427  1.2667 -1.0767 -1.5071
 9406TIP3    H249710   4.749   5.873  15.462  0.2425  1.0664  0.8937
 9407TIP3   OH249711   6.615   5.352   4.635 -0.5994 -0.3083 -0.5867
 9407TIP3    H149712   6.598   5.444   4.619  1.5708  0.0615 -0.9975
 9407TIP3    H249713   6.617   5.312   4.547  1.0482 -0.2310 -0.6032
 9408TIP3   OH249714   0.615   5.792   0.962  0.4273  0.0651 -0.4646
 9408TIP3    H149715   0.701   5.791   0.919  0.1998 -1.3626 -0.9118
 9408TIP3    H249716   0.631   5.755   1.049  0.3108  0.0357 -0.4555
 9409TIP3   OH249717   6.554   6.668  16.965 -0.1971 -0.2463  0.3484
 9409TIP3    H149718   6.467   6.654  17.003 -1.6835  2.8289 -1.7712
 9409TIP3    H249719   6.610   6.688  17.041 -1.8109 -0.0432  1.5105
 9410TIP3   OH249720   2.260   3.052  11.583  0.5039 -0.4308 -0.5724
 9410TIP3    H149721   2.286   3.129  11.533 -0.6634  0.0374 -0.4828
 9410TIP3    H249722   2.312   3.057  11.663  2.5247 -1.2962 -1.8084
 9411TIP3   OH249723   3.965   1.928  15.905  0.2062  1.0920  0.1196
 9411TIP3    H149724   4.012   2.000  15.863  2.7405 -1.7952 -2.2418
 9411TIP3    H249725   3.968   1.950  15.999  0.6184  4.1510 -0.5318
 9412TIP3   OH249726   2.324   2.127   2.418  0.0701 -0.5680  0.2090
 9412TIP3    H149727   2.297   2.219   2.414  0.1428 -0.4062  2.7140
 9412TIP3    H249728   2.243   2.079   2.430  0.2122 -0.6920  0.6543
 9413TIP3   OH249729   3.790   5.392   2.904 -0.1242  0.3320  0.0783
 9413TIP3    H149730   3.795   5.312   2.958  0.4604  0.0477 -0.3978
 9413TIP3    H249731   3.696   5.409   2.897 -0.3222 -1.0263 -0.8490
 9414TIP3   OH249732   2.147   0.918   0.370 -0.0965  0.0239 -0.3266
 9414TIP3    H149733   2.114   0.848   0.426 -1.4453  0.0705 -1.0487
 9414TIP3    H249734   2.239   0.928   0.396 -0.0610 -1.5574  0.2432
 9415TIP3   OH249735   3.817   0.925   4.662 -0.2642 -0.7887 -0.3939
 9415TIP3    H149736   3.891   0.977   4.693  0.7763 -2.8136  0.6424
 9415TIP3    H249737   3.836   0.908   4.570 -0.7084  0.8133 -0.7846
 9416TIP3   OH249738   6.772   3.849   5.704  0.3500  0.8725 -0.5457
 9416TIP3    H149739   6.758   3.892   5.620 -2.8846  0.4621 -0.2814
 9416TIP3    H249740   6.719   3.900   5.766  0.0989 -0.7792  0.6174
 9417TIP3   OH249741   4.938   4.899  11.330 -0.2192  0.1754  0.3065
 9417TIP3    H149742   4.883   4.822  11.348 -0.1366  0.1152  0.3037
 9417TIP3    H249743   4.979   4.919  11.414  0.5656 -0.4213  0.0690
 9418TIP3   OH249744   2.592   4.253   2.058 -0.3285 -0.0996  0.0961
 9418TIP3    H149745   2.588   4.269   1.963 -1.4178 -0.6941  0.0371
 9418TIP3    H249746   2.682   4.274   2.082 -0.2800  0.8940 -0.9252
 9419TIP3   OH249747   3.173   2.358  17.206 -0.8073  0.3554  0.0937
 9419TIP3    H149748   3.079   2.342  17.212 -0.2036 -2.9046  2.6555
 9419TIP3    H249749   3.198   2.322  17.121 -1.5659 -0.6134  0.2693
 9420TIP3   OH249750   2.720   4.511   6.081 -0.0189  0.0573  0.3215
 9420TIP3    H149751   2.658   4.579   6.111 -1.9919 -0.6579 -1.9913
 9420TIP3    H249752   2.684   4.481   5.998  3.5949 -0.2608 -1.2131
 9421TIP3   OH249753   3.621   2.308   4.757 -0.2830 -0.2779 -0.3452
 9421TIP3    H149754   3.709   2.290   4.725 -0.2806 -0.2751 -0.3397
 9421TIP3    H249755   3.588   2.222   4.785 -0.7174 -0.4911 -1.4552
 9422TIP3   OH249756   5.737   4.910  15.132 -0.0080 -0.2493  0.2354
 9422TIP3    H149757   5.819   4.862  15.119  0.2665  0.2755  0.0094
 9422TIP3    H249758   5.693   4.863  15.202  0.2076 -0.8969 -0.0520
 9423TIP3   OH249759   5.144   5.685  16.496  0.0466  0.2893  0.2155
 9423TIP3    H149760   5.084   5.699  16.422  0.8388  1.2658 -0.2596
 9423TIP3    H249761   5.142   5.768  16.544 -0.9188 -0.5481  1.6395
 9424TIP3   OH249762   2.138   5.028   2.009 -0.6353 -0.5494 -0.2250
 9424TIP3    H149763   2.120   5.079   2.088 -1.9527  0.3754 -1.0999
 9424TIP3    H249764   2.222   5.061   1.978 -1.1881  0.6681 -0.4481
 9425TIP3   OH249765   2.643   1.815   2.486  0.0297  0.1583 -0.7155
 9425TIP3    H149766   2.645   1.787   2.577 -1.1557  0.8228 -0.4746
 9425TIP3    H249767   2.621   1.908   2.490  0.2621  0.2591 -1.6660
 9426TIP3   OH249768   2.037   4.209  14.820  0.4325  0.2037 -0.1042
 9426TIP3    H149769   2.122   4.243  14.792  0.1729  0.1689 -0.9579
 9426TIP3    H249770   2.005   4.272  14.883  0.6184  0.7788 -0.5802
 9427TIP3   OH249771   1.817   5.162   1.426  0.1857  0.5344 -0.0955
 9427TIP3    H149772   1.803   5.098   1.495 -0.8803 -0.1030 -0.8945
 9427TIP3    H249773   1.896   5.132   1.381  1.9031  1.9073  1.8976
 9428TIP3   OH249774   0.366   3.736   0.732 -0.4461 -0.1372 -0.4026
 9428TIP3    H149775   0.416   3.807   0.772 -0.4234  0.4430 -1.4210
 9428TIP3    H249776   0.360   3.669   0.799  0.8023  0.2316  0.0877
 9429TIP3   OH249777   5.693   5.515  15.709 -0.7089  0.4669  0.0713
 9429TIP3    H149778   5.783   5.509  15.676 -1.2373  0.9441 -1.4733
 9429TIP3    H249779   5.641   5.466  15.645 -1.4013 -0.7566  1.5570
 9430TIP3   OH249780   5.040   1.597   2.422  0.4563  0.3868  0.3307
 9430TIP3    H149781   5.069   1.535   2.488  3.5891  1.6981  0.2441
 9430TIP3    H249782   4.962   1.637   2.460 -0.1754 -1.7909  1.4282
 9431TIP3   OH249783   4.880   4.422   5.898 -0.0031 -0.0922  0.4510
 9431TIP3    H149784   4.952   4.478   5.928 -2.3820  2.8172  0.8929
 9431TIP3    H249785   4.856   4.370   5.975 -0.6419  1.4309  1.2912
 9432TIP3   OH249786   1.672   6.420   2.584 -0.1519  0.4517 -0.1907
 9432TIP3    H149787   1.685   6.356   2.654 -0.2247  0.2904 -0.3253
 9432TIP3    H249788   1.667   6.367   2.504 -1.2057  0.5524 -0.1923
 9433TIP3   OH249789   6.791   6.545  11.710 -0.7341  0.3065 -0.3785
 9433TIP3    H149790   6.745   6.628  11.701  0.2805  0.9047 -0.1004
 9433TIP3    H249791   6.779   6.521  11.802 -0.2665  0.5986 -0.2403
 9434TIP3   OH249792   2.671   3.667   0.664  0.4969  0.1040  0.2822
 9434TIP3    H149793   2.746   3.671   0.723  0.3979  1.8435  0.3293
 9434TIP3    H249794   2.699   3.718   0.587 -0.0015 -0.6955 -0.4407
 9435TIP3   OH249795   3.902   1.515  13.256 -0.5768  0.2143 -0.2538
 9435TIP3    H149796   3.957   1.593  13.258  4.0363 -2.8323  0.2298
 9435TIP3    H249797   3.897   1.487  13.348 -1.3010 -0.6158 -0.5383
 9436TIP3   OH249798   1.971   4.602  13.572  0.4896 -0.2969  0.2210
 9436TIP3    H149799   1.963   4.509  13.592 -1.6890  0.3862  2.7285
 9436TIP3    H249800   1.900   4.620  13.510 -0.9069  0.2812  1.9739
 9437TIP3   OH249801   0.214   6.115  14.227 -0.5222 -0.1524  0.2554
 9437TIP3    H149802   0.234   6.089  14.317 -2.6830 -0.5150  0.6397
 9437TIP3    H249803   0.236   6.208  14.223 -0.4978 -0.1167  1.1687
 9438TIP3   OH249804   0.233   2.780  13.655 -0.3010 -0.5837  0.3337
 9438TIP3    H149805   0.300   2.848  13.655 -0.9424  0.0583 -0.2146
 9438TIP3    H249806   0.198   2.781  13.744  0.4954 -1.0118  0.6605
 9439TIP3   OH249807   1.412   2.798  13.158  0.1300  0.3479 -0.1378
 9439TIP3    H149808   1.398   2.795  13.063  0.6623  1.2627 -0.2507
 9439TIP3    H249809   1.354   2.868  13.188 -0.9406 -0.7378  0.3887
 9440TIP3   OH249810   4.019   1.020   0.783  0.4817 -0.2790 -0.0913
 9440TIP3    H149811   3.940   1.072   0.792  0.5497 -0.1719 -0.1095
 9440TIP3    H249812   4.091   1.083   0.788  0.5282 -0.2334 -1.1571
 9441TIP3   OH249813   1.426   3.290   2.782 -0.7447 -0.1484  0.4750
 9441TIP3    H149814   1.449   3.218   2.723 -1.2267  0.7622 -0.8318
 9441TIP3    H249815   1.426   3.250   2.869 -1.4028 -1.8336 -0.2729
 9442TIP3   OH249816   5.687   4.257  12.355  0.1170  0.3887 -0.2904
 9442TIP3    H149817   5.780   4.282  12.356  0.2690 -0.1896  1.7984
 9442TIP3    H249818   5.688   4.163  12.375 -0.7060 -0.4801 -3.9512
 9443TIP3   OH249819   2.060   6.145   5.174 -0.1552 -0.0180  0.2264
 9443TIP3    H149820   1.981   6.141   5.119  1.1890  0.7756 -1.8184
 9443TIP3    H249821   2.122   6.087   5.130  1.2844  1.3991  0.3643
 9444TIP3   OH249822   4.666   4.143   0.851 -0.4765  0.8056  0.0364
 9444TIP3    H149823   4.715   4.180   0.778  0.8567  0.1092  0.5568
 9444TIP3    H249824   4.595   4.094   0.810 -0.6013  1.6078 -0.7347
 9445TIP3   OH249825   2.154   2.336  15.141 -0.0488 -0.4540 -0.3532
 9445TIP3    H149826   2.205   2.351  15.062  0.7865  1.4370  0.5293
 9445TIP3    H249827   2.163   2.416  15.192 -3.7186 -0.1230 -0.0492
 9446TIP3   OH249828   5.596   4.042  15.887  0.0412  0.2069 -0.3245
 9446TIP3    H149829   5.616   3.961  15.841  0.1628  0.5463 -0.8729
 9446TIP3    H249830   5.635   4.111  15.833  0.7483  0.5609  0.6184
 9447TIP3   OH249831   0.773   0.481  14.499  0.3899  0.9889  0.2022
 9447TIP3    H149832   0.739   0.418  14.434  1.0411 -0.1579  0.9595
 9447TIP3    H249833   0.860   0.504  14.467  0.0348  1.7541 -0.2334
 9448TIP3   OH249834   6.539   2.701  16.650  0.2988  0.1473  0.1691
 9448TIP3    H149835   6.615   2.642  16.651  0.9055  0.8644 -1.0978
 9448TIP3    H249836   6.555   2.762  16.722  0.7145  0.0364  0.1724
 9449TIP3   OH249837   5.948   3.210   0.596  0.0570  0.4735 -0.0527
 9449TIP3    H149838   5.991   3.130   0.624  1.3443  1.5922  1.2499
 9449TIP3    H249839   5.861   3.182   0.568 -0.3900 -1.0793  2.6711
 9450TIP3   OH249840   3.612   0.836   0.349 -0.1461  0.1732  0.3544
 9450TIP3    H149841   3.624   0.911   0.407  2.0812 -1.1618  1.6693
 9450TIP3    H249842   3.544   0.783   0.391 -0.2655  0.4280  0.4814
 9451TIP3   OH249843   0.963   0.206   4.893  0.2855  0.4000  0.6773
 9451TIP3    H149844   0.943   0.160   4.811  0.4653  0.4334  0.6131
 9451TIP3    H249845   0.928   0.294   4.881 -1.8176 -0.2808  1.5613
 9452TIP3   OH249846   5.023   6.349   0.884  0.2229  0.0697 -0.1058
 9452TIP3    H149847   4.973   6.363   0.964  0.3364 -0.2665  0.0229
 9452TIP3    H249848   5.038   6.437   0.850  0.0685  0.2057  0.1782
 9453TIP3   OH249849   4.337   3.858   3.914 -0.0430 -0.4561 -0.2000
 9453TIP3    H149850   4.351   3.771   3.950  0.8259 -1.1444 -2.1316
 9453TIP3    H249851   4.335   3.845   3.819 -3.7977  1.0651 -0.4331
 9454TIP3   OH249852   0.579   5.828  14.798 -0.5365 -0.1082 -0.1540
 9454TIP3    H149853   0.507   5.784  14.845  0.9719 -1.3741  1.0338
 9454TIP3    H249854   0.617   5.760  14.744  0.9219  0.0943  0.6054
 9455TIP3   OH249855   1.068   2.418   5.688  0.0639  0.2188  0.3825
 9455TIP3    H149856   0.998   2.413   5.753  1.9699 -0.2583  2.4749
 9455TIP3    H249857   1.062   2.337   5.639 -0.7595  0.1084  0.6657
 9456TIP3   OH249858   5.566   2.372  11.023 -0.3937  0.4193 -0.0379
 9456TIP3    H149859   5.506   2.323  10.965 -2.4060  0.1162  2.2077
 9456TIP3    H249860   5.596   2.446  10.970 -2.9312  0.6768 -1.1969
 9457TIP3   OH249861   5.037   2.438  16.010  0.0358 -0.3923  0.7654
 9457TIP3    H149862   5.104   2.399  16.067 -0.1416 -0.7128  0.7566
 9457TIP3    H249863   5.031   2.377  15.936  0.5506  0.2316  0.2099
 9458TIP3   OH249864   3.237   5.242   1.035  0.3081  0.6099  0.3094
 9458TIP3    H149865   3.322   5.267   1.069  0.1528  1.5622  0.0220
 9458TIP3    H249866   3.192   5.326   1.019  0.5319  0.2244 -2.5860
 9459TIP3   OH249867   1.646   5.321   4.994  0.4262  0.3423  0.8567
 9459TIP3    H149868   1.590   5.260   5.043  0.3012 -0.1481  0.1119
 9459TIP3    H249869   1.701   5.362   5.061  1.0363 -1.1513  1.2828
 9460TIP3   OH249870   4.054   0.028   5.504  0.4502 -0.0496 -0.2292
 9460TIP3    H149871   4.115   0.018   5.577 -1.9097  2.7780  2.2954
 9460TIP3    H249872   4.103   0.077   5.438  1.5313  0.4388  0.9223
 9461TIP3   OH249873   1.264   5.366  14.256 -0.3424  0.0527  0.6125
 9461TIP3    H149874   1.323   5.343  14.184  0.7270  1.8724  0.8689
 9461TIP3    H249875   1.180   5.384  14.213 -0.0553 -0.1335 -0.0329
 9462TIP3   OH249876   3.762   5.856   4.001 -0.1290  0.3674  0.1191
 9462TIP3    H149877   3.844   5.905   3.997 -0.7489  1.3354 -0.9814
 9462TIP3    H249878   3.706   5.907   4.059 -1.2092  1.6972 -1.9922
 9463TIP3   OH249879   3.338   0.357   6.415  0.3941 -0.1331  0.0596
 9463TIP3    H149880   3.279   0.282   6.410 -1.4674  1.3953 -1.4913
 9463TIP3    H249881   3.424   0.318   6.431 -0.4919 -2.6114 -0.9180
 9464TIP3   OH249882   6.620   4.990   5.573 -0.2946 -0.2705 -0.2293
 9464TIP3    H149883   6.674   4.912   5.586  1.2567  0.7795 -0.3043
 9464TIP3    H249884   6.663   5.037   5.502 -3.0686 -0.9698 -2.4834
 9465TIP3   OH249885   1.683   5.646  11.993 -0.2405  0.1696 -0.0455
 9465TIP3    H149886   1.665   5.626  12.085  0.5410 -0.0037  0.0736
 9465TIP3    H249887   1.614   5.600  11.944 -1.0885  0.8518  0.4884
 9466TIP3   OH249888   2.055   1.969  16.575 -0.4699  0.6161 -0.1482
 9466TIP3    H149889   1.988   2.005  16.632  0.0526  2.0266 -0.3964
 9466TIP3    H249890   2.136   1.974  16.626 -0.2886  0.3337 -0.4007
 9467TIP3   OH249891   3.274   3.233   2.829 -0.2125  0.0711  0.6569
 9467TIP3    H149892   3.239   3.317   2.798 -0.5676 -0.5350 -0.6036
 9467TIP3    H249893   3.293   3.248   2.922  0.1416  1.6806  0.3424
 9468TIP3   OH249894   2.192   2.917   5.008 -0.1741  0.0022  0.0450
 9468TIP3    H149895   2.148   2.918   4.922 -1.0598 -1.9405  0.4356
 9468TIP3    H249896   2.149   2.845   5.055  0.7338  0.6527  1.8987
 9469TIP3   OH249897   4.235   1.855   4.559  0.0333  0.4720  0.8251
 9469TIP3    H149898   4.282   1.862   4.642  0.9525 -0.9048  0.4289
 9469TIP3    H249899   4.160   1.799   4.578  0.5233 -0.2559  0.5997
 9470TIP3   OH249900   6.145   0.109  15.079 -0.5808 -0.2479 -0.2293
 9470TIP3    H149901   6.117   0.075  15.164 -1.6674  0.9193 -0.0927
 9470TIP3    H249902   6.177   0.198  15.098  0.4871 -0.4923 -0.8383
 9471TIP3   OH249903   6.423   2.916  10.891 -0.1661 -0.2413  0.4128
 9471TIP3    H149904   6.514   2.908  10.918  0.0276  0.8756  0.1110
 9471TIP3    H249905   6.427   2.942  10.799 -0.8035 -1.5926 -0.0184
 9472TIP3   OH249906   5.440   2.215   2.290 -0.1756  0.6198  0.5502
 9472TIP3    H149907   5.425   2.300   2.331  1.5751  2.2906 -2.1203
 9472TIP3    H249908   5.472   2.236   2.203  2.7231 -2.7621  0.6897
 9473TIP3   OH249909   3.497   1.065   1.853  0.5836  0.2470  0.7630
 9473TIP3    H149910   3.563   1.038   1.789  1.2318  0.9403  1.1434
 9473TIP3    H249911   3.414   1.059   1.805  1.0895  0.9836 -0.2187
 9474TIP3   OH249912   5.469   0.701  15.161  0.3041  0.0778  0.0885
 9474TIP3    H149913   5.441   0.627  15.215 -0.4187  0.5646  0.3794
 9474TIP3    H249914   5.556   0.676  15.131 -0.1082 -1.0898 -0.1700
 9475TIP3   OH249915   6.280   2.651  11.976  0.8096 -0.0177 -0.1476
 9475TIP3    H149916   6.248   2.717  11.914  0.5784  0.3816  0.3857
 9475TIP3    H249917   6.219   2.657  12.050 -0.4844 -2.3216 -0.9918
 9476TIP3   OH249918   4.285   4.774  14.088  0.0206  0.4907 -0.4986
 9476TIP3    H149919   4.277   4.679  14.086  0.2098  0.4627  0.0828
 9476TIP3    H249920   4.373   4.790  14.122 -0.2155  0.8815 -0.0648
 9477TIP3   OH249921   1.159   0.836  13.754 -0.1597 -0.3721  0.4596
 9477TIP3    H149922   1.069   0.867  13.761  0.2094  0.6284  0.8827
 9477TIP3    H249923   1.160   0.782  13.674 -0.9933  0.0679  0.1467
 9478TIP3   OH249924   6.666   4.614   0.073  0.7654 -0.0617 -0.6111
 9478TIP3    H149925   6.728   4.676   0.033 -0.1191  0.8567 -0.5708
 9478TIP3    H249926   6.677   4.626   0.167  0.9500 -0.3314 -0.5965
 9479TIP3   OH249927   5.122   1.740   5.598  0.4785 -0.7717  0.0906
 9479TIP3    H149928   5.136   1.740   5.504 -1.3871 -0.0739 -0.1938
 9479TIP3    H249929   5.102   1.649   5.620 -2.4523 -0.3494 -0.7116
 9480TIP3   OH249930   5.896   1.502  16.710  0.4606  0.1586  0.1422
 9480TIP3    H149931   5.910   1.421  16.662 -1.4140 -0.9491  1.4078
 9480TIP3    H249932   5.852   1.560  16.648  1.9602  0.2934 -0.8181
 9481TIP3   OH249933   1.657   3.285   3.921  0.4570 -0.0793 -0.3983
 9481TIP3    H149934   1.597   3.214   3.944 -0.9021  0.7611 -1.2490
 9481TIP3    H249935   1.706   3.302   4.001 -1.0733 -0.1902  0.5747
 9482TIP3   OH249936   0.300   6.216  16.416  0.3649  0.1678  0.0034
 9482TIP3    H149937   0.241   6.203  16.490  2.1024  0.3815  1.4456
 9482TIP3    H249938   0.305   6.130  16.373  1.0024 -0.4988  1.3933
 9483TIP3   OH249939   5.066   5.037   0.295  0.0882  0.1790 -0.3885
 9483TIP3    H149940   5.042   4.990   0.375  0.7494 -1.2361 -0.9887
 9483TIP3    H249941   4.984   5.073   0.262 -0.3514 -0.0918  0.3959
 9484TIP3   OH249942   0.219   2.746   2.267 -0.2649 -0.3544 -0.0608
 9484TIP3    H149943   0.141   2.751   2.321 -0.2532 -2.2578  0.1591
 9484TIP3    H249944   0.266   2.669   2.299  0.7012 -0.3816 -1.4900
 9485TIP3   OH249945   6.373   1.469   4.751  0.4817  0.0158 -0.1323
 9485TIP3    H149946   6.370   1.393   4.810  0.5789  0.1514  0.0467
 9485TIP3    H249947   6.281   1.482   4.725  0.6406 -1.0028 -1.2395
 9486TIP3   OH249948   3.948   0.987  17.148  0.6027  0.0936  0.0783
 9486TIP3    H149949   3.995   1.068  17.169  2.9532 -0.8136 -1.4268
 9486TIP3    H249950   3.951   0.936  17.228  1.1952  0.5234  0.3378
 9487TIP3   OH249951   4.604   1.029  13.700  0.2182  0.3653  0.4153
 9487TIP3    H149952   4.532   1.092  13.696  0.5056  0.6682 -0.1278
 9487TIP3    H249953   4.636   1.024  13.609 -0.8304 -1.7555  0.1509
 9488TIP3   OH249954   3.292   4.759  13.529  0.0387  0.0124  0.5447
 9488TIP3    H149955   3.366   4.804  13.487  1.3675 -1.2084  1.5505
 9488TIP3    H249956   3.253   4.826  13.585 -0.0997  0.8792 -0.5628
 9489TIP3   OH249957   4.902   5.871  12.966 -0.3184 -0.5793  0.2899
 9489TIP3    H149958   4.976   5.912  13.010  0.3835 -0.4635 -0.9664
 9489TIP3    H249959   4.941   5.826  12.891 -1.8596  2.3562 -2.3960
 9490TIP3   OH249960   1.255   0.209   0.741 -0.5104  0.1207 -0.0411
 9490TIP3    H149961   1.179   0.151   0.741 -1.4825  1.3302 -1.7053
 9490TIP3    H249962   1.306   0.182   0.664 -1.7326  2.3742 -1.6988
 9491TIP3   OH249963   3.428   0.036  13.519 -0.1001 -0.4774 -0.1388
 9491TIP3    H149964   3.335   0.050  13.540 -0.2132  0.7572 -1.3829
 9491TIP3    H249965   3.467   0.010  13.602 -1.5950 -1.2286  0.3600
 9492TIP3   OH249966   4.583   3.570   3.636 -0.0434 -0.8324  0.0648
 9492TIP3    H149967   4.675   3.562   3.663  0.8073  1.9214 -1.7866
 9492TIP3    H249968   4.537   3.596   3.716  1.4613  1.5065  0.2245
 9493TIP3   OH249969   0.485   4.560  12.759  0.1018  0.2127 -0.7252
 9493TIP3    H149970   0.469   4.592  12.848  0.7611 -0.2921 -0.4256
 9493TIP3    H249971   0.408   4.507  12.738  0.5760 -0.7735  0.0471
 9494TIP3   OH249972   3.408   3.666   4.224 -0.3414 -0.4163 -0.5985
 9494TIP3    H149973   3.383   3.662   4.317 -0.8395 -1.1482 -0.7576
 9494TIP3    H249974   3.368   3.588   4.185  0.6754 -0.6251 -1.2414
 9495TIP3   OH249975   0.895   2.161   5.854 -0.5118  0.0059  0.0473
 9495TIP3    H149976   0.953   2.114   5.794 -0.3327  0.2651  0.0167
 9495TIP3    H249977   0.817   2.106   5.859 -0.0573 -0.6051  0.4967
 9496TIP3   OH249978   3.769   3.461  16.322 -0.7745  0.3661 -0.2540
 9496TIP3    H149979   3.728   3.474  16.237 -0.3649 -1.9677 -0.8513
 9496TIP3    H249980   3.700   3.424  16.377 -0.1447 -1.3931 -0.6014
 9497TIP3   OH249981   3.300   4.757   3.645 -0.3565  0.1369 -0.1489
 9497TIP3    H149982   3.320   4.687   3.707  0.1726 -0.1725 -0.6618
 9497TIP3    H249983   3.369   4.821   3.659 -0.9710  0.6679  0.4807
 9498TIP3   OH249984   5.218   5.483   5.540  0.6477  0.9155  0.5096
 9498TIP3    H149985   5.242   5.399   5.501 -1.0058 -0.5630  2.5930
 9498TIP3    H249986   5.286   5.543   5.510  0.2990 -0.4728 -3.3682
 9499TIP3   OH249987   4.474   0.351  15.375  0.5333  0.5577  0.1831
 9499TIP3    H149988   4.462   0.287  15.305 -1.6805 -0.2122  1.2224
 9499TIP3    H249989   4.532   0.306  15.437 -1.2812 -0.6067  1.0683
 9500TIP3   OH249990   3.469   1.510  12.270  0.3701 -0.6496 -0.0518
 9500TIP3    H149991   3.483   1.418  12.289  5.3141  0.0203  0.2035
 9500TIP3    H249992   3.531   1.556  12.326  1.3015  2.5087 -3.4402
 9501TIP3   OH249993   3.000   3.410   4.306  0.2970 -0.0558  0.0167
 9501TIP3    H149994   2.940   3.431   4.235  1.2733 -0.7366 -1.0448
 9501TIP3    H249995   2.948   3.357   4.367 -0.7409  1.1241  0.1777
 9502TIP3   OH249996   0.923   4.758  15.918  0.4748  0.0941 -0.0859
 9502TIP3    H149997   0.928   4.747  15.823  1.4938 -3.4676  0.3137
 9502TIP3    H249998   1.013   4.772  15.946  0.3015  0.1082  0.4699
 9503TIP3   OH249999   5.022   1.455  12.863  0.1570  0.0151 -0.6646
 9503TIP3    H150000   5.037   1.542  12.827 -1.2149  1.1344  1.3778
 9503TIP3    H250001   5.102   1.436  12.913 -0.4178  1.0456  0.6721
 9504TIP3   OH250002   6.458   4.955  13.504 -0.1437 -0.7950  0.1123
 9504TIP3    H150003   6.518   5.015  13.460 -1.2571  1.4450  1.5753
 9504TIP3    H250004   6.516   4.893  13.548  1.1043  0.5173  0.3810
 9505TIP3   OH250005   4.815   3.353  11.083 -0.0947 -0.7760  0.4112
 9505TIP3    H150006   4.768   3.284  11.131  2.2037 -1.6718  1.4576
 9505TIP3    H250007   4.748   3.395  11.030 -2.3968 -0.9901  3.0228
 9506TIP3   OH250008   2.240   5.189   5.096  0.0646  0.2849  0.5416
 9506TIP3    H150009   2.149   5.164   5.111 -0.2797  0.0536 -1.7670
 9506TIP3    H250010   2.269   5.226   5.180 -2.1092  0.2962  1.3224
 9507TIP3   OH250011   5.112   4.991   2.209 -0.1524 -0.0521 -0.1925
 9507TIP3    H150012   5.158   4.967   2.289  0.3007 -0.0274 -0.4397
 9507TIP3    H250013   5.033   5.035   2.238  1.2389  2.2682  0.2542
 9508TIP3   OH250014   1.905   5.682  10.980 -0.1359 -0.1700  0.4666
 9508TIP3    H150015   1.894   5.773  11.010 -0.4734 -0.2642  0.6301
 9508TIP3    H250016   1.959   5.689  10.901  1.4446  0.0210  1.5439
 9509TIP3   OH250017   4.113   2.782   0.451  0.3955 -0.4208 -0.3275
 9509TIP3    H150018   4.121   2.687   0.442  0.8498 -0.3637 -0.5661
 9509TIP3    H250019   4.204   2.812   0.462  0.3919  0.1308 -1.7493
 9510TIP3   OH250020   5.776   0.530  14.543 -0.0420 -0.1527  0.2852
 9510TIP3    H150021   5.760   0.498  14.632 -0.7429  0.9040  0.5528
 9510TIP3    H250022   5.858   0.489  14.517 -1.1934 -2.6438  0.3792
 9511TIP3   OH250023   5.711   3.978   6.611  0.2265 -0.0384 -0.1078
 9511TIP3    H150024   5.732   4.062   6.653  1.9624  0.0396 -1.0763
 9511TIP3    H250025   5.626   3.993   6.570  1.0543  1.6730 -1.2848
 9512TIP3   OH250026   2.220   3.160  12.375 -0.1902  0.0716  0.0819
 9512TIP3    H150027   2.199   3.253  12.381 -0.1834  0.0678  0.1667
 9512TIP3    H250028   2.273   3.152  12.296 -0.8651  0.0142 -0.3625
 9513TIP3   OH250029   2.452   3.791  11.152 -0.0267  0.1671 -0.1815
 9513TIP3    H150030   2.504   3.807  11.231 -2.0096  0.8598  1.0174
 9513TIP3    H250031   2.383   3.732  11.181 -0.9201  0.6357 -1.3576
 9514TIP3   OH250032   2.458   2.496  16.997  0.2571 -0.3770  0.0811
 9514TIP3    H150033   2.519   2.507  16.924 -0.2119  1.4495 -0.0693
 9514TIP3    H250034   2.378   2.539  16.968 -0.5760 -1.3502  0.9209
 9515TIP3   OH250035   4.766   1.693  16.322  0.3894 -0.2783  0.1348
 9515TIP3    H150036   4.738   1.705  16.231 -1.4108 -1.1531  0.5544
 9515TIP3    H250037   4.723   1.612  16.350  1.9493 -0.6964  1.3739
 9516TIP3   OH250038   5.634   4.130  14.557  0.1557  0.5394 -0.0687
 9516TIP3    H150039   5.641   4.132  14.461  3.4408  0.3051  0.1073
 9516TIP3    H250040   5.651   4.039  14.580  1.1304  0.9315  0.8206
 9517TIP3   OH250041   4.325   2.142   3.281 -0.5643  0.5983  0.1933
 9517TIP3    H150042   4.336   2.160   3.374 -0.3374  1.9921 -0.0954
 9517TIP3    H250043   4.413   2.116   3.251 -0.2043  2.0246 -0.0248
 9518TIP3   OH250044   0.395   3.987   3.510 -0.3250  0.4455 -0.1758
 9518TIP3    H150045   0.470   3.992   3.450 -0.4137 -2.4778 -0.5782
 9518TIP3    H250046   0.434   3.991   3.597  0.1844  0.2330 -0.3899
 9519TIP3   OH250047   5.250   6.139  14.785  0.6433 -0.5010 -0.2853
 9519TIP3    H150048   5.336   6.169  14.755  1.1158 -1.1080  0.4437
 9519TIP3    H250049   5.249   6.158  14.879 -0.3381  0.2361 -0.4348
 9520TIP3   OH250050   5.388   1.614   0.051 -0.0667  0.1458 -0.1834
 9520TIP3    H150051   5.454   1.558   0.009 -1.9606 -1.1517 -1.5167
 9520TIP3    H250052   5.352   1.559   0.121 -2.0097 -0.3953 -1.5649
 9521TIP3   OH250053   4.386   4.932   0.798 -0.2924 -0.2765  0.1896
 9521TIP3    H150054   4.321   4.904   0.863 -2.5029  0.6912 -1.5750
 9521TIP3    H250055   4.455   4.973   0.851 -2.3929  1.1579  1.9072
 9522TIP3   OH250056   4.734   5.512  13.595 -0.4738  0.0712  0.6701
 9522TIP3    H150057   4.644   5.485  13.611 -1.3626  0.5627 -2.9172
 9522TIP3    H250058   4.726   5.589  13.539  2.1659  1.0106  1.5156
 9523TIP3   OH250059   5.867   2.079  14.190  0.9724 -0.2905  0.3958
 9523TIP3    H150060   5.886   2.048  14.101  0.5231 -1.4791  0.7056
 9523TIP3    H250061   5.933   2.037  14.245  0.4892 -0.5286  0.7972
 9524TIP3   OH250062   0.475   5.624  12.365 -0.0158  0.3112 -0.3487
 9524TIP3    H150063   0.422   5.544  12.363 -0.2480  0.4954 -2.2306
 9524TIP3    H250064   0.564   5.594  12.350 -0.1160  0.4183 -1.1516
 9525TIP3   OH250065   4.048   6.455  13.079  0.1657 -0.0457  0.1534
 9525TIP3    H150066   4.068   6.463  13.172  0.5447  3.1927 -0.1533
 9525TIP3    H250067   4.013   6.366  13.070  0.8601 -0.6981  3.2211
 9526TIP3   OH250068   0.548   1.820   5.512 -0.0962 -0.3211  0.2287
 9526TIP3    H150069   0.545   1.764   5.590 -0.4218 -0.7313 -0.0792
 9526TIP3    H250070   0.595   1.767   5.447 -0.1724 -0.1331  0.0215
 9527TIP3   OH250071   0.029   3.184   5.019  0.9849  0.1376  0.0614
 9527TIP3    H150072  -0.038   3.169   4.951  1.7368 -1.8850 -0.2604
 9527TIP3    H250073   0.028   3.279   5.032  0.5177  0.5384 -2.4895
 9528TIP3   OH250074   3.915   4.551  14.004 -0.5258 -0.0338 -0.6986
 9528TIP3    H150075   3.840   4.507  13.965 -0.8118  0.8974 -1.2069
 9528TIP3    H250076   3.885   4.576  14.092 -0.8821  0.5462 -0.9886
 9529TIP3   OH250077   6.731   1.384   0.395  0.7380  0.1161 -0.6731
 9529TIP3    H150078   6.703   1.456   0.339  1.5059 -0.5621 -1.9532
 9529TIP3    H250079   6.650   1.343   0.425  0.3105  1.0187 -0.5684
 9530TIP3   OH250080   6.383   1.929   2.057 -0.2615  0.3759  0.0985
 9530TIP3    H150081   6.375   2.024   2.047  0.3543  0.2449 -1.9337
 9530TIP3    H250082   6.431   1.901   1.979 -0.6464 -1.6342  0.5561
 9531TIP3   OH250083   4.732   2.272   2.499  0.4787 -0.3282 -0.1287
 9531TIP3    H150084   4.821   2.244   2.519  0.5944  0.4711  0.4664
 9531TIP3    H250085   4.715   2.346   2.557 -1.0529 -1.3198  0.7306
 9532TIP3   OH250086   4.098   6.283   4.288 -0.0671 -0.0355 -0.5479
 9532TIP3    H150087   4.181   6.329   4.302  0.1467  0.0163 -1.8988
 9532TIP3    H250088   4.036   6.351   4.262 -0.2672 -0.2248 -0.5677
 9533TIP3   OH250089   4.554   0.981  12.865  0.4034 -0.2028 -0.0942
 9533TIP3    H150090   4.473   0.937  12.839  1.0360 -0.6954 -1.2667
 9533TIP3    H250091   4.527   1.070  12.887 -0.5502 -0.5489  0.1543
 9534TIP3   OH250092   5.245   0.966   1.311  0.0591  0.5444  0.0107
 9534TIP3    H150093   5.268   0.922   1.229  1.5524  1.9137 -0.3208
 9534TIP3    H250094   5.277   0.907   1.379  0.8227  0.4644 -0.4144
 9535TIP3   OH250095   0.083   5.738  11.222  0.0234 -0.3776  0.1079
 9535TIP3    H150096   0.178   5.747  11.227  0.1341 -0.0373 -2.0510
 9535TIP3    H250097   0.067   5.709  11.132 -1.8959 -0.6559  0.5320
 9536TIP3   OH250098   2.623   1.928   3.597  0.3844 -0.4548  0.2269
 9536TIP3    H150099   2.677   1.924   3.518  0.0425 -0.7480  0.0068
 9536TIP3    H250100   2.601   2.021   3.607  1.5938 -0.2092  0.7716
 9537TIP3   OH250101   1.413   4.455   5.940  0.1124  0.3688  0.0119
 9537TIP3    H150102   1.339   4.426   5.886 -0.6999 -0.1162  1.3447
 9537TIP3    H250103   1.441   4.377   5.987  0.5155  0.8686  0.6128
 9538TIP3   OH250104   3.454   4.941  17.168 -0.0597  0.1762 -0.5244
 9538TIP3    H150105   3.533   4.989  17.142 -0.4304  0.2295 -1.6009
 9538TIP3    H250106   3.389   5.008  17.186 -0.6413  0.1050 -2.2344
 9539TIP3   OH250107   2.959   1.866   1.112  0.4682  0.0569  0.1370
 9539TIP3    H150108   2.879   1.913   1.136 -0.6700 -1.4042 -0.7354
 9539TIP3    H250109   2.933   1.774   1.108  1.5618 -0.1712 -2.7867
 9540TIP3   OH250110   4.372   4.417  12.096  0.0716 -0.5444  0.1298
 9540TIP3    H150111   4.375   4.494  12.039  1.2675  0.9185  2.1101
 9540TIP3    H250112   4.464   4.394  12.111 -0.1890 -0.4021  2.0990
 9541TIP3   OH250113   2.789   1.684  15.288  0.2831 -0.0766  0.0079
 9541TIP3    H150114   2.751   1.630  15.219 -0.5977  0.7189 -0.1387
 9541TIP3    H250115   2.752   1.650  15.369  0.5609 -0.3785  0.0109
 9542TIP3   OH250116   6.023   2.098   0.199  0.3115 -0.0357  0.0109
 9542TIP3    H150117   5.982   2.117   0.115 -0.2881  0.6710  0.4555
 9542TIP3    H250118   6.085   2.169   0.212  1.9543 -1.2763 -0.8150
 9543TIP3   OH250119   4.326   2.366  13.742  0.1694 -0.2866 -0.2626
 9543TIP3    H150120   4.253   2.377  13.803 -0.1058 -2.9582 -0.0451
 9543TIP3    H250121   4.319   2.275  13.713  0.8117  0.6673 -3.6154
 9544TIP3   OH250122   0.482   3.855  14.514 -0.6893  1.4893  0.5621
 9544TIP3    H150123   0.387   3.855  14.498 -0.9372  0.2551  1.9957
 9544TIP3    H250124   0.520   3.831  14.429 -1.8145 -1.1189  0.7791
 9545TIP3   OH250125   0.963   0.086  11.697 -0.1666  0.6007  0.3492
 9545TIP3    H150126   0.893   0.109  11.758 -0.9252 -0.9522  0.0871
 9545TIP3    H250127   0.921   0.085  11.611  0.1341 -0.5211  0.2091
 9546TIP3   OH250128   5.867   6.397  14.035  0.0052 -0.0719  0.6757
 9546TIP3    H150129   5.941   6.341  14.011  1.4145  1.8831  0.2925
 9546TIP3    H250130   5.827   6.353  14.110  0.6559 -1.9135 -0.0110
 9547TIP3   OH250131   2.690   4.985   2.476 -0.0761  0.3297  0.1645
 9547TIP3    H150132   2.753   4.964   2.407  1.6330  3.8540  0.5661
 9547TIP3    H250133   2.701   4.915   2.540  1.9836 -0.2054 -0.7348
 9548TIP3   OH250134   4.104   5.183   2.615  0.0396  0.0140  0.6415
 9548TIP3    H150135   4.049   5.157   2.541 -0.8950 -0.6388  1.5514
 9548TIP3    H250136   4.049   5.169   2.692  1.3753 -0.3503  1.5502
 9549TIP3   OH250137   1.310   0.407  10.307 -0.0845  0.1999 -0.3291
 9549TIP3    H150138   1.248   0.381  10.239 -1.4151  0.7887  0.6402
 9549TIP3    H250139   1.260   0.463  10.366  1.0249 -0.3539  1.1891
 9550TIP3   OH250140   3.611   0.030   5.148  0.1600 -0.3031  0.4439
 9550TIP3    H150141   3.697   0.001   5.119 -0.0356 -0.5903  0.1427
 9550TIP3    H250142   3.595   0.110   5.097 -0.0900 -0.6883 -0.0946
 9551TIP3   OH250143   3.285   2.098  17.144 -0.1094 -0.0959 -0.3383
 9551TIP3    H150144   3.318   2.009  17.143 -1.0580 -0.5408  2.1170
 9551TIP3    H250145   3.223   2.099  17.217 -0.5096  2.4284 -0.6613
 9552TIP3   OH250146   2.290   4.512  12.111 -0.0418 -0.5332  0.1283
 9552TIP3    H150147   2.232   4.461  12.054 -0.2585 -1.5439  1.2257
 9552TIP3    H250148   2.361   4.452  12.131  0.7047  0.2640 -0.1309
 9553TIP3   OH250149   6.278   1.601   0.086  0.1457 -0.5913  0.0382
 9553TIP3    H150150   6.302   1.635  -0.001  0.1517 -0.1772  0.1972
 9553TIP3    H250151   6.183   1.593   0.083  0.0127  0.7512  0.4603
 9554TIP3   OH250152   2.372   5.012   2.219  0.3676  1.0336 -0.5199
 9554TIP3    H150153   2.317   5.019   2.140  1.1513  0.9101 -1.0729
 9554TIP3    H250154   2.399   4.921   2.222  0.3388  1.0386 -0.1070
 9555TIP3   OH250155   4.964   1.049   4.248 -0.1247 -0.1125  0.5952
 9555TIP3    H150156   4.953   0.979   4.184 -0.5153  0.1660  0.3561
 9555TIP3    H250157   5.058   1.066   4.248 -0.1713  0.1730 -0.2117
 9556TIP3   OH250158   0.541   0.087   0.431 -0.0030  0.5263 -0.6575
 9556TIP3    H150159   0.496   0.125   0.507 -1.4750  0.1055 -1.2941
 9556TIP3    H250160   0.546  -0.007   0.451  1.7631  0.7401 -0.0213
 9557TIP3   OH250161   1.258   0.744   1.939  0.2476  0.3810 -0.3407
 9557TIP3    H150162   1.180   0.700   1.904  1.3739 -1.9012 -0.1097
 9557TIP3    H250163   1.292   0.795   1.865  0.2949 -1.1406 -1.4066
 9558TIP3   OH250164   0.601   6.007   5.358 -0.3298  0.1698  0.2907
 9558TIP3    H150165   0.615   5.970   5.272  2.4598 -0.2950  0.8913
 9558TIP3    H250166   0.668   6.075   5.366 -0.1846 -0.1719  2.2949
 9559TIP3   OH250167   4.570   2.351   4.448 -0.1428  0.0401 -0.6237
 9559TIP3    H150168   4.663   2.353   4.471 -0.1622  0.5076 -0.5861
 9559TIP3    H250169   4.526   2.317   4.526 -0.0333  0.0842 -0.5441
 9560TIP3   OH250170   0.178   2.382   5.815 -0.1227  0.1922  0.3757
 9560TIP3    H150171   0.174   2.286   5.811 -1.1756  0.1783  1.3942
 9560TIP3    H250172   0.215   2.400   5.901  1.1811  0.6880 -0.2905
 9561TIP3   OH250173   6.455   2.688   4.244 -1.1784  0.2050 -0.4878
 9561TIP3    H150174   6.421   2.628   4.310 -0.4302 -1.2719 -1.4149
 9561TIP3    H250175   6.504   2.633   4.184 -2.9703  1.2675 -3.0675
 9562TIP3   OH250176   2.645   6.763   3.370 -0.3104  0.0501 -0.2988
 9562TIP3    H150177   2.578   6.722   3.424  0.9737 -1.7052  0.0155
 9562TIP3    H250178   2.610   6.850   3.349 -2.1376 -0.3947  0.8253
 9563TIP3   OH250179   0.288   1.425   6.567 -0.0193  0.0606 -0.2285
 9563TIP3    H150180   0.283   1.329   6.572 -1.1460  0.1622  0.8149
 9563TIP3    H250181   0.313   1.442   6.476  0.6913 -1.2368 -0.2932
 9564TIP3   OH250182   4.429   3.786  11.484  0.4725 -0.6146  0.1355
 9564TIP3    H150183   4.411   3.722  11.552 -3.5768 -0.0873 -0.3375
 9564TIP3    H250184   4.410   3.741  11.402  0.8917  0.1760 -0.4078
 9565TIP3   OH250185   5.061   2.086  11.726  0.6012 -0.4835  0.2708
 9565TIP3    H150186   5.042   2.132  11.645  0.4284  2.1517  1.7412
 9565TIP3    H250187   5.141   2.127  11.759  1.8727 -2.9687  0.4031
 9566TIP3   OH250188   0.553   0.685  15.551  0.2197 -0.0528  0.3702
 9566TIP3    H150189   0.592   0.623  15.489  1.3576  0.3807  0.6271
 9566TIP3    H250190   0.559   0.769  15.507 -3.0369 -0.3476 -0.7637
 9567TIP3   OH250191   4.254   6.756   1.528 -0.0899 -0.1912  0.1647
 9567TIP3    H150192   4.159   6.748   1.514 -0.7381  1.2228  3.2140
 9567TIP3    H250193   4.263   6.767   1.623  3.0858  0.3934 -0.1578
 9568TIP3   OH250194   0.625   4.468  15.442 -0.4732 -0.7320 -0.2527
 9568TIP3    H150195   0.682   4.391  15.453 -0.9651 -0.8818  1.4352
 9568TIP3    H250196   0.672   4.524  15.380 -0.1413 -2.4271 -1.5694
 9569TIP3   OH250197   2.772   3.364  14.350  0.4929 -0.4018 -0.0574
 9569TIP3    H150198   2.727   3.369  14.434 -1.4355  0.7471 -1.1227
 9569TIP3    H250199   2.709   3.323  14.291  1.5783 -0.5813 -1.1151
 9570TIP3   OH250200   5.993   4.054  12.782  0.2030  0.0022 -0.3378
 9570TIP3    H150201   6.081   4.084  12.756  0.1528  0.4603  0.0299
 9570TIP3    H250202   6.008   3.966  12.818  0.6955  0.5941  0.9368
 9571TIP3   OH250203   6.031   0.578   3.938  0.1357  0.5030 -0.5519
 9571TIP3    H150204   5.957   0.565   3.879  2.0772 -2.2400 -2.5419
 9571TIP3    H250205   6.026   0.504   3.999  0.7151  0.7833 -0.1619
 9572TIP3   OH250206   6.109   0.537  11.548  0.3487 -0.3048 -0.2627
 9572TIP3    H150207   6.059   0.560  11.626  0.4497  0.4882 -0.4248
 9572TIP3    H250208   6.048   0.551  11.475  0.0055 -1.7923 -0.2778
 9573TIP3   OH250209   3.701   5.307  15.453  0.0605 -0.5063 -0.3890
 9573TIP3    H150210   3.669   5.245  15.387 -0.3314 -0.1873 -0.5006
 9573TIP3    H250211   3.794   5.286  15.463 -0.1070 -1.2267 -0.3053
 9574TIP3   OH250212   1.197   3.957  11.961 -0.8678  0.7207  0.6993
 9574TIP3    H150213   1.202   3.866  11.990  1.9460  0.2234 -1.1518
 9574TIP3    H250214   1.174   4.006  12.040  0.2060 -1.3126  2.3241
 9575TIP3   OH250215   0.051   6.507  16.623  0.5255 -0.4543 -0.2050
 9575TIP3    H150216  -0.042   6.485  16.631  0.1503  1.8645  2.4724
 9575TIP3    H250217   0.064   6.524  16.530 -1.7648 -0.5639 -0.5718
 9576TIP3   OH250218   6.343   4.753   0.292 -0.0070 -0.3235 -0.4309
 9576TIP3    H150219   6.394   4.811   0.235 -0.3323  0.3195 -0.0708
 9576TIP3    H250220   6.275   4.810   0.328  0.0535 -0.7902  0.4161
 9577TIP3   OH250221   3.936   2.165  14.777 -0.3616 -0.1852 -0.2251
 9577TIP3    H150222   4.007   2.103  14.792  1.3212  1.4022 -1.3823
 9577TIP3    H250223   3.912   2.152  14.685  0.2627  1.0996 -0.5893
 9578TIP3   OH250224   4.352   6.454  14.592  0.2978 -0.3789  0.4163
 9578TIP3    H150225   4.418   6.513  14.630  0.5631  0.3398 -1.1130
 9578TIP3    H250226   4.392   6.368  14.596  0.9167 -0.0929  0.4596
 9579TIP3   OH250227   6.326   2.130  16.257  0.6891  0.5620 -0.3549
 9579TIP3    H150228   6.342   2.222  16.234  1.0340  0.7242  0.5327
 9579TIP3    H250229   6.391   2.110  16.324  0.8138 -0.4236 -0.7615
 9580TIP3   OH250230   2.885   4.879   1.472  0.4438 -0.5103  0.2083
 9580TIP3    H150231   2.893   4.962   1.520 -0.4776  0.2623 -0.9330
 9580TIP3    H250232   2.973   4.840   1.476  1.0260  0.7747  0.3309
 9581TIP3   OH250233   6.722   1.369   0.890  0.3583 -0.4087 -0.9014
 9581TIP3    H150234   6.779   1.428   0.841 -0.4980 -0.8951 -2.5478
 9581TIP3    H250235   6.782   1.306   0.931  1.0947 -0.0094 -1.3535
 9582TIP3   OH250236   6.473   6.186   1.582  0.3524 -0.3735  0.7758
 9582TIP3    H150237   6.535   6.181   1.509  0.2273 -0.3956  0.6718
 9582TIP3    H250238   6.446   6.278   1.584 -0.8821 -0.7083 -0.2256
 9583TIP3   OH250239   0.179   5.884  10.742  0.1314  0.1300 -0.3492
 9583TIP3    H150240   0.098   5.919  10.706 -1.3439 -0.4093  2.3682
 9583TIP3    H250241   0.167   5.789  10.741  0.8345  0.0316 -0.1077
 9584TIP3   OH250242   1.437   3.664  10.722  0.2661  0.8686 -0.2506
 9584TIP3    H150243   1.402   3.711  10.798  0.0794 -3.9135  2.8240
 9584TIP3    H250244   1.531   3.677  10.727  0.2813  0.4110  1.0106
 9585TIP3   OH250245   3.091   6.241  13.779 -0.4460 -0.3671  0.1073
 9585TIP3    H150246   3.005   6.279  13.760 -0.3253 -0.1015  0.0956
 9585TIP3    H250247   3.125   6.215  13.693 -1.1883 -1.9216  0.2635
 9586TIP3   OH250248   1.695   0.155  12.507  0.4385  0.0400 -0.7406
 9586TIP3    H150249   1.697   0.229  12.447  0.9129  0.1147 -0.6291
 9586TIP3    H250250   1.633   0.093  12.466 -0.0917  0.5668 -0.7402
 9587TIP3   OH250251   3.563   5.087  13.099 -0.5801  0.1224  0.4730
 9587TIP3    H150252   3.593   5.091  13.008 -1.9257  0.9266  0.0514
 9587TIP3    H250253   3.608   5.011  13.136  1.6252  1.0274 -0.2444
 9588TIP3   OH250254   1.709   2.604   3.075 -0.1345  0.2107  0.1459
 9588TIP3    H150255   1.704   2.667   3.147  0.7020 -0.6927  1.0199
 9588TIP3    H250256   1.802   2.602   3.052 -0.0675 -1.0673  0.4715
 9589TIP3   OH250257   0.516   0.720   1.935 -0.3053 -0.2118 -0.3609
 9589TIP3    H150258   0.568   0.673   2.000 -1.2394 -0.1422  0.4446
 9589TIP3    H250259   0.581   0.765   1.881  0.4488  0.5372  1.1385
 9590TIP3   OH250260   0.996   1.548  12.461  0.2221  0.4121 -0.0886
 9590TIP3    H150261   0.947   1.608  12.405  1.2037 -1.5566 -3.1867
 9590TIP3    H250262   1.032   1.603  12.531 -1.6513  2.8075 -0.9776
 9591TIP3   OH250263   2.270   0.552   4.119 -0.0691 -0.2128  0.0767
 9591TIP3    H150264   2.312   0.638   4.126 -0.8590  0.2519 -0.7353
 9591TIP3    H250265   2.329   0.501   4.064 -1.1317  0.8268 -2.0844
 9592TIP3   OH250266   2.670   5.857  12.581 -1.0068 -0.1192 -0.0327
 9592TIP3    H150267   2.765   5.861  12.579 -1.0807  1.5041 -1.4293
 9592TIP3    H250268   2.646   5.885  12.669 -0.2440  0.4868 -0.0176
 9593TIP3   OH250269   0.096   4.416   5.653  0.0039 -0.1049 -0.5647
 9593TIP3    H150270   0.187   4.399   5.676 -0.0345 -0.3199 -0.5697
 9593TIP3    H250271   0.069   4.339   5.603 -0.1876 -0.0531 -0.5407
 9594TIP3   OH250272   3.883   2.060   3.617 -0.3676  0.2124  0.2488
 9594TIP3    H150273   3.970   2.037   3.650 -0.3028  0.8091  0.5028
 9594TIP3    H250274   3.868   2.000   3.544 -0.0762 -0.4249  0.7130
 9595TIP3   OH250275   4.538   6.179   1.333  0.0935  0.0778  0.0657
 9595TIP3    H150276   4.502   6.139   1.412 -0.5843  0.9007  0.1773
 9595TIP3    H250277   4.616   6.226   1.363  0.2741 -0.2408  0.1073
 9596TIP3   OH250278   3.063   4.906   3.616  0.4775 -0.2056 -0.1763
 9596TIP3    H150279   3.149   4.866   3.631  0.2568 -0.2588  1.0283
 9596TIP3    H250280   3.059   4.922   3.522  0.7862 -2.5213 -0.5957
 9597TIP3   OH250281   0.047   2.138  14.973 -0.3807  0.4970 -0.6758
 9597TIP3    H150282   0.122   2.080  14.976 -0.5535  0.2040 -1.9070
 9597TIP3    H250283   0.048   2.182  15.058  0.8988  0.1592 -0.5032
 9598TIP3   OH250284   4.783   1.197   0.941  0.7307  0.1390  0.1519
 9598TIP3    H150285   4.808   1.235   0.857 -0.6626  3.0976  1.0282
 9598TIP3    H250286   4.864   1.197   0.992  1.1110  0.3448 -0.4425
 9599TIP3   OH250287   6.169   4.610   2.988  0.1170 -0.5397 -0.7704
 9599TIP3    H150288   6.086   4.591   2.944 -0.7525  1.6226 -0.1223
 9599TIP3    H250289   6.235   4.602   2.919 -0.8685 -0.2688 -1.7539
 9600TIP3   OH250290   0.520   1.123  10.945 -0.1840  0.0914 -0.2218
 9600TIP3    H150291   0.465   1.072  10.885 -2.0091 -1.3860  2.5753
 9600TIP3    H250292   0.559   1.057  11.002 -0.4251  1.6245  1.7482
 9601TIP3   OH250293   1.233   5.998   2.678  0.6502  0.1209 -0.0234
 9601TIP3    H150294   1.301   6.052   2.718  1.7510  0.1095 -1.8130
 9601TIP3    H250295   1.166   6.061   2.649 -0.1729  0.1260  1.8026
 9602TIP3   OH250296   3.927   5.832   1.860 -0.2202  0.2625  0.2626
 9602TIP3    H150297   3.951   5.783   1.939  1.0695 -1.2896 -1.0726
 9602TIP3    H250298   3.967   5.784   1.788  1.3024  3.3781 -1.0803
 9603TIP3   OH250299   6.483   1.700   2.892 -0.2571  0.4172 -0.0693
 9603TIP3    H150300   6.546   1.662   2.832  0.2012  0.1863  0.5506
 9603TIP3    H250301   6.402   1.652   2.876  0.3371 -0.9202  0.7801
 9604TIP3   OH250302   4.182   0.963   4.875  0.1078  0.4871 -0.0173
 9604TIP3    H150303   4.199   0.869   4.879  0.1260  0.4603 -0.6071
 9604TIP3    H250304   4.211   0.989   4.787  0.3826  1.0973  0.2491
 9605TIP3   OH250305   3.274   5.330   4.495  0.6093 -0.5542  0.3410
 9605TIP3    H150306   3.360   5.362   4.521 -0.0428  1.6019 -0.0865
 9605TIP3    H250307   3.221   5.409   4.486 -1.2443 -1.8215 -0.0142
 9606TIP3   OH250308   3.234   1.096   4.770 -0.0035  0.1572  0.2685
 9606TIP3    H150309   3.222   1.116   4.863  0.4063 -1.0482  0.6022
 9606TIP3    H250310   3.303   1.155   4.741 -1.0022  1.4084  0.4104
 9607TIP3   OH250311   4.543   3.385   5.325 -0.4475  0.2558  0.7148
 9607TIP3    H150312   4.503   3.441   5.392 -2.0455  1.1632 -0.9472
 9607TIP3    H250313   4.472   3.327   5.297  0.3081 -0.3705  0.0925
 9608TIP3   OH250314   3.881   3.467  13.971 -0.3329 -0.1043  0.2636
 9608TIP3    H150315   3.905   3.528  14.041 -2.9146  1.5159 -0.2061
 9608TIP3    H250316   3.804   3.421  14.005 -0.5270 -0.5675 -0.8007
 9609TIP3   OH250317   5.022   3.321  16.302 -0.0282  0.1761 -0.1283
 9609TIP3    H150318   5.105   3.368  16.292  0.4348 -0.3395  1.1827
 9609TIP3    H250319   4.972   3.344  16.224  1.4393  0.3069 -1.0508
 9610TIP3   OH250320   3.785   4.441   5.185  0.5571  0.2911 -0.6216
 9610TIP3    H150321   3.748   4.396   5.261 -1.7086  1.2844 -1.0708
 9610TIP3    H250322   3.813   4.370   5.126  0.8092 -0.4934  0.4328
 9611TIP3   OH250323   4.602   2.889  11.088 -0.7828  0.1212  0.4443
 9611TIP3    H150324   4.678   2.847  11.127 -0.1150  1.2644  0.3835
 9611TIP3    H250325   4.638   2.948  11.021 -1.6666  1.2482  0.9458
 9612TIP3   OH250326   0.125   4.419  13.938 -1.0264 -0.3768  0.4219
 9612TIP3    H150327   0.066   4.493  13.951 -1.8603 -0.6324 -1.7454
 9612TIP3    H250328   0.070   4.350  13.902 -0.0453 -1.7227  1.4643
 9613TIP3   OH250329   2.076   4.239   4.047  0.4353 -0.1087  0.1946
 9613TIP3    H150330   2.140   4.183   4.001  1.3290  1.6696 -0.7842
 9613TIP3    H250331   2.115   4.254   4.133  0.9568  0.3180 -0.1158
 9614TIP3   OH250332   5.233   2.819  15.744  0.3476  0.5011 -0.1025
 9614TIP3    H150333   5.230   2.826  15.839  0.8949  0.6178 -0.0874
 9614TIP3    H250334   5.181   2.741  15.724 -2.0215  1.9902  0.0670
 9615TIP3   OH250335   2.976   5.876  13.070  0.2807 -0.5296  0.1835
 9615TIP3    H150336   2.929   5.884  13.153 -0.4442  0.7078 -0.3372
 9615TIP3    H250337   3.064   5.908  13.089 -0.3007  1.1287  0.1232
 9616TIP3   OH250338   4.851   4.293  16.327  0.0594  0.3081 -0.3674
 9616TIP3    H150339   4.940   4.270  16.355  0.4654 -0.1026 -1.9826
 9616TIP3    H250340   4.806   4.209  16.323 -0.2608  0.4663 -0.0657
 9617TIP3   OH250341   0.999   5.989  13.240 -0.3420  0.1082 -0.6860
 9617TIP3    H150342   0.947   6.058  13.282 -0.2359  0.0907 -0.5289
 9617TIP3    H250343   0.936   5.944  13.183 -0.6906 -0.4643  0.1548
 9618TIP3   OH250344   5.091   6.085   4.842  0.3858 -0.3006 -0.1036
 9618TIP3    H150345   5.135   6.016   4.892  0.1879 -0.2854  0.0908
 9618TIP3    H250346   5.006   6.048   4.820 -0.0348  0.1776  0.6912
 9619TIP3   OH250347   2.032   3.235  11.125 -0.0956  0.3982 -0.2843
 9619TIP3    H150348   2.022   3.148  11.086 -2.7649  0.4480  0.2133
 9619TIP3    H250349   2.126   3.242  11.142  0.2408 -2.1800 -0.8067
 9620TIP3   OH250350   5.990   3.655  12.478  0.3068 -0.3583  0.5414
 9620TIP3    H150351   6.021   3.642  12.567  0.8101 -1.8948  0.1539
 9620TIP3    H250352   5.980   3.567  12.443 -0.7560  0.2110 -0.6278
 9621TIP3   OH250353   3.639   1.740   0.668  0.2255  0.7418  0.0527
 9621TIP3    H150354   3.622   1.825   0.709 -3.2286  0.7367 -1.1861
 9621TIP3    H250355   3.698   1.759   0.596  0.1175  1.9709  0.2844
 9622TIP3   OH250356   5.234   5.077  12.435  0.7587  0.6452 -0.1951
 9622TIP3    H150357   5.279   5.026  12.503 -2.3638  0.8042  2.0836
 9622TIP3    H250358   5.216   5.161  12.476 -2.3061  0.2931 -0.7339
 9623TIP3   OH250359   3.226   4.162   0.784 -0.0710  0.1631  0.2839
 9623TIP3    H150360   3.252   4.143   0.694 -0.1933  1.4888 -0.0301
 9623TIP3    H250361   3.266   4.091   0.835 -0.3938 -0.8690 -0.8559
 9624TIP3   OH250362   2.393   3.694   5.089  0.0168  0.0935 -0.2657
 9624TIP3    H150363   2.419   3.706   5.181  2.4354 -0.4036 -0.8376
 9624TIP3    H250364   2.366   3.602   5.084  1.6430 -0.4025 -0.4123
 9625TIP3   OH250365   1.731   4.599   2.497  0.1880 -0.3200 -0.4883
 9625TIP3    H150366   1.662   4.651   2.538  0.6324  0.6649 -0.9900
 9625TIP3    H250367   1.812   4.644   2.519  0.7697 -1.9429  0.8118
 9626TIP3   OH250368   6.380   4.149  13.824  0.7046 -0.1551  0.4753
 9626TIP3    H150369   6.384   4.053  13.815  1.1006 -0.1352  0.4117
 9626TIP3    H250370   6.290   4.167  13.851  0.3111 -0.4495 -0.6372
 9627TIP3   OH250371   1.198   2.043   2.519 -0.8260  0.2220 -0.2826
 9627TIP3    H150372   1.166   2.102   2.452  0.2372 -0.6382 -1.5706
 9627TIP3    H250373   1.243   2.099   2.582  2.0474  0.5891 -2.5968
 9628TIP3   OH250374   2.347   6.227  13.576  0.6831 -0.3208  0.2082
 9628TIP3    H150375   2.375   6.147  13.530 -0.3406 -1.4495  1.5045
 9628TIP3    H250376   2.297   6.276  13.510  0.7565 -1.0688 -0.4066
 9629TIP3   OH250377   2.052   2.311   2.699  0.4085  0.5536 -0.2155
 9629TIP3    H150378   2.105   2.390   2.700  2.0572 -0.5226 -1.0808
 9629TIP3    H250379   2.083   2.260   2.775 -1.2143  1.0756  0.8355
 9630TIP3   OH250380   3.325   4.122   1.834  0.0832 -0.3194  0.2872
 9630TIP3    H150381   3.317   4.202   1.885  0.6397  0.2855 -0.5547
 9630TIP3    H250382   3.259   4.063   1.870 -1.2932  1.0178  0.0013
 9631TIP3   OH250383   5.132   3.175   6.048  0.1437 -0.3940 -0.6794
 9631TIP3    H150384   5.194   3.127   6.103  1.3043  1.4622 -0.2957
 9631TIP3    H250385   5.075   3.219   6.111  1.0202  1.1508 -0.9121
 9632TIP3   OH250386   2.988   4.345   6.408 -0.1595 -0.1047  0.2027
 9632TIP3    H150387   2.938   4.312   6.483  0.4834 -0.4363  0.4903
 9632TIP3    H250388   3.034   4.267   6.375 -0.7565 -0.0480 -0.7854
 9633TIP3   OH250389   3.491   3.483  14.692 -0.0114 -0.3511 -0.7055
 9633TIP3    H150390   3.403   3.519  14.681  0.7337  0.9773 -2.7113
 9633TIP3    H250391   3.478   3.391  14.713 -1.9311  0.4709  1.8273
 9634TIP3   OH250392   5.477   2.411   1.044  0.4300  0.3671  0.0381
 9634TIP3    H150393   5.382   2.420   1.054  0.2807 -0.7547 -0.3452
 9634TIP3    H250394   5.513   2.454   1.122 -0.4409 -0.3956  0.8759
 9635TIP3   OH250395   4.254   3.202  12.583 -0.2258 -0.1942 -0.0920
 9635TIP3    H150396   4.188   3.211  12.514 -1.0304  2.5442  0.9244
 9635TIP3    H250397   4.337   3.220  12.540 -0.6853  1.1522 -0.4463
 9636TIP3   OH250398   1.831   5.448   2.528  0.1958 -0.1105 -0.1652
 9636TIP3    H150399   1.761   5.498   2.571  0.0770 -0.4052 -0.0174
 9636TIP3    H250400   1.877   5.513   2.475  0.0823  0.1743  0.0812
 9637TIP3   OH250401   0.121   5.101  13.636  0.3374  0.5831  0.2300
 9637TIP3    H150402   0.168   5.029  13.679  0.4696  0.1753 -0.6001
 9637TIP3    H250403   0.180   5.131  13.567 -0.1995  0.7394 -0.1620
 9638TIP3   OH250404   2.368   4.481   4.461  0.1716  0.3847  0.7566
 9638TIP3    H150405   2.310   4.415   4.497 -0.1164 -0.7915 -1.7596
 9638TIP3    H250406   2.321   4.564   4.471 -0.9985 -0.2774  0.6809
 9639TIP3   OH250407   6.292   0.248   0.350  0.2300  0.0917  0.1754
 9639TIP3    H150408   6.202   0.220   0.365  0.8651 -2.0635  0.2046
 9639TIP3    H250409   6.302   0.246   0.255 -0.2464  2.0574  0.0583
 9640TIP3   OH250410   1.549   0.672  13.316 -0.6051  0.3129  0.0954
 9640TIP3    H150411   1.521   0.754  13.356 -1.9582  0.4544 -1.1202
 9640TIP3    H250412   1.594   0.625  13.386  0.5156  2.2467  0.6979
 9641TIP3   OH250413   2.816   3.228  16.722 -0.2498 -0.2355 -0.2393
 9641TIP3    H150414   2.896   3.241  16.773 -0.4890  0.4510 -0.0331
 9641TIP3    H250415   2.763   3.168  16.775  0.5412 -1.5033 -0.8422
 9642TIP3   OH250416   0.846   2.981   5.134  0.0329  0.2469  0.4050
 9642TIP3    H150417   0.926   3.030   5.154  0.3712 -0.5442  1.0008
 9642TIP3    H250418   0.778   3.025   5.186 -0.2236  1.8148 -1.1915
 9643TIP3   OH250419   1.915   4.556  15.662 -0.1355 -0.2107 -0.4526
 9643TIP3    H150420   1.965   4.629  15.698 -0.4963 -0.5796  0.8128
 9643TIP3    H250421   1.846   4.597  15.611  0.1627  0.3213 -0.4309
 9644TIP3   OH250422   6.698   1.210   3.570 -0.4269  0.1101 -0.0271
 9644TIP3    H150423   6.746   1.237   3.491 -0.3178  0.0562  0.0212
 9644TIP3    H250424   6.615   1.259   3.565  0.1697  1.1847  0.5498
 9645TIP3   OH250425   0.421   0.610   2.731 -0.0093  0.1432  0.5297
 9645TIP3    H150426   0.360   0.678   2.760  1.5482  1.2072  1.3331
 9645TIP3    H250427   0.367   0.552   2.677 -0.9013  3.1706 -2.0130
 9646TIP3   OH250428   6.309   1.117   3.750  0.2149 -0.2634 -0.5079
 9646TIP3    H150429   6.256   1.127   3.670  0.1311 -0.4219 -0.4736
 9646TIP3    H250430   6.259   1.055   3.803 -1.6597  2.6846  1.3128
 9647TIP3   OH250431   5.612   4.652  13.994 -0.2376 -0.7725  0.2611
 9647TIP3    H150432   5.558   4.689  14.063  0.4139 -0.5229  0.6491
 9647TIP3    H250433   5.581   4.694  13.913 -0.3176 -0.2950  0.5367
 9648TIP3   OH250434   1.621   5.608   1.325 -0.0376 -0.0277  0.1313
 9648TIP3    H150435   1.696   5.563   1.364  0.6729  1.2973  0.3242
 9648TIP3    H250436   1.660   5.670   1.264 -1.0935 -1.1113 -1.6610
 9649TIP3   OH250437   3.485   4.136  13.966 -0.1488  0.1188 -0.1839
 9649TIP3    H150438   3.536   4.088  13.902 -0.2630  1.2375 -1.1320
 9649TIP3    H250439   3.481   4.226  13.932  1.6180  1.2510  2.4325
 9650TIP3   OH250440   6.732   1.578   1.648 -0.0310  0.3708  0.0975
 9650TIP3    H150441   6.642   1.575   1.681 -0.1859 -0.0830 -0.3675
 9650TIP3    H250442   6.725   1.553   1.556  0.7541 -1.1554  0.4360
 9651TIP3   OH250443   3.370   4.622   0.463 -0.5058  0.0121 -0.8589
 9651TIP3    H150444   3.365   4.569   0.384  0.6495  0.0876 -0.9809
 9651TIP3    H250445   3.285   4.667   0.466 -1.3057 -1.4666 -1.0010
 9652TIP3   OH250446   1.819   3.317  12.936 -0.0439  0.4191 -0.5314
 9652TIP3    H150447   1.840   3.410  12.927 -0.7440  0.6095 -0.2228
 9652TIP3    H250448   1.730   3.316  12.971  0.6493 -0.3465  1.2844
 9653TIP3   OH250449   6.313   3.202   3.341  0.7912  0.2777  0.1687
 9653TIP3    H150450   6.387   3.158   3.298 -0.4321 -1.0072 -0.6706
 9653TIP3    H250451   6.241   3.191   3.279  0.8142  4.8842 -0.8176
 9654TIP3   OH250452   6.095   3.044   5.838  0.3050 -0.3762  0.6100
 9654TIP3    H150453   6.061   3.053   5.926  1.6991  1.6006  0.9673
 9654TIP3    H250454   6.190   3.041   5.849  0.5687  1.4282 -0.9328
 9655TIP3   OH250455   6.636   5.920   3.720 -0.1680 -0.6773  0.5447
 9655TIP3    H150456   6.592   5.898   3.637  0.1896  1.7794 -0.3684
 9655TIP3    H250457   6.726   5.938   3.694 -0.5869  2.4470  1.0189
 9656TIP3   OH250458   6.436   5.087   6.411 -0.8082  0.0471 -0.6919
 9656TIP3    H150459   6.345   5.089   6.443 -0.9130  0.1421 -0.9850
 9656TIP3    H250460   6.472   5.171   6.440  0.6302 -1.8913  3.4719
 9657TIP3   OH250461   5.405   4.605  12.796 -0.1874  0.0002 -0.2657
 9657TIP3    H150462   5.337   4.647  12.850  0.8055 -0.9946  1.8219
 9657TIP3    H250463   5.391   4.512  12.808  0.5969 -0.2274 -1.0560
 9658TIP3   OH250464   2.771   0.132   0.008 -0.5237 -0.4531 -0.1950
 9658TIP3    H150465   2.808   0.095  -0.073  0.4411  1.1035 -0.4918
 9658TIP3    H250466   2.783   0.227  -0.002  0.2037 -0.2767  2.0588
 9659TIP3   OH250467   4.533   4.530   4.803 -0.2784 -0.1324  0.7425
 9659TIP3    H150468   4.465   4.479   4.846 -0.0266 -0.6389  0.5440
 9659TIP3    H250469   4.497   4.619   4.798 -1.2256 -0.5460 -0.0057
 9660TIP3   OH250470   0.525   3.704   5.150 -0.0724 -0.2343  0.1092
 9660TIP3    H150471   0.620   3.697   5.157  0.1123  0.1711 -1.9437
 9660TIP3    H250472   0.506   3.797   5.164 -0.0178 -0.0285 -1.1869
 9661TIP3   OH250473   6.041   2.448   2.489  0.4955  0.1384 -0.0535
 9661TIP3    H150474   6.067   2.357   2.496 -0.3523 -0.1418 -0.4656
 9661TIP3    H250475   5.947   2.449   2.508  0.2323  0.7330 -1.2793
 9662TIP3   OH250476   2.841   2.447   2.286 -0.3479  0.3765  0.3512
 9662TIP3    H150477   2.823   2.526   2.336  0.0115  0.6974 -0.0165
 9662TIP3    H250478   2.841   2.377   2.350 -1.1680  0.6065  0.6083
 9663TIP3   OH250479   3.811   5.523  13.796 -0.0046 -0.6014 -0.8201
 9663TIP3    H150480   3.768   5.443  13.823 -0.0466 -0.5789 -0.8189
 9663TIP3    H250481   3.792   5.586  13.865  1.0282 -0.9302 -0.2212
 9664TIP3   OH250482   6.516   2.678  13.641 -0.1719 -0.4127  0.2278
 9664TIP3    H150483   6.598   2.708  13.679 -1.0736 -0.0298  1.8890
 9664TIP3    H250484   6.455   2.673  13.714 -1.5162 -1.1452 -0.9072
 9665TIP3   OH250485   3.396   3.748  16.986  0.0437  0.0919 -0.1593
 9665TIP3    H150486   3.340   3.719  17.058 -0.2294  0.7287 -0.1094
 9665TIP3    H250487   3.348   3.722  16.907 -1.1912  2.1959 -0.1435
 9666TIP3   OH250488   0.862   1.289  10.799  0.0167 -0.0226  0.4342
 9666TIP3    H150489   0.809   1.231  10.855  1.1032  0.1149  1.6349
 9666TIP3    H250490   0.919   1.335  10.860  1.7805 -0.4301 -0.8736
 9667TIP3   OH250491   5.474   2.096  14.551 -0.5004 -0.0192 -0.0520
 9667TIP3    H150492   5.383   2.123  14.541 -0.5389 -0.3386 -0.6101
 9667TIP3    H250493   5.517   2.169  14.596 -1.3936 -0.5453  1.6932
 9668TIP3   OH250494   0.205   0.536  10.882 -0.4782 -0.1588  0.4058
 9668TIP3    H150495   0.113   0.543  10.855 -0.2402  0.0307 -0.3601
 9668TIP3    H250496   0.229   0.446  10.862 -0.7053 -0.4237  1.2904
 9669TIP3   OH250497   4.318   0.742   1.435  0.2729 -0.3443  0.0515
 9669TIP3    H150498   4.329   0.733   1.340 -1.1629 -0.8535 -0.0792
 9669TIP3    H250499   4.369   0.670   1.472  1.9846  0.6875 -0.2545
 9670TIP3   OH250500   3.437   2.221  12.538  0.1621 -0.2557  0.5214
 9670TIP3    H150501   3.529   2.245  12.530  0.4074 -0.5684  2.3131
 9670TIP3    H250502   3.399   2.290  12.593 -0.3872 -0.8121  0.8476
 9671TIP3   OH250503   5.107   6.796  15.324  0.3153 -0.2988 -0.4321
 9671TIP3    H150504   5.048   6.728  15.357  0.7734 -1.5778 -2.1929
 9671TIP3    H250505   5.055   6.877  15.329 -0.4738 -0.8737  1.0286
 9672TIP3   OH250506   0.618   3.130   4.775  0.5116 -0.2374  0.0333
 9672TIP3    H150507   0.569   3.080   4.840  0.4887 -1.8242 -1.1661
 9672TIP3    H250508   0.552   3.188   4.735 -0.5324 -2.6207 -1.8257
 9673TIP3   OH250509   5.781   1.296  11.601 -0.0049 -0.2067  0.4395
 9673TIP3    H150510   5.706   1.286  11.541 -0.4885  2.1310  0.5986
 9673TIP3    H250511   5.806   1.388  11.592  2.0622 -0.6590  1.3522
 9674TIP3   OH250512   4.767   6.093   4.806 -0.0088 -0.0694  0.1652
 9674TIP3    H150513   4.700   6.098   4.875 -0.4503 -0.1705 -0.2499
 9674TIP3    H250514   4.766   6.001   4.779  1.1299 -0.3303  0.9642
 9675TIP3   OH250515   0.422   5.889  12.250 -0.1105  0.3747  0.3097
 9675TIP3    H150516   0.463   5.804  12.267 -1.9698 -0.9465 -1.5440
 9675TIP3    H250517   0.470   5.951  12.305 -0.3032 -2.2720  3.5981
 9676TIP3   OH250518   5.777   6.289  14.263  0.1419 -0.1815  0.2180
 9676TIP3    H150519   5.823   6.306  14.345  1.4337 -2.1075 -0.0735
 9676TIP3    H250520   5.779   6.193  14.254  1.5083  0.0770 -2.8635
 9677TIP3   OH250521   4.011   0.677   6.161 -0.3007  0.4187  0.4851
 9677TIP3    H150522   3.932   0.699   6.210 -0.7210  0.0350 -0.0249
 9677TIP3    H250523   4.034   0.758   6.116 -0.1675  0.6457  0.9571
 9678TIP3   OH250524   0.572   6.769  13.164  0.1991  0.0666  0.5234
 9678TIP3    H150525   0.527   6.853  13.170 -0.1261 -0.0439 -0.2681
 9678TIP3    H250526   0.625   6.775  13.085 -0.6012 -0.8251 -0.0997
 9679TIP3   OH250527   4.483   3.880  14.823 -0.2702  0.3445  0.1126
 9679TIP3    H150528   4.396   3.841  14.824  0.4636 -1.3775 -0.9738
 9679TIP3    H250529   4.484   3.934  14.744 -0.5822  0.9418  0.5098
 9680TIP3   OH250530   3.106   6.052  16.784 -0.4908  0.0573  0.5263
 9680TIP3    H150531   3.200   6.055  16.804 -0.5420  3.0884  0.5339
 9680TIP3    H250532   3.067   6.012  16.861  0.5083  1.6148  1.8874
 9681TIP3   OH250533   4.239   5.798   4.230 -0.4725 -0.4156  0.0371
 9681TIP3    H150534   4.322   5.801   4.279  0.6418  2.3029 -1.9176
 9681TIP3    H250535   4.198   5.882   4.247 -1.5676 -0.6798 -1.2206
 9682TIP3   OH250536   1.745   2.663   2.766 -0.8186 -0.3089  0.4417
 9682TIP3    H150537   1.651   2.658   2.751 -0.8738  0.8644  0.4027
 9682TIP3    H250538   1.782   2.598   2.705 -1.5183  0.0335 -0.3660
 9683TIP3   OH250539   2.960   6.692  11.222  0.5680  0.0641 -0.0891
 9683TIP3    H150540   2.887   6.676  11.162  0.9871  0.2747 -0.6505
 9683TIP3    H250541   3.011   6.612  11.220 -0.1447 -0.4239  0.9991
 9684TIP3   OH250542   3.559   2.439  14.514  0.2607 -0.1790  0.7635
 9684TIP3    H150543   3.472   2.480  14.518  0.1460 -0.3964  0.4587
 9684TIP3    H250544   3.569   2.397  14.599  0.2681  0.2561  0.9815
 9685TIP3   OH250545   4.233   1.927   0.390 -0.2978 -0.2028 -0.7723
 9685TIP3    H150546   4.250   2.012   0.431 -1.3610 -0.1767 -0.3703
 9685TIP3    H250547   4.140   1.929   0.369 -0.1635 -0.9769 -1.4436
 9686TIP3   OH250548   2.943   4.285   3.559 -0.5194  0.2100 -0.2245
 9686TIP3    H150549   2.953   4.206   3.613  3.1091  1.8813  1.7016
 9686TIP3    H250550   2.981   4.261   3.475 -2.1941 -1.0166 -0.6617
 9687TIP3   OH250551   2.552   6.123  14.940 -0.2734 -0.0163 -0.0118
 9687TIP3    H150552   2.464   6.093  14.962  0.9136 -0.7016  4.1274
 9687TIP3    H250553   2.610   6.063  14.986  2.3945  0.9560 -1.9882
 9688TIP3   OH250554   4.104   2.592   2.855  0.4942 -0.1144  0.4801
 9688TIP3    H150555   4.073   2.501   2.862 -0.8722  0.4524  2.0941
 9688TIP3    H250556   4.103   2.625   2.945  0.4139  1.6761 -0.1538
 9689TIP3   OH250557   4.142   1.651   2.454  0.1516 -0.7699 -1.1090
 9689TIP3    H150558   4.159   1.745   2.450  2.0530 -0.9628  1.5671
 9689TIP3    H250559   4.059   1.640   2.406  0.3947  2.1042 -2.2996
 9690TIP3   OH250560   3.659   3.058   3.437 -0.0780  0.3872 -0.0345
 9690TIP3    H150561   3.664   2.964   3.423  1.4849  0.1667  1.8504
 9690TIP3    H250562   3.725   3.095   3.378 -2.3685  0.5545 -2.5958
 9691TIP3   OH250563   6.583   3.171  16.344 -0.3671  0.6838 -0.3412
 9691TIP3    H150564   6.538   3.190  16.426  0.2634  0.6593  0.0133
 9691TIP3    H250565   6.570   3.077  16.331  3.5864 -0.3550  2.2481
 9692TIP3   OH250566   4.193   4.548   3.930  0.4261  0.5997 -0.2060
 9692TIP3    H150567   4.218   4.617   3.992 -0.3325 -0.0289  0.8167
 9692TIP3    H250568   4.276   4.518   3.893  0.8836  1.0522  0.4417
 9693TIP3   OH250569   3.910   0.813   4.388  0.2769 -0.3059 -0.0059
 9693TIP3    H150570   3.817   0.824   4.367  0.2262  1.1503  0.9160
 9693TIP3    H250571   3.938   0.740   4.333 -1.5073 -1.0277 -0.0072
 9694TIP3   OH250572   2.857   0.096  15.964 -0.1173  0.0183 -0.1033
 9694TIP3    H150573   2.876   0.003  15.972  0.5034  0.1825  0.3336
 9694TIP3    H250574   2.792   0.101  15.893  0.8904 -0.6097 -1.0963
 9695TIP3   OH250575   1.456   2.104   3.461 -0.2509 -0.3525  0.3097
 9695TIP3    H150576   1.440   2.058   3.379 -0.7875 -0.3805  0.4263
 9695TIP3    H250577   1.497   2.186   3.436  1.3295 -1.1657  0.1308
 9696TIP3   OH250578   2.559   5.108   6.555 -0.8000 -0.2881  0.7592
 9696TIP3    H150579   2.542   5.192   6.512  0.8017  0.2926  1.2314
 9696TIP3    H250580   2.499   5.047   6.512 -1.2639  0.8860 -0.2963
 9697TIP3   OH250581   0.253   3.841   0.507  0.0517  0.8256  1.0515
 9697TIP3    H150582   0.201   3.920   0.521  0.0827  0.7916  1.3665
 9697TIP3    H250583   0.273   3.809   0.595  0.4606  0.7437  0.9324
 9698TIP3   OH250584   4.311   0.702   5.380  0.2970 -0.2411 -0.2898
 9698TIP3    H150585   4.342   0.698   5.289 -0.3936  2.1958 -0.6805
 9698TIP3    H250586   4.362   0.774   5.419 -1.6238  0.8164  0.3283
 9699TIP3   OH250587   3.979   0.857   5.909  0.7962  0.2897  0.3061
 9699TIP3    H150588   3.899   0.910   5.910 -0.0110 -0.8629 -1.1369
 9699TIP3    H250589   4.048   0.919   5.883 -0.1405  0.6267 -1.4144
 9700TIP3   OH250590   2.558   6.329  13.941 -0.0715  0.1666  0.2452
 9700TIP3    H150591   2.550   6.423  13.925 -0.4555  0.6725  3.0673
 9700TIP3    H250592   2.630   6.322  14.003 -0.8353 -1.2885  0.9861
 9701TIP3   OH250593   2.950   2.504   6.534  0.6102 -0.0068 -0.1747
 9701TIP3    H150594   2.964   2.594   6.565  0.3951  0.1348 -0.4836
 9701TIP3    H250595   2.860   2.504   6.503  0.0898 -0.7667  1.3031
 9702TIP3   OH250596   1.395   2.689   3.265  0.1450 -0.0298  0.3246
 9702TIP3    H150597   1.360   2.724   3.183  0.8755  0.6091  0.2815
 9702TIP3    H250598   1.348   2.606   3.278  1.7033 -1.3405 -1.9812
 9703TIP3   OH250599   4.120   6.144  13.436  0.2686 -0.0803  0.1024
 9703TIP3    H150600   4.101   6.158  13.343  0.0023 -0.2161  0.1339
 9703TIP3    H250601   4.073   6.214  13.480  1.7249  0.9687  0.0273
 9704TIP3   OH250602   4.615   5.713   0.916  0.2703  0.3031  0.4711
 9704TIP3    H150603   4.625   5.619   0.903 -1.3821  0.1824 -0.1425
 9704TIP3    H250604   4.612   5.724   1.011  0.1980 -0.3007  0.5379
 9705TIP3   OH250605   4.817   0.325  15.703  0.0289 -0.0254  0.3250
 9705TIP3    H150606   4.729   0.346  15.734  0.7704  1.5837  1.4086
 9705TIP3    H250607   4.836   0.393  15.639  0.6307 -0.1488  0.3728
 9706TIP3   OH250608   4.050   0.409   6.245  0.1520  0.0522  0.2632
 9706TIP3    H150609   3.961   0.428   6.277  0.6591  1.5481  0.8550
 9706TIP3    H250610   4.074   0.488   6.196  1.9212  0.5053  1.8158
 9707TIP3   OH250611   3.469   1.439   1.361  0.1497  0.3921 -0.2826
 9707TIP3    H150612   3.543   1.454   1.301  0.5546  0.0946  0.1425
 9707TIP3    H250613   3.461   1.344   1.366 -0.4277  0.4235 -0.5214
 9708TIP3   OH250614   5.387   2.705   1.995  0.6444 -0.2883 -0.2616
 9708TIP3    H150615   5.351   2.739   1.913 -0.3896 -2.3156 -0.6773
 9708TIP3    H250616   5.341   2.755   2.064 -0.2129 -0.2237 -0.8711
 9709TIP3   OH250617   1.568   2.940  16.260  0.3628 -0.2696 -0.1328
 9709TIP3    H150618   1.501   2.994  16.219  1.1006  0.6297 -0.1524
 9709TIP3    H250619   1.540   2.850  16.242 -0.3112  0.1061 -0.9800
 9710TIP3   OH250620   3.613   5.863   6.471  0.3166  0.5538 -0.2335
 9710TIP3    H150621   3.682   5.823   6.417  1.5235  0.6154  1.2182
 9710TIP3    H250622   3.595   5.947   6.429  1.7166  0.8935 -0.1938
 9711TIP3   OH250623   6.724   4.325  14.775 -0.2308 -0.6196  0.0289
 9711TIP3    H150624   6.806   4.359  14.812 -0.3783 -0.5764  0.3217
 9711TIP3    H250625   6.662   4.331  14.848 -1.4852  2.9440 -1.2123
 9712TIP3   OH250626   3.585   2.675  14.286  0.6879 -0.4635  0.4351
 9712TIP3    H150627   3.615   2.615  14.217  0.5835 -1.5003  1.2764
 9712TIP3    H250628   3.532   2.620  14.343 -0.9128  0.8449  0.2285
 9713TIP3   OH250629   5.504   6.612   0.744  0.4722  0.0566  0.0611
 9713TIP3    H150630   5.563   6.561   0.800  1.5321 -0.5552 -1.5727
 9713TIP3    H250631   5.561   6.650   0.677 -0.8474  0.2180 -0.9969
 9714TIP3   OH250632   5.178   0.016   0.439 -0.7307  0.4890 -0.0648
 9714TIP3    H150633   5.115   0.051   0.377  0.3715  0.1680 -1.3921
 9714TIP3    H250634   5.160  -0.078   0.442 -1.3142  0.6202  0.7344
 9715TIP3   OH250635   3.659   4.211  15.790 -0.0205 -0.6418  0.2218
 9715TIP3    H150636   3.723   4.272  15.826 -0.9370 -0.5608  1.7709
 9715TIP3    H250637   3.711   4.154  15.733  1.4861 -0.6514  1.5284
 9716TIP3   OH250638   6.140   5.328   0.706  0.9607  0.0019  0.0031
 9716TIP3    H150639   6.138   5.412   0.660  0.7395  1.9915  3.5168
 9716TIP3    H250640   6.232   5.316   0.730  1.0730 -1.0215 -0.9114
 9717TIP3   OH250641   1.422   2.057   4.237  0.3778 -0.5864 -0.0750
 9717TIP3    H150642   1.397   1.966   4.221 -1.2877 -0.0075 -0.8980
 9717TIP3    H250643   1.423   2.098   4.151  1.2265  0.1658  0.2781
 9718TIP3   OH250644   3.235   0.949   4.266 -0.1905 -0.7665  0.2674
 9718TIP3    H150645   3.296   0.945   4.340 -1.2506 -3.4609  1.0317
 9718TIP3    H250646   3.159   0.995   4.300  0.7942  1.3317 -0.2769
 9719TIP3   OH250647   1.015   4.663   1.760  0.2517 -0.2905 -0.4183
 9719TIP3    H150648   0.945   4.601   1.740 -0.6157  0.3133  0.6529
 9719TIP3    H250649   1.011   4.674   1.855  1.5506  0.0585 -0.3917
 9720TIP3   OH250650   0.307   6.779  12.617  0.3821 -0.0603 -0.0828
 9720TIP3    H150651   0.331   6.711  12.556 -0.2146 -1.0327  0.7448
 9720TIP3    H250652   0.387   6.829  12.631  0.9468 -0.8952 -0.3100
 9721TIP3   OH250653   3.455   3.983  16.816 -0.2919  0.0708 -0.5979
 9721TIP3    H150654   3.550   3.981  16.819 -0.2401  1.6995 -0.6632
 9721TIP3    H250655   3.427   3.931  16.891  0.6738  1.7254  0.9593
 9722TIP3   OH250656   3.065   1.918  13.865  0.6323 -0.1413 -0.0939
 9722TIP3    H150657   2.978   1.908  13.828  0.9008  1.3954 -1.2023
 9722TIP3    H250658   3.084   1.834  13.906 -1.7586 -0.1685  1.0261
 9723TIP3   OH250659   3.102   0.292  16.630 -0.2193  0.2223  0.3354
 9723TIP3    H150660   3.092   0.377  16.673 -2.0832 -0.0209  0.4356
 9723TIP3    H250661   3.037   0.293  16.559  0.8105 -0.5226 -0.6321
 9724TIP3   OH250662   1.618   4.608  16.929 -0.1060  0.0151  0.2065
 9724TIP3    H150663   1.578   4.693  16.944 -1.7344 -0.6552 -0.2591
 9724TIP3    H250664   1.585   4.580  16.844  0.1688 -1.2170  0.4965
 9725TIP3   OH250665   0.811   1.284  12.177 -0.1542  0.1121 -0.1159
 9725TIP3    H150666   0.778   1.257  12.263  0.8503 -1.8790 -0.3272
 9725TIP3    H250667   0.904   1.301  12.192 -0.0712  0.1851 -0.7167
 9726TIP3   OH250668   0.637   0.694  16.532 -0.0544  0.6344 -0.9037
 9726TIP3    H150669   0.703   0.626  16.548 -1.0497  0.1259  1.2362
 9726TIP3    H250670   0.594   0.667  16.451 -0.7002 -1.5356  0.1287
 9727TIP3   OH250671   3.641   6.625   6.125  0.2119  0.1071  0.0139
 9727TIP3    H150672   3.654   6.656   6.035 -1.9831  2.9134  0.5780
 9727TIP3    H250673   3.705   6.674   6.177  0.0306  0.1023  0.2459
 9728TIP3   OH250674   3.569   4.693  13.999 -0.1004 -0.6483  0.7361
 9728TIP3    H150675   3.646   4.733  14.039 -0.8505 -0.4137  1.9785
 9728TIP3    H250676   3.519   4.659  14.073 -0.6133 -1.8320 -0.1492
 9729TIP3   OH250677   6.549   2.991  13.520 -0.1568  0.5984  0.3642
 9729TIP3    H150678   6.564   2.904  13.558  0.6237 -0.1264 -1.5790
 9729TIP3    H250679   6.516   2.974  13.432 -1.4253  2.2749  0.4850
 9730TIP3   OH250680   6.219   4.749   2.433  0.1205 -0.2797 -0.5296
 9730TIP3    H150681   6.152   4.794   2.382  0.1334 -0.3662 -0.6231
 9730TIP3    H250682   6.191   4.658   2.434 -1.3107  0.1506  1.8929
 9731TIP3   OH250683   3.129   4.725   2.921 -0.0653  0.0406 -0.2118
 9731TIP3    H150684   3.082   4.804   2.895  0.6477 -0.5144 -3.3837
 9731TIP3    H250685   3.067   4.654   2.902 -0.2396 -0.2724  1.4658
 9732TIP3   OH250686   4.103   0.138   6.946  0.2854 -0.4854  0.0213
 9732TIP3    H150687   4.150   0.208   6.901  1.0291 -0.8689  0.2019
 9732TIP3    H250688   4.044   0.102   6.880 -0.8544  1.0003  0.2168
 9733TIP3   OH250689   3.589   4.655  12.280 -1.0422  0.1405 -0.2997
 9733TIP3    H150690   3.668   4.637  12.330 -0.5071  0.5235 -1.0037
 9733TIP3    H250691   3.523   4.677  12.347 -0.0613  1.6779  0.2034
 9734TIP3   OH250692   2.446   1.084   4.085 -0.3246 -0.0121  0.5101
 9734TIP3    H150693   2.491   1.154   4.037  0.1462 -0.2429  0.6175
 9734TIP3    H250694   2.383   1.130   4.140 -0.8721  0.2630 -0.3237
 9735TIP3   OH250695   5.087   3.676   3.682  0.3947 -0.0887 -0.3668
 9735TIP3    H150696   5.156   3.640   3.625  1.9819 -0.1771  1.5568
 9735TIP3    H250697   5.135   3.717   3.754 -1.6077 -0.4796  1.2152
 9736TIP3   OH250698   5.466   1.405  17.064 -0.1384  0.6307  0.3874
 9736TIP3    H150699   5.555   1.390  17.033 -0.5549  0.1273 -0.5880
 9736TIP3    H250700   5.418   1.326  17.040 -0.6917  0.6090  1.5239
 9737TIP3   OH250701   4.804   5.169   5.056 -0.9346 -0.1002 -0.1961
 9737TIP3    H150702   4.757   5.137   5.133  3.1228 -1.2333  1.9767
 9737TIP3    H250703   4.828   5.259   5.077  0.4494 -0.5105 -0.0033
 9738TIP3   OH250704   5.122   3.732   3.979 -0.5491  0.0286  0.0607
 9738TIP3    H150705   5.111   3.745   4.074 -1.4102  0.1930 -0.0542
 9738TIP3    H250706   5.091   3.643   3.963  0.0612 -0.1755  0.0042
 9739TIP3   OH250707   6.771   6.295  11.003 -0.0504 -0.1005  0.2740
 9739TIP3    H150708   6.831   6.235  11.048  0.7672  1.5169  1.3884
 9739TIP3    H250709   6.696   6.241  10.980  2.2374 -2.4380 -2.0573
 9740TIP3   OH250710   0.084   0.850  17.105 -0.1154  0.4633 -0.1456
 9740TIP3    H150711   0.049   0.841  17.016 -1.3107  2.8061  0.0587
 9740TIP3    H250712   0.179   0.854  17.093 -0.2265 -0.0306 -1.2463
 9741TIP3   OH250713   0.787   4.467  14.998 -0.3636  0.4950  0.0793
 9741TIP3    H150714   0.847   4.482  14.925 -0.2326  2.9128  0.6352
 9741TIP3    H250715   0.703   4.500  14.968 -0.6944 -0.0311  0.4206
 9742TIP3   OH250716   1.738   1.501   3.896 -0.4067 -0.2786  0.5873
 9742TIP3    H150717   1.812   1.444   3.915  0.4344 -0.3192 -2.4754
 9742TIP3    H250718   1.662   1.443   3.899 -0.1043 -0.6064  1.9842
 9743TIP3   OH250719   2.646   0.922   0.864  0.0762  0.5882 -0.1978
 9743TIP3    H150720   2.694   0.997   0.832  0.0224  0.9721  0.6022
 9743TIP3    H250721   2.661   0.922   0.959  3.6470 -2.9185 -0.6600
 9744TIP3   OH250722   0.180   1.489  12.306 -0.3246  0.3867  0.1202
 9744TIP3    H150723   0.118   1.503  12.235  0.3105 -3.4197 -1.2829
 9744TIP3    H250724   0.126   1.481  12.385 -1.1779  2.3212 -0.2351
 9745TIP3   OH250725   2.206   0.766  11.395  0.5879 -0.3843 -0.2234
 9745TIP3    H150726   2.240   0.692  11.445  2.6237  0.7855  0.1604
 9745TIP3    H250727   2.160   0.726  11.321  0.1175 -2.0571  0.9592
 9746TIP3   OH250728   1.110   3.472   3.900 -0.0513 -0.1537  0.2907
 9746TIP3    H150729   1.101   3.509   3.812 -1.0162 -0.6489  0.1816
 9746TIP3    H250730   1.032   3.501   3.946  1.4088  1.8034  1.6204
 9747TIP3   OH250731   2.166   2.123   1.490  0.1445 -0.1684 -0.2061
 9747TIP3    H150732   2.115   2.045   1.467  0.7450 -0.5059 -0.3983
 9747TIP3    H250733   2.256   2.099   1.471  0.3749  0.4390  0.1131
 9748TIP3   OH250734   2.039   0.518   0.237 -0.3382 -0.5931 -0.6967
 9748TIP3    H150735   1.993   0.467   0.171 -0.3332 -0.1900 -1.0137
 9748TIP3    H250736   2.118   0.549   0.193  0.9537 -2.4248  0.2504
 9749TIP3   OH250737   0.116   1.917   3.448  0.6611 -0.0852  0.1544
 9749TIP3    H150738   0.153   1.985   3.391  0.1095 -0.7032 -0.9482
 9749TIP3    H250739   0.170   1.920   3.527  2.0001  0.1578 -0.7591
 9750TIP3   OH250740   3.415   2.936   4.557 -0.0219  0.0545  0.4581
 9750TIP3    H150741   3.431   2.896   4.472 -1.0486 -1.5747  1.0108
 9750TIP3    H250742   3.348   3.002   4.541  0.9809  0.8974 -0.2874
 9751TIP3   OH250743   3.236   2.868  13.020 -0.5543  0.5460 -0.3525
 9751TIP3    H150744   3.257   2.780  13.051 -3.5259 -0.3345 -0.7286
 9751TIP3    H250745   3.313   2.894  12.968  1.2327 -0.9581  1.4352
 9752TIP3   OH250746   2.547   4.491   1.528 -0.0037 -0.0727  0.2945
 9752TIP3    H150747   2.617   4.556   1.529 -1.3344  1.3984  1.2704
 9752TIP3    H250748   2.484   4.526   1.464 -0.6675 -0.4477  0.7327
 9753TIP3   OH250749   6.161   4.225   1.610  0.1407  0.4039 -0.1060
 9753TIP3    H150750   6.195   4.135   1.610 -0.5057  0.1643  0.3036
 9753TIP3    H250751   6.209   4.268   1.538  2.1253  0.3731  1.1539
 9754TIP3   OH250752   4.866   3.723  16.135  0.4294 -0.7310  0.0972
 9754TIP3    H150753   4.899   3.660  16.070  0.4022 -0.0491 -0.5883
 9754TIP3    H250754   4.867   3.807  16.089 -1.8261 -0.6288  0.2004
 9755TIP3   OH250755   5.571   2.775   1.273 -0.2040 -0.0857  0.2729
 9755TIP3    H150756   5.613   2.689   1.270  0.4016  0.2416 -1.5237
 9755TIP3    H250757   5.644   2.837   1.274 -0.6373  0.4125  1.8653
 9756TIP3   OH250758   0.978   2.710  15.988 -0.6646  0.0557  0.2826
 9756TIP3    H150759   0.909   2.774  16.006 -1.0163  0.5683 -2.6752
 9756TIP3    H250760   0.934   2.640  15.939  0.1358 -1.5500  1.7683
 9757TIP3   OH250761   5.473   2.975  16.307  0.8705  0.2721 -0.1455
 9757TIP3    H150762   5.387   3.004  16.338  1.7686  0.8218  1.9377
 9757TIP3    H250763   5.535   3.024  16.360  2.4776 -3.5604  1.6829
 9758TIP3   OH250764   2.591   1.900   4.517  0.3886  0.3220 -0.3630
 9758TIP3    H150765   2.567   1.993   4.514  0.0434  0.2509  0.1283
 9758TIP3    H250766   2.552   1.868   4.598 -0.8551 -0.6199 -1.2963
 9759TIP3   OH250767   2.758   5.647   5.681  0.1215 -0.8364 -0.3043
 9759TIP3    H150768   2.741   5.720   5.740 -1.1442 -0.6710 -0.8469
 9759TIP3    H250769   2.821   5.680   5.618  0.9276 -0.7876  0.5177
 9760TIP3   OH250770   2.504   3.209  16.540  0.7777  0.8255  0.1433
 9760TIP3    H150771   2.425   3.187  16.490  0.2231  1.9708  0.5147
 9760TIP3    H250772   2.566   3.139  16.517  0.3306  0.9818 -1.6571
 9761TIP3   OH250773   2.930   4.811   2.464  0.7040  0.2017  0.2735
 9761TIP3    H150774   2.906   4.813   2.557 -2.0705 -0.8107 -0.3396
 9761TIP3    H250775   2.939   4.718   2.444  0.0533  0.3387 -0.7218
 9762TIP3   OH250776   5.923   0.399   6.087  0.5136  0.4802  0.4391
 9762TIP3    H150777   5.845   0.455   6.083  2.2087  2.8034 -1.4531
 9762TIP3    H250778   5.990   0.448   6.040  2.9769 -1.7555  1.5014
 9763TIP3   OH250779   3.712   1.248   0.169  0.2534  0.3050  0.1234
 9763TIP3    H150780   3.770   1.269   0.242  1.5260 -0.4607 -0.6432
 9763TIP3    H250781   3.714   1.152   0.165 -1.1238  0.2784  0.1371
 9764TIP3   OH250782   2.486   2.645  16.507  0.2953 -0.3679 -0.8050
 9764TIP3    H150783   2.519   2.682  16.425 -1.2346  2.2841 -0.2962
 9764TIP3    H250784   2.565   2.620  16.555  1.3226  0.3047 -2.0838
 9765TIP3   OH250785   1.315   3.279  10.913  0.3874  0.2903  0.2081
 9765TIP3    H150786   1.353   3.244  10.832 -0.0509  0.3117 -0.0054
 9765TIP3    H250787   1.293   3.202  10.965 -0.2017  0.2530 -0.0912
 9766TIP3   OH250788   3.778   0.092  13.898  0.2300  0.1659 -0.3530
 9766TIP3    H150789   3.836   0.032  13.852  0.9602  0.3523  0.3099
 9766TIP3    H250790   3.712   0.116  13.833  1.5687  0.8642 -1.4854
 9767TIP3   OH250791   6.737   4.467  14.508  0.2197  0.2030  0.1842
 9767TIP3    H150792   6.721   4.429  14.594  1.7045  1.8625  1.2172
 9767TIP3    H250793   6.801   4.409  14.467 -1.1686 -1.0922 -0.1693
 9768TIP3   OH250794   3.902   1.746  14.741  0.5068 -0.2593 -0.3424
 9768TIP3    H150795   3.947   1.669  14.707 -0.1774 -0.8043 -0.0537
 9768TIP3    H250796   3.809   1.726  14.729  0.2307 -0.6601  2.1908
 9769TIP3   OH250797   4.845   2.410  17.093  0.4618  0.2404 -0.6480
 9769TIP3    H150798   4.786   2.342  17.061  0.6139  0.0564 -0.5406
 9769TIP3    H250799   4.929   2.365  17.105  0.4636  0.3549 -0.2028
 9770TIP3   OH250800   0.194   1.168   4.128  0.2514  0.5882  0.1611
 9770TIP3    H150801   0.259   1.131   4.069  1.3041  1.1613  0.9512
 9770TIP3    H250802   0.118   1.109   4.120  1.2497 -0.7038  0.0680
 9771TIP3   OH250803   1.059   6.494  11.692  0.0103  0.0813 -0.9900
 9771TIP3    H150804   1.070   6.569  11.749 -0.1347 -0.0997 -0.7227
 9771TIP3    H250805   1.077   6.527  11.604 -1.2635  0.7177 -1.0276
 9772TIP3   OH250806   2.090   6.607   1.345 -0.0963 -0.0423 -0.2973
 9772TIP3    H150807   2.050   6.545   1.283  0.5914 -2.5363  1.6593
 9772TIP3    H250808   2.182   6.610   1.321 -0.0192 -0.2307 -0.0277
 9773TIP3   OH250809   1.071   5.750   4.010  0.1673  0.2319  0.3693
 9773TIP3    H150810   1.116   5.696   4.074  0.6730  0.9997  0.6770
 9773TIP3    H250811   1.138   5.814   3.981 -0.9789  2.0289  1.5859
 9774TIP3   OH250812   3.795   3.296  12.046 -0.0241  0.4412  0.0064
 9774TIP3    H150813   3.705   3.268  12.066 -0.7169  0.8765 -2.3343
 9774TIP3    H250814   3.785   3.356  11.972  2.1512  0.9613  0.1175
 9775TIP3   OH250815   2.055   3.290   3.964 -0.1943  0.2461  0.1393
 9775TIP3    H150816   2.047   3.283   3.869  0.4807  0.5887  0.0496
 9775TIP3    H250817   1.967   3.275   3.997  0.0562 -2.6660 -0.3656
 9776TIP3   OH250818   3.046   0.499  13.309  0.4654 -0.1149  0.1530
 9776TIP3    H150819   2.973   0.487  13.370  0.9066  0.0969  0.7273
 9776TIP3    H250820   3.110   0.434  13.334  1.2252  0.8738  0.7928
 9777TIP3   OH250821   4.251   4.014   3.088 -0.0601  0.1503 -0.0835
 9777TIP3    H150822   4.191   4.010   3.014  0.3910  1.6894 -0.5373
 9777TIP3    H250823   4.235   4.099   3.128  0.9012  0.0404  0.5674
 9778TIP3   OH250824   0.923   1.139  15.063 -0.1367 -0.0864  0.5086
 9778TIP3    H150825   0.862   1.091  15.118 -1.8704 -0.7875 -1.9304
 9778TIP3    H250826   0.937   1.222  15.109 -1.3781 -0.7209  2.0809
 9779TIP3   OH250827   2.113   3.681  16.408  0.4817  0.3395 -0.1599
 9779TIP3    H150828   2.066   3.644  16.482  3.1306 -0.7092  1.0580
 9779TIP3    H250829   2.101   3.776  16.417  0.3170  0.1879  1.2648
 9780TIP3   OH250830   3.308   2.536  13.545  0.0322  0.1029  0.2880
 9780TIP3    H150831   3.328   2.551  13.453  1.3466 -1.2960  0.3248
 9780TIP3    H250832   3.246   2.463  13.544  1.4495 -1.1228  0.5841
 9781TIP3   OH250833   5.356   1.822   5.310 -0.0026 -0.1983  0.1827
 9781TIP3    H150834   5.373   1.915   5.299  1.5507 -0.5584 -0.7222
 9781TIP3    H250835   5.301   1.798   5.235  1.3145 -0.4083 -0.7353
 9782TIP3   OH250836   1.024   2.828   4.046  0.3602 -0.3461 -0.2527
 9782TIP3    H150837   0.947   2.872   4.010  0.8237  0.3983 -0.3506
 9782TIP3    H250838   1.057   2.889   4.113  2.0608  0.3053 -1.6477
 9783TIP3   OH250839   0.495   3.953   5.243 -0.1110 -0.5870  0.5532
 9783TIP3    H150840   0.543   4.030   5.273  1.5209 -1.0617 -0.7205
 9783TIP3    H250841   0.411   3.957   5.289  1.0981  0.3297  2.7620
 9784TIP3   OH250842   6.234   6.009  11.077 -0.3452  0.0782  0.1022
 9784TIP3    H150843   6.152   5.963  11.057 -0.8777  1.1887 -0.3338
 9784TIP3    H250844   6.227   6.092  11.030  0.6800  0.5306  0.7191
 9785TIP3   OH250845   2.139   2.722   5.467  0.3598 -0.0840  0.5431
 9785TIP3    H150846   2.220   2.692   5.508 -1.0125 -1.7385  2.0780
 9785TIP3    H250847   2.169   2.768   5.388  2.6860 -2.3728  0.0264
 9786TIP3   OH250848   6.759   4.620  11.633  0.2119 -0.0731  0.1151
 9786TIP3    H150849   6.830   4.562  11.662  1.5011  1.0587 -0.6966
 9786TIP3    H250850   6.793   4.708  11.648  0.2479  0.5211 -3.1347
 9787TIP3   OH250851   6.403   6.356   6.187  0.4065 -1.1323 -0.3761
 9787TIP3    H150852   6.449   6.429   6.146  0.0680 -0.0462  1.1278
 9787TIP3    H250853   6.333   6.334   6.126 -1.4977  1.9439  0.6011
 9788TIP3   OH250854   1.590   3.309  14.905  0.4393 -0.0165 -0.3259
 9788TIP3    H150855   1.661   3.257  14.868  0.4169 -0.3510  0.1038
 9788TIP3    H250856   1.613   3.320  14.997  0.2935  0.4822 -0.3437
 9789TIP3   OH250857   6.715   5.524  16.601 -0.2889 -0.4020  0.0367
 9789TIP3    H150858   6.641   5.497  16.655 -0.0296 -0.8874  0.1491
 9789TIP3    H250859   6.751   5.442  16.566 -1.7513 -0.0048 -2.5979
 9790TIP3   OH250860   3.281   2.137  16.883  0.8401  0.1986 -0.5402
 9790TIP3    H150861   3.191   2.154  16.855  0.5556 -0.1866  0.1513
 9790TIP3    H250862   3.278   2.138  16.979  1.3910 -0.7814 -0.5032
 9791TIP3   OH250863   2.876   6.143  14.644 -0.0306 -0.3026 -0.3971
 9791TIP3    H150864   2.930   6.216  14.613  1.0144 -0.7207  0.3960
 9791TIP3    H250865   2.791   6.182  14.662 -0.5860  0.0118 -3.4563
 9792TIP3   OH250866   0.394   4.176   3.783 -0.2308 -0.5471  0.6005
 9792TIP3    H150867   0.324   4.146   3.841 -1.2229  0.5525  0.0005
 9792TIP3    H250868   0.365   4.263   3.753  0.4978 -0.8725 -1.1313
 9793TIP3   OH250869   0.342   0.340  14.922 -0.4138 -0.0108  0.9904
 9793TIP3    H150870   0.389   0.349  14.839 -1.7757  0.6297  0.2606
 9793TIP3    H250871   0.340   0.428  14.959 -1.8062  0.1521  0.5641
 9794TIP3   OH250872   6.082   4.356   4.534  0.1975 -0.2027 -0.6110
 9794TIP3    H150873   6.094   4.353   4.439  1.7669  1.3813 -0.4985
 9794TIP3    H250874   6.161   4.400   4.566  0.2067 -1.7447  1.5384
 9795TIP3   OH250875   2.664   4.803   0.012 -0.1795  0.3406 -0.0274
 9795TIP3    H150876   2.692   4.735   0.073 -0.3468 -0.0554 -0.3851
 9795TIP3    H250877   2.585   4.840   0.051 -1.6417 -1.5100 -1.1302
 9796TIP3   OH250878   6.486   2.790   0.031  0.5900 -0.1543  0.1412
 9796TIP3    H150879   6.406   2.812   0.079  0.9293 -1.5643  1.4248
 9796TIP3    H250880   6.515   2.872  -0.008 -1.1017  0.5070  0.2496
 9797TIP3   OH250881   0.329   3.953   1.461  0.3398 -0.0401 -0.5711
 9797TIP3    H150882   0.284   3.891   1.518 -0.3454  2.1587  1.3454
 9797TIP3    H250883   0.269   3.964   1.387 -0.4137 -0.2021  0.0091
 9798TIP3   OH250884   3.899   2.460  17.138 -0.0974 -0.1135  0.2479
 9798TIP3    H150885   3.893   2.374  17.096 -1.5074  0.0094  0.1476
 9798TIP3    H250886   3.949   2.445  17.218  0.4802 -0.8416 -0.2524
 9799TIP3   OH250887   4.086   0.740  13.146  0.4941 -0.9167  0.5211
 9799TIP3    H150888   4.051   0.809  13.090  1.0374  0.4413  1.8220
 9799TIP3    H250889   4.176   0.767  13.165  0.3977 -1.4464  1.8551
 9800TIP3   OH250890   2.076   5.203   2.518  0.1753  0.1762  0.0571
 9800TIP3    H150891   2.079   5.298   2.527 -0.6050  0.3007 -1.0262
 9800TIP3    H250892   1.984   5.180   2.532  0.4184 -0.4659  0.6820
 9801TIP3   OH250893   2.189   3.661   2.304 -0.1455  0.4155 -0.4653
 9801TIP3    H150894   2.197   3.751   2.271 -0.0403  0.7614  0.4944
 9801TIP3    H250895   2.105   3.661   2.350 -0.3403 -0.0980 -0.8207
 9802TIP3   OH250896   5.039   5.436  16.455 -0.2388 -0.4243  0.4831
 9802TIP3    H150897   5.111   5.488  16.492 -1.1407  1.5108 -0.3712
 9802TIP3    H250898   4.966   5.498  16.449 -1.8896 -2.2754  1.0152
 9803TIP3   OH250899   2.537   6.180  11.589 -0.1370 -0.0955  0.1084
 9803TIP3    H150900   2.488   6.129  11.654 -0.1491  0.5531  0.6228
 9803TIP3    H250901   2.593   6.116  11.545 -0.0456 -0.5305  0.8363
 9804TIP3   OH250902   4.822   4.302   2.456  0.5352  0.0215 -0.1459
 9804TIP3    H150903   4.812   4.285   2.362  3.7592  0.9437 -0.7129
 9804TIP3    H250904   4.778   4.387   2.469 -2.2518 -1.3486 -0.2518
 9805TIP3   OH250905   5.390   5.739  11.512 -0.3665  0.2568 -0.1592
 9805TIP3    H150906   5.381   5.658  11.462 -0.4200  1.2612 -1.8414
 9805TIP3    H250907   5.306   5.750  11.557 -0.3572 -0.6136  0.0676
 9806TIP3   OH250908   3.388   3.696   1.085  0.2908  0.4801 -0.0771
 9806TIP3    H150909   3.482   3.678   1.090 -0.0088 -1.1085 -0.1062
 9806TIP3    H250910   3.347   3.631   1.142 -0.7614  1.5011  0.3549
 9807TIP3   OH250911   6.266   3.611   3.729 -0.0576 -0.3812  0.5019
 9807TIP3    H150912   6.234   3.562   3.653 -1.5219 -0.0575  0.8940
 9807TIP3    H250913   6.338   3.559   3.763  0.8351 -0.3850 -1.2976
 9808TIP3   OH250914   2.290   1.928   2.845 -0.2277  0.0933 -0.2233
 9808TIP3    H150915   2.285   2.020   2.822  0.1094  0.2004  0.1266
 9808TIP3    H250916   2.367   1.921   2.901  0.4307 -0.6049 -1.1876
 9809TIP3   OH250917   2.360   1.878  10.612 -0.5576  0.4221 -0.1487
 9809TIP3    H150918   2.439   1.863  10.560 -1.9069  1.3228 -2.5324
 9809TIP3    H250919   2.374   1.963  10.653 -0.3905  0.6701 -0.7194
 9810TIP3   OH250920   3.316   3.423  14.390 -0.8998 -0.6156 -0.0273
 9810TIP3    H150921   3.296   3.364  14.318  2.1038 -0.0551 -1.3730
 9810TIP3    H250922   3.302   3.370  14.469 -1.3564 -2.1140 -1.0939
 9811TIP3   OH250923   5.475   3.077  16.784  0.0222 -0.1200  0.3587
 9811TIP3    H150924   5.412   3.146  16.805 -0.3940 -0.7515  1.2307
 9811TIP3    H250925   5.547   3.090  16.845  0.0966 -0.2480  0.2979
 9812TIP3   OH250926   2.003   3.332  13.373 -0.2259  0.4561  0.0865
 9812TIP3    H150927   2.011   3.411  13.425  2.4666  1.4911 -1.7839
 9812TIP3    H250928   1.970   3.362  13.288 -0.4138 -0.6182 -0.2374
 9813TIP3   OH250929   5.861   4.472  14.518  1.1533 -0.5560 -0.0694
 9813TIP3    H150930   5.810   4.545  14.553 -0.4968 -1.0411 -1.4217
 9813TIP3    H250931   5.885   4.500  14.430  2.0341 -0.9189  0.0554
 9814TIP3   OH250932   2.443   3.611  14.708 -0.3277 -0.8802  0.0984
 9814TIP3    H150933   2.384   3.592  14.635  0.6315 -1.2158 -0.6020
 9814TIP3    H250934   2.454   3.527  14.752 -2.3975 -0.2981  1.7684
 9815TIP3   OH250935   2.853   1.064  11.025  0.9596 -0.7372 -0.0118
 9815TIP3    H150936   2.843   0.985  10.971  0.5214 -0.4885 -0.2970
 9815TIP3    H250937   2.806   1.132  10.977  0.7534 -0.4606  0.5768
 9816TIP3   OH250938   0.776   1.131   2.474  0.4592  0.8368 -0.0264
 9816TIP3    H150939   0.704   1.076   2.506 -0.1203  0.5734 -1.7457
 9816TIP3    H250940   0.855   1.083   2.497  0.0288  0.2508  0.2372
 9817TIP3   OH250941   1.429   5.707   0.221 -0.1281 -0.1622  0.2892
 9817TIP3    H150942   1.448   5.729   0.129 -2.4439 -2.6328 -0.8592
 9817TIP3    H250943   1.460   5.617   0.231  1.0491  0.4380  2.2629
 9818TIP3   OH250944   5.235   1.655   0.931 -0.0470 -0.1471 -0.0178
 9818TIP3    H150945   5.310   1.616   0.887 -0.6326 -0.2330 -0.9550
 9818TIP3    H250946   5.207   1.726   0.873 -0.4045  0.1812  0.5481
 9819TIP3   OH250947   4.379   0.566   3.871  0.3244  0.2680 -0.0883
 9819TIP3    H150948   4.445   0.634   3.862  1.1825 -0.5162  0.2450
 9819TIP3    H250949   4.353   0.570   3.963  1.1034 -0.5185  0.1703
 9820TIP3   OH250950   2.693   2.063   3.328 -0.3317  0.0342  0.0406
 9820TIP3    H150951   2.732   1.986   3.287 -1.2977 -0.4896  0.0813
 9820TIP3    H250952   2.662   2.117   3.255  0.2181  0.3207  0.0167
 9821TIP3   OH250953   4.882   4.765  16.409  0.5256  0.2035  0.5455
 9821TIP3    H150954   4.974   4.741  16.411  1.0311  2.1992  2.6245
 9821TIP3    H250955   4.879   4.845  16.356  0.4280  1.7540  2.8220
 9822TIP3   OH250956   0.367   2.329  13.528  0.0043 -0.3526 -0.4416
 9822TIP3    H150957   0.319   2.411  13.538  1.0017  0.0972  0.8495
 9822TIP3    H250958   0.327   2.287  13.452 -0.3773  1.4279 -1.2585
 9823TIP3   OH250959   2.450   6.779   5.801 -0.9627 -0.0185 -0.3552
 9823TIP3    H150960   2.534   6.734   5.803 -0.8252  0.2664  2.5295
 9823TIP3    H250961   2.385   6.709   5.800 -0.7822 -0.2678 -4.4396
 9824TIP3   OH250962   3.309   3.227  14.624  0.0211  0.2087 -0.6497
 9824TIP3    H150963   3.239   3.267  14.676  0.4849  1.2716 -0.8328
 9824TIP3    H250964   3.295   3.133  14.634 -0.3472  0.4057  0.7850
 9825TIP3   OH250965   4.205   5.464  15.009 -0.0589  0.2031  0.3730
 9825TIP3    H150966   4.178   5.393  15.067 -0.6476 -0.1391 -0.3175
 9825TIP3    H250967   4.298   5.448  14.995 -0.2642 -0.6454 -0.0707
 9826TIP3   OH250968   4.311   3.080   2.374 -0.2729 -0.2155 -0.5088
 9826TIP3    H150969   4.245   3.139   2.411  0.2215  0.6963 -1.0485
 9826TIP3    H250970   4.353   3.040   2.449  1.6183  2.5900  0.0155
 9827TIP3   OH250971   5.952   0.388  17.123  0.0160 -0.3368 -0.0853
 9827TIP3    H150972   5.902   0.307  17.108 -1.2150  0.2599  0.6703
 9827TIP3    H250973   5.922   0.448  17.055  0.5403 -0.3422 -0.3218
 9828TIP3   OH250974   5.574   4.153  12.800 -0.3216  0.5593 -0.3531
 9828TIP3    H150975   5.530   4.129  12.882  0.4556 -0.1524 -0.1334
 9828TIP3    H250976   5.520   4.113  12.731 -0.9464  1.1138 -0.1851
 9829TIP3   OH250977   0.849   0.616   3.398  0.1342  0.3290 -0.0569
 9829TIP3    H150978   0.880   0.561   3.327 -0.0074  0.3587 -0.1442
 9829TIP3    H250979   0.927   0.639   3.447  0.4994  1.8117 -1.2718
 9830TIP3   OH250980   2.418   4.793  13.255 -0.3807  0.4033  0.0607
 9830TIP3    H150981   2.324   4.808  13.263 -0.6132 -1.6317  1.4156
 9830TIP3    H250982   2.442   4.746  13.335  1.6078 -0.0144 -0.7554
 9831TIP3   OH250983   2.532   1.418  14.543  0.6314 -0.8981  0.4830
 9831TIP3    H150984   2.564   1.474  14.614 -0.2050 -1.2038  1.1196
 9831TIP3    H250985   2.526   1.331  14.583 -0.2242 -0.9955  0.1582
 9832TIP3   OH250986   6.669   2.556   0.808  0.1359 -0.2682 -0.3132
 9832TIP3    H150987   6.680   2.647   0.781 -1.2757  0.7722  2.4124
 9832TIP3    H250988   6.578   2.536   0.788  0.4609 -1.1257 -0.9650
 9833TIP3   OH250989   0.851   6.267  13.755  0.0943 -0.3313  0.2935
 9833TIP3    H150990   0.824   6.227  13.838 -0.3762 -0.6563 -0.0125
 9833TIP3    H250991   0.836   6.199  13.689  2.8741 -0.9666  0.2561
 9834TIP3   OH250992   1.839   2.875   6.087 -0.2805 -0.1037 -0.1409
 9834TIP3    H150993   1.779   2.907   6.154  0.0501  0.4297 -0.0882
 9834TIP3    H250994   1.831   2.780   6.089  0.8483 -0.1895  1.7056
 9835TIP3   OH250995   0.398   6.713  10.546  0.5901 -0.6829 -0.0497
 9835TIP3    H150996   0.470   6.775  10.552 -2.6853  3.2461  0.4985
 9835TIP3    H250997   0.359   6.729  10.460 -0.9184 -1.2907  0.4963
 9836TIP3   OH250998   5.493   3.084   2.966 -0.6075 -0.6170  0.0496
 9836TIP3    H150999   5.492   3.179   2.957 -0.1779 -0.5230  0.8744
 9836TIP3    H251000   5.556   3.054   2.901  0.5123 -0.1915  0.9115
 9837TIP3   OH251001   0.608   1.710   1.031  0.3858  0.1828  0.2836
 9837TIP3    H151002   0.530   1.729   0.978  0.8212 -2.9369 -1.5897
 9837TIP3    H251003   0.666   1.785   1.016 -0.9362  1.0113 -0.8466
 9838TIP3   OH251004   3.834   6.589  12.864  0.4196  0.1642 -0.1678
 9838TIP3    H151005   3.890   6.615  12.938 -0.7506  0.3319  0.6800
 9838TIP3    H251006   3.788   6.511  12.896  1.0025 -0.6311 -1.2660
 9839TIP3   OH251007   4.377   0.684  14.443 -0.1947  0.0960  0.5129
 9839TIP3    H151008   4.408   0.619  14.506 -0.5806 -1.5167 -0.9011
 9839TIP3    H251009   4.430   0.669  14.364 -0.4409  1.3631  0.0858
 9840TIP3   OH251010   3.626   4.729  13.733 -0.3871  0.0546 -0.0315
 9840TIP3    H151011   3.647   4.640  13.705 -2.0245  0.3314 -2.2863
 9840TIP3    H251012   3.603   4.721  13.825  1.7111 -1.4832  0.3871
 9841TIP3   OH251013   4.603   6.264  12.777 -0.3305  0.3216  0.5142
 9841TIP3    H151014   4.508   6.264  12.790 -0.9154  0.0773 -3.1788
 9841TIP3    H251015   4.620   6.183  12.730  1.1895  2.0565 -2.0159
 9842TIP3   OH251016   3.987   2.033   5.095 -0.1826 -0.4078  0.5932
 9842TIP3    H151017   3.965   2.121   5.066 -2.6537 -0.7476  1.3026
 9842TIP3    H251018   3.977   2.037   5.191 -0.9711 -1.6009  0.5729
 9843TIP3   OH251019   5.365   2.132  15.855  0.1456  0.2086 -0.1571
 9843TIP3    H151020   5.272   2.154  15.867  0.8168  2.4883  1.0241
 9843TIP3    H251021   5.398   2.119  15.944  1.2503  0.5441 -0.5208
 9844TIP3   OH251022   3.405   6.353  17.016  0.2536  0.0007 -0.1009
 9844TIP3    H151023   3.388   6.372  17.108  0.9374 -0.3840  0.1062
 9844TIP3    H251024   3.500   6.362  17.006  0.1794  0.1057 -0.7829
 9845TIP3   OH251025   3.373   5.309  15.536  0.5943 -0.6232  0.2635
 9845TIP3    H151026   3.294   5.256  15.546 -0.4433  0.4435 -1.9989
 9845TIP3    H251027   3.445   5.247  15.547 -0.5489 -1.8399  1.0644
 9846TIP3   OH251028   0.079   6.647   1.003 -0.4933  0.0538 -0.0531
 9846TIP3    H151029   0.043   6.591   1.072 -0.3639  0.5546  0.4214
 9846TIP3    H251030   0.133   6.588   0.950 -1.6031 -0.6037 -0.4794
 9847TIP3   OH251031   1.756   0.014  16.148  0.2480  0.1286 -0.0054
 9847TIP3    H151032   1.733   0.091  16.097 -0.9267 -0.2325 -0.0321
 9847TIP3    H251033   1.685   0.005  16.212  0.3824 -0.9168  0.0100
 9848TIP3   OH251034   3.088   4.564   1.887  0.3022  0.3270 -0.2231
 9848TIP3    H151035   3.069   4.591   1.977 -0.7197  1.7765 -0.8512
 9848TIP3    H251036   3.132   4.640   1.849  2.1499 -0.8718 -0.4924
 9849TIP3   OH251037   5.260   4.808  10.650  0.1355  0.3503 -0.1092
 9849TIP3    H151038   5.345   4.778  10.618  0.1001 -0.7113  0.7342
 9849TIP3    H251039   5.196   4.760  10.598  0.0761 -0.7040  0.9059
 9850TIP3   OH251040   1.002   2.928  12.858  0.0051  0.3660  0.1425
 9850TIP3    H151041   1.068   2.863  12.883  0.8703  1.2498  0.1551
 9850TIP3    H251042   0.933   2.876  12.816  1.0781 -0.4597 -0.6279
 9851TIP3   OH251043   5.108   2.119  14.119 -0.1359  0.3846  1.0257
 9851TIP3    H151044   5.198   2.094  14.143  0.4614  1.5409  0.0211
 9851TIP3    H251045   5.072   2.040  14.079  0.9726  0.3951 -0.0300
 9852TIP3   OH251046   1.149   6.810  15.452 -0.1663  0.4601  0.0558
 9852TIP3    H151047   1.151   6.831  15.358 -0.0067 -0.2180 -0.0967
 9852TIP3    H251048   1.230   6.761  15.467 -0.6297 -0.2225  0.3570
 9853TIP3   OH251049   4.911   4.974   1.870 -0.2976 -0.0132  0.2621
 9853TIP3    H151050   4.896   4.921   1.792 -2.3905 -1.2565  1.4488
 9853TIP3    H251051   4.949   4.913   1.933  0.5670  0.7598  0.4886
 9854TIP3   OH251052   5.059   4.760   2.081 -0.0955  0.4645 -0.2332
 9854TIP3    H151053   5.075   4.842   2.127  1.9578 -0.8478  1.5198
 9854TIP3    H251054   4.984   4.721   2.127  0.1478  0.4758  0.1791
 9855TIP3   OH251055   4.599   2.067   3.305  0.0206  0.3017  0.3871
 9855TIP3    H151056   4.612   2.098   3.395  0.5671 -0.9909  0.7796
 9855TIP3    H251057   4.678   2.015   3.287 -0.3804  0.0329 -0.6047
 9856TIP3   OH251058   4.548   2.105   0.705 -0.3128 -0.6479  0.4660
 9856TIP3    H151059   4.587   2.157   0.775  1.1911 -0.5011 -0.4476
 9856TIP3    H251060   4.461   2.083   0.737 -0.3697  1.0536  1.5556
 9857TIP3   OH251061   2.943   5.475  10.699  0.2893  0.1245 -0.1903
 9857TIP3    H151062   2.878   5.448  10.634 -0.3529  2.1908 -0.4582
 9857TIP3    H251063   2.954   5.399  10.755 -0.2196 -1.2157 -1.8659
 9858TIP3   OH251064   6.036   5.773   0.415 -0.4094  0.2710  0.1229
 9858TIP3    H151065   6.059   5.832   0.486  1.0708 -0.1300  0.0036
 9858TIP3    H251066   6.064   5.818   0.336  0.8907 -0.6306  0.0416
 9859TIP3   OH251067   0.555   4.555  17.032 -0.2358 -0.3293  0.3923
 9859TIP3    H151068   0.469   4.545  16.991 -0.6855  1.2554  0.9205
 9859TIP3    H251069   0.570   4.472  17.077 -0.5890 -1.3726 -1.3569
 9860TIP3   OH251070   5.649   4.159   2.558  0.2737 -0.1141 -0.3022
 9860TIP3    H151071   5.574   4.103   2.578  0.1434 -0.0513 -0.5990
 9860TIP3    H251072   5.610   4.242   2.530  0.4601  0.0332 -0.1203
 9861TIP3   OH251073   0.483   4.604   5.679 -0.4502 -0.1361  0.2705
 9861TIP3    H151074   0.420   4.657   5.728 -0.9931  0.1814 -0.7651
 9861TIP3    H251075   0.523   4.547   5.745 -2.1051 -0.6106  0.8741
 9862TIP3   OH251076   2.558   0.550  12.986  0.1224 -0.4401 -0.1419
 9862TIP3    H151077   2.547   0.644  12.999  0.0347 -0.5179  0.3506
 9862TIP3    H251078   2.651   0.534  13.001  0.0805 -0.4798  0.0786
 9863TIP3   OH251079   2.419   3.163  10.707  0.2768  0.4593  0.8070
 9863TIP3    H151080   2.491   3.220  10.681  0.8216  0.3354  1.9903
 9863TIP3    H251081   2.385   3.127  10.625  0.2321  2.1066  0.0840
 9864TIP3   OH251082   4.183   3.465   6.158 -0.9798  0.8691  0.1393
 9864TIP3    H151083   4.218   3.450   6.245  0.7405 -1.0353 -0.8571
 9864TIP3    H251084   4.252   3.511   6.111 -1.8977  1.8951 -0.2302
 9865TIP3   OH251085   6.774   3.468   1.770  0.1529 -0.1971 -0.1087
 9865TIP3    H151086   6.818   3.444   1.688 -1.1062  0.2683 -0.9368
 9865TIP3    H251087   6.750   3.559   1.758 -1.4138 -0.5629  0.1532
 9866TIP3   OH251088   1.290   0.239   3.943  0.2173 -0.1415 -0.3581
 9866TIP3    H151089   1.283   0.314   4.003 -3.4353 -1.2567  0.7584
 9866TIP3    H251090   1.212   0.246   3.887 -0.9837 -3.8686  0.7205
 9867TIP3   OH251091   4.072   6.408   2.300  0.1448 -0.3954  0.6916
 9867TIP3    H151092   4.038   6.455   2.224 -0.9878 -0.0375  1.4079
 9867TIP3    H251093   4.165   6.396   2.281  0.1366  0.8110 -0.1821
 9868TIP3   OH251094   1.692   1.904  11.327 -0.0091  0.0020 -0.2615
 9868TIP3    H151095   1.720   1.818  11.296 -0.6693 -0.3026 -0.0299
 9868TIP3    H251096   1.728   1.966  11.263  0.2658 -0.4607 -0.5601
 9869TIP3   OH251097   4.698   3.873  12.835  0.0510 -0.5170  0.4431
 9869TIP3    H151098   4.670   3.964  12.832  0.4362 -0.4433 -1.4302
 9869TIP3    H251099   4.624   3.825  12.872 -0.1651  0.5342  1.3937
 9870TIP3   OH251100   6.795   3.136   2.266  0.4174 -0.8122 -0.1825
 9870TIP3    H151101   6.787   3.076   2.340  2.4861 -0.4594  0.3405
 9870TIP3    H251102   6.865   3.099   2.213  0.1577 -0.0752 -1.0501
 9871TIP3   OH251103   2.723   6.446  11.279  0.1965  0.0475  0.3720
 9871TIP3    H151104   2.677   6.368  11.312 -0.3038  0.1988  0.0419
 9871TIP3    H251105   2.718   6.438  11.184  0.4699  0.2925  0.3384
 9872TIP3   OH251106   5.991   0.859   1.850 -0.3738 -0.2336 -0.1567
 9872TIP3    H151107   6.013   0.801   1.778  0.7172 -1.4741  1.1511
 9872TIP3    H251108   6.065   0.921   1.855 -1.9971  1.9889 -2.1984
 9873TIP3   OH251109   1.716   3.933  11.989 -0.4207  0.1864  0.0417
 9873TIP3    H151110   1.683   3.847  11.963  0.9290 -0.6235  0.9618
 9873TIP3    H251111   1.686   3.992  11.920  0.3995 -1.3792 -1.7042
 9874TIP3   OH251112   4.836   1.500   3.784  0.0102  0.1597  0.1207
 9874TIP3    H151113   4.825   1.590   3.752  0.0882  0.2685  0.3994
 9874TIP3    H251114   4.825   1.507   3.879 -3.9995 -0.7143 -0.1906
 9875TIP3   OH251115   0.520   6.652  17.020 -0.6237  0.4323 -0.3957
 9875TIP3    H151116   0.459   6.620  17.086 -0.9353  1.1124 -0.3495
 9875TIP3    H251117   0.567   6.574  16.991 -0.3617  0.1499  0.7493
 9876TIP3   OH251118   5.284   5.155   6.208 -0.2535  0.4159 -0.3245
 9876TIP3    H151119   5.349   5.086   6.198 -2.3118 -1.7191  0.7093
 9876TIP3    H251120   5.284   5.175   6.301  0.4292  1.9439 -0.6351
 9877TIP3   OH251121   4.583   0.618  11.147 -0.4713  0.0215 -0.5201
 9877TIP3    H151122   4.540   0.536  11.122 -0.0441 -0.3483 -0.0284
 9877TIP3    H251123   4.657   0.592  11.201 -1.8304  0.8409  1.8254
 9878TIP3   OH251124   4.110   0.106  13.899  0.8795 -0.1695 -0.3668
 9878TIP3    H151125   4.042   0.039  13.910  0.1987  0.3809 -1.1402
 9878TIP3    H251126   4.178   0.082  13.962  0.7432 -1.7075 -0.7936
 9879TIP3   OH251127   4.043   0.342  14.364 -0.4343 -0.0105 -0.2106
 9879TIP3    H151128   3.991   0.329  14.284 -0.8822 -0.6651  0.1786
 9879TIP3    H251129   4.025   0.432  14.389  0.0489  0.3406 -1.0870
 9880TIP3   OH251130   5.702   6.562  11.983  0.1844 -0.5179  0.3374
 9880TIP3    H151131   5.667   6.634  11.930  1.5455 -0.0642  0.0236
 9880TIP3    H251132   5.698   6.594  12.073 -0.9970 -0.8067  0.3859
 9881TIP3   OH251133   0.391   5.707  15.430 -0.5552 -0.3508 -0.1206
 9881TIP3    H151134   0.443   5.783  15.455 -3.0109  0.8544  1.6011
 9881TIP3    H251135   0.401   5.701  15.335  1.6416  0.6214  0.0286
 9882TIP3   OH251136   5.350   4.534   2.304  0.1308  0.6167  0.1055
 9882TIP3    H151137   5.322   4.487   2.226 -2.3172  1.3575  0.4992
 9882TIP3    H251138   5.396   4.611   2.271 -1.3283  1.1922 -0.6342
 9883TIP3   OH251139   4.789   0.941  16.882  0.8527 -0.6428  0.0063
 9883TIP3    H151140   4.795   1.036  16.879  0.9223 -0.6760 -0.8227
 9883TIP3    H251141   4.733   0.924  16.958  1.3958  0.0290  0.5685
 9884TIP3   OH251142   5.517   1.085   2.812  0.0015 -0.3610 -0.2650
 9884TIP3    H151143   5.534   0.991   2.814  0.6458 -0.3061 -2.0365
 9884TIP3    H251144   5.435   1.094   2.763 -1.0198 -0.0895  1.4279
 9885TIP3   OH251145   6.733   4.057   5.222  0.4060  0.6437  0.0344
 9885TIP3    H151146   6.744   3.965   5.199  0.2159  0.7443 -0.4497
 9885TIP3    H251147   6.770   4.105   5.148  0.6057  0.9597  0.3352
 9886TIP3   OH251148   4.898   2.485   3.665  0.1130 -0.0401  0.3349
 9886TIP3    H151149   4.887   2.442   3.749 -0.5573  1.5067  1.0597
 9886TIP3    H251150   4.828   2.551   3.662  2.0463  2.0814 -0.0322
 9887TIP3   OH251151   6.664   1.861   0.925 -0.2133 -0.1080 -0.1015
 9887TIP3    H151152   6.694   1.867   0.834 -0.0498  0.1573 -0.0298
 9887TIP3    H251153   6.656   1.767   0.941  1.8320 -0.2356  0.2929
 9888TIP3   OH251154   0.381   1.563   1.329 -0.6475  0.8705  0.0289
 9888TIP3    H151155   0.330   1.502   1.277  1.2839 -0.4120 -0.4244
 9888TIP3    H251156   0.338   1.564   1.414 -3.1414  2.0942 -1.2194
 9889TIP3   OH251157   5.890   2.812   3.782  0.1214  0.3563  0.3943
 9889TIP3    H151158   5.830   2.879   3.815  0.8243  1.2977 -0.2066
 9889TIP3    H251159   5.893   2.827   3.688 -2.1019 -2.4957 -0.2015
 9890TIP3   OH251160   1.337   3.280  13.175 -0.5746  0.4677 -0.5501
 9890TIP3    H151161   1.334   3.263  13.081 -1.1660  1.1284 -0.6572
 9890TIP3    H251162   1.356   3.195  13.214  0.6252  0.3694 -1.3173
 9891TIP3   OH251163   1.193   0.255  12.174 -0.4265 -0.2118 -0.4853
 9891TIP3    H151164   1.288   0.248  12.165 -0.2669  3.4286 -2.3098
 9891TIP3    H251165   1.161   0.166  12.157  2.5370 -1.1999 -1.2239
 9892TIP3   OH251166   3.902   4.260   4.638 -0.1979 -0.9795  0.2660
 9892TIP3    H151167   3.837   4.290   4.702 -0.5225 -0.3373 -0.3563
 9892TIP3    H251168   3.856   4.264   4.554  2.1100  4.2716 -0.9295
 9893TIP3   OH251169   3.332   0.218   2.103  0.1128 -0.3362  0.0388
 9893TIP3    H151170   3.289   0.278   2.164  1.9736  0.5333  0.5257
 9893TIP3    H251171   3.340   0.137   2.152 -2.0882 -0.9284 -0.4968
 9894TIP3   OH251172   3.233   5.867  10.865 -0.0023 -0.5297 -0.8298
 9894TIP3    H151173   3.271   5.794  10.818  1.3814 -0.2459 -0.1653
 9894TIP3    H251174   3.261   5.856  10.955  0.3607  0.8947 -0.7454
 9895TIP3   OH251175   0.476   2.441   1.399  0.0336  0.0404 -0.1978
 9895TIP3    H151176   0.531   2.518   1.387 -1.9862  1.3824 -1.1168
 9895TIP3    H251177   0.470   2.402   1.312  0.3113 -0.6478  0.0870
 9896TIP3   OH251178   0.476   1.414  15.963 -0.5353  0.3161  0.4544
 9896TIP3    H151179   0.533   1.489  15.982  0.5570 -0.2033 -0.6289
 9896TIP3    H251180   0.467   1.415  15.867 -2.3489  0.3716  0.6118
 9897TIP3   OH251181   0.629   4.178   1.251 -0.0279  0.0109 -0.4381
 9897TIP3    H151182   0.686   4.222   1.314 -0.3791 -1.5562  1.0257
 9897TIP3    H251183   0.634   4.085   1.275 -2.2170 -0.3053 -1.0647
 9898TIP3   OH251184   0.918   0.899   2.544  0.7638 -0.4069 -0.1291
 9898TIP3    H151185   0.867   0.827   2.507 -2.7479  2.0252 -0.3667
 9898TIP3    H251186   0.928   0.876   2.637 -1.2579 -0.7372  0.0358
 9899TIP3   OH251187   4.684   5.886  13.148 -0.5097 -0.5100 -0.1852
 9899TIP3    H151188   4.753   5.860  13.086  1.1370  0.2332  1.2666
 9899TIP3    H251189   4.720   5.862  13.233 -1.2518  1.5687  0.7473
 9900TIP3   OH251190   3.795   1.023  11.830 -0.1040  0.1334 -0.4385
 9900TIP3    H151191   3.703   1.041  11.808  0.0410 -0.8628 -1.9609
 9900TIP3    H251192   3.843   1.098  11.795 -0.2903  0.4407 -0.0388
 9901TIP3   OH251193   6.048   2.445   5.543  0.0627  0.0538 -0.1958
 9901TIP3    H151194   5.955   2.425   5.550  0.1439  0.4494  2.3651
 9901TIP3    H251195   6.053   2.508   5.471 -1.4797 -0.9130 -1.1853
 9902TIP3   OH251196   6.770   4.900   2.353  0.9926  1.1691 -0.0169
 9902TIP3    H151197   6.750   4.841   2.280  0.1306  1.6733 -0.1842
 9902TIP3    H251198   6.708   4.875   2.422  0.9729  1.5423  0.0992
 9903TIP3   OH251199   4.814   5.043  16.866  0.0128  0.0412  0.0997
 9903TIP3    H151200   4.844   4.952  16.871  1.2170  0.4312  0.0926
 9903TIP3    H251201   4.880   5.087  16.813 -1.3379  0.6100 -1.1441
 9904TIP3   OH251202   6.633   6.303  16.493 -0.4978 -0.0151  0.3103
 9904TIP3    H151203   6.655   6.250  16.570 -2.1636 -1.5325 -0.2247
 9904TIP3    H251204   6.591   6.381  16.530 -0.8428 -0.5022  0.9716
 9905TIP3   OH251205   4.765   3.444  11.859 -0.1735  0.4886 -0.1328
 9905TIP3    H151206   4.853   3.469  11.886  0.2736 -2.5931  1.4242
 9905TIP3    H251207   4.717   3.431  11.941 -1.0665 -1.1949 -0.8963
 9906TIP3   OH251208   1.252   2.604  11.472 -0.3808 -0.3190  0.3308
 9906TIP3    H151209   1.291   2.572  11.553  0.7155 -1.2064 -0.5325
 9906TIP3    H251210   1.314   2.578  11.403 -0.7953  1.3052 -0.6848
 9907TIP3   OH251211   5.327   4.620  15.588 -0.0188  1.0378  0.0304
 9907TIP3    H151212   5.267   4.685  15.551  1.1262  1.5337 -1.0008
 9907TIP3    H251213   5.276   4.576  15.655 -1.7849  0.9494 -1.3321
 9908TIP3   OH251214   5.207   6.271   4.680  0.5572 -0.5850  0.3613
 9908TIP3    H151215   5.138   6.325   4.642  0.6790 -1.7078 -1.5564
 9908TIP3    H251216   5.160   6.198   4.722  0.5238 -0.8417 -0.1143
 9909TIP3   OH251217   1.389   5.592   2.370 -0.4794  0.3438 -0.5883
 9909TIP3    H151218   1.385   5.600   2.275 -1.4432 -1.8757 -0.7657
 9909TIP3    H251219   1.355   5.675   2.403 -1.5259  0.5551 -2.1703
 9910TIP3   OH251220   4.705   1.896  11.635  0.0366  0.2865  0.4493
 9910TIP3    H151221   4.677   1.966  11.695  0.3886  1.2984 -0.5399
 9910TIP3    H251222   4.662   1.817  11.668 -2.2566  1.3915  0.2475
 9911TIP3   OH251223   2.125   6.808  15.396  0.0733 -0.0236  0.3918
 9911TIP3    H151224   2.072   6.814  15.476  0.5250  1.1829  0.6247
 9911TIP3    H251225   2.208   6.850  15.420  0.1793  0.4223 -0.7397
 9912TIP3   OH251226   0.598   2.878   0.378  0.4226  0.2970  0.1950
 9912TIP3    H151227   0.564   2.902   0.464 -1.2336 -1.7795  0.1692
 9912TIP3    H251228   0.581   2.954   0.323 -0.5150  0.8037  1.1818
 9913TIP3   OH251229   4.085   1.097   1.671  0.1625  0.4791 -0.2901
 9913TIP3    H151230   4.015   1.151   1.709 -0.9938 -1.9280  1.0932
 9913TIP3    H251231   4.161   1.113   1.727  0.3782  2.0853 -1.0075
 9914TIP3   OH251232   4.849   6.402  13.847  0.1909  0.6373 -0.1165
 9914TIP3    H151233   4.774   6.427  13.900  0.1979 -0.7246  0.5663
 9914TIP3    H251234   4.913   6.472  13.861 -0.5761  1.3102  0.0620
 9915TIP3   OH251235   1.403   0.394  12.469 -0.6280  0.1753 -0.3349
 9915TIP3    H151236   1.393   0.314  12.521  0.1244 -0.5197 -1.2309
 9915TIP3    H251237   1.498   0.403  12.457 -0.7180  1.0948 -0.4093
 9916TIP3   OH251238   2.085   1.189   0.959 -0.1316 -0.7338 -0.0161
 9916TIP3    H151239   2.167   1.217   0.917  0.1338 -0.4605  0.6790
 9916TIP3    H251240   2.019   1.249   0.925 -0.1310 -1.2411 -0.9286
 9917TIP3   OH251241   5.151   2.639  17.237  0.3442  0.1243 -0.2826
 9917TIP3    H151242   5.218   2.685  17.187  1.0365  0.0906  0.6057
 9917TIP3    H251243   5.101   2.709  17.280  1.8457  0.0370  1.6412
 9918TIP3   OH251244   0.685   3.266   0.532 -0.3438  0.2087 -0.1811
 9918TIP3    H151245   0.685   3.318   0.612 -0.4456 -0.0109 -0.0376
 9918TIP3    H251246   0.597   3.275   0.497 -0.6997 -0.7981  0.4524
 9919TIP3   OH251247   0.884   0.635  11.629  0.3037  0.5921  0.0182
 9919TIP3    H151248   0.860   0.625  11.537 -0.9396  0.3952  0.3596
 9919TIP3    H251249   0.870   0.548  11.667  2.7225  0.1519 -0.0302
 9920TIP3   OH251250   4.559   0.258   0.815 -0.4773 -0.6627  0.0982
 9920TIP3    H151251   4.469   0.232   0.835 -0.4092 -0.4994  0.6279
 9920TIP3    H251252   4.597   0.279   0.901  0.3996 -1.8158  0.0099
 9921TIP3   OH251253   6.719   2.088  16.124 -0.2591 -0.3530 -0.2354
 9921TIP3    H151254   6.668   2.026  16.071 -0.0779 -1.7634  1.2072
 9921TIP3    H251255   6.792   2.114  16.067 -1.0860 -0.3985 -1.3378
 9922TIP3   OH251256   5.244   0.549  11.812 -0.2066 -0.0828 -0.3616
 9922TIP3    H151257   5.174   0.487  11.834 -0.3269  0.5452  1.0908
 9922TIP3    H251258   5.198   0.629  11.785 -0.0521 -0.6045 -2.2297
 9923TIP3   OH251259   6.449   4.908  15.854  0.1149 -0.2661  0.2472
 9923TIP3    H151260   6.514   4.965  15.813  0.9436 -0.5755  1.1230
 9923TIP3    H251261   6.369   4.960  15.855  0.7306  0.6886  0.5528
 9924TIP3   OH251262   0.346   6.276   1.452  0.4629 -0.1883 -0.1893
 9924TIP3    H151263   0.405   6.257   1.379  0.1602  1.1032 -0.7815
 9924TIP3    H251264   0.358   6.370   1.469 -0.7036 -0.1238  0.3143
 9925TIP3   OH251265   0.312   1.615  13.908 -0.2474 -0.3917  0.1298
 9925TIP3    H151266   0.226   1.600  13.947  0.0694  0.6337  1.2552
 9925TIP3    H251267   0.342   1.697  13.947  0.3067  0.3998 -1.9300
 9926TIP3   OH251268   1.013   2.080  13.714 -0.1140  0.3726  0.5687
 9926TIP3    H151269   1.106   2.060  13.726  0.4355  0.1505 -3.4570
 9926TIP3    H251270   1.006   2.174  13.734  1.0358  0.4469  0.6430
 9927TIP3   OH251271   2.509   5.624  11.100 -0.7047  0.2079 -0.0645
 9927TIP3    H151272   2.503   5.562  11.172  0.9470 -0.6164 -0.6090
 9927TIP3    H251273   2.429   5.611  11.050  0.1438 -2.3206 -0.8155
 9928TIP3   OH251274   6.106   3.619  14.977 -0.4286  0.3457  0.4166
 9928TIP3    H151275   6.173   3.677  14.942  1.8657 -1.3106  1.8853
 9928TIP3    H251276   6.135   3.599  15.066 -2.2895 -1.2946  0.7078
 9929TIP3   OH251277   2.307   3.196  14.280 -0.1457 -0.1776 -0.0459
 9929TIP3    H151278   2.306   3.213  14.374 -1.2085  2.1865 -0.4646
 9929TIP3    H251279   2.226   3.148  14.263  0.1754 -0.8410  0.2713
 9930TIP3   OH251280   6.474   2.218   6.553 -0.3708  0.0651  0.5964
 9930TIP3    H151281   6.532   2.258   6.488  0.0108 -0.8537  0.3577
 9930TIP3    H251282   6.394   2.270   6.549 -2.0031 -2.5035 -3.6757
 9931TIP3   OH251283   2.434   1.138  13.629 -0.0799  0.1836  0.0722
 9931TIP3    H151284   2.521   1.122  13.592  1.0878  0.9483  2.3963
 9931TIP3    H251285   2.426   1.075  13.700 -0.8064  1.0950  0.8214
 9932TIP3   OH251286   0.336   6.034   2.920 -1.1499  0.5703  0.4771
 9932TIP3    H151287   0.324   5.940   2.906 -1.3616  0.2844  2.4590
 9932TIP3    H251288   0.301   6.075   2.841  0.8744 -1.1021 -1.3168
 9933TIP3   OH251289   4.527   0.281   4.473 -0.1341  0.1198 -0.4483
 9933TIP3    H151290   4.499   0.371   4.487  1.3623  0.4902  0.3266
 9933TIP3    H251291   4.616   0.288   4.441  0.2741 -1.0976  0.3660
 9934TIP3   OH251292   2.922   0.394  14.873 -0.1107  0.1274 -0.7192
 9934TIP3    H151293   2.879   0.479  14.879 -0.5090 -0.0041 -1.6915
 9934TIP3    H251294   2.899   0.350  14.955  0.6930  1.2218  0.1121
 9935TIP3   OH251295   0.353   0.307  10.754  0.4051  0.0945 -0.0775
 9935TIP3    H151296   0.401   0.269  10.680  0.5665  0.8721 -0.3675
 9935TIP3    H251297   0.274   0.253  10.760  1.6857 -1.7280  0.9236
 9936TIP3   OH251298   2.888   2.404  11.726 -0.2733  0.0997  0.5325
 9936TIP3    H151299   2.974   2.444  11.734 -0.5150  0.8717 -0.5954
 9936TIP3    H251300   2.863   2.383  11.816  1.7245 -1.5466  0.7395
 9937TIP3   OH251301   3.666   0.423  16.896 -0.2552 -0.6998  0.9137
 9937TIP3    H151302   3.609   0.476  16.952  0.1359  0.2562  0.4289
 9937TIP3    H251303   3.717   0.488  16.846 -0.4078 -1.5376 -0.3489
 9938TIP3   OH251304   5.310   4.180  11.108  0.3410 -0.4146 -0.4563
 9938TIP3    H151305   5.371   4.178  11.034 -0.4365  2.6456 -1.2542
 9938TIP3    H251306   5.357   4.228  11.176 -1.0292  1.6877 -0.9665
 9939TIP3   OH251307   5.531   4.707  13.080 -0.3655  0.5135 -0.8113
 9939TIP3    H151308   5.479   4.773  13.126 -2.6830 -1.4831 -0.4212
 9939TIP3    H251309   5.468   4.665  13.020  1.5875  0.1652 -2.6923
 9940TIP3   OH251310   2.461   3.337   0.805 -0.3545  0.6306  0.3343
 9940TIP3    H151311   2.551   3.321   0.836 -0.3407 -0.9140 -0.4457
 9940TIP3    H251312   2.442   3.427   0.832  0.8846  0.4714  1.8264
 9941TIP3   OH251313   5.722   6.348  10.915  0.1080 -1.0352 -0.1595
 9941TIP3    H151314   5.756   6.263  10.888 -0.5884 -1.6743  0.9409
 9941TIP3    H251315   5.632   6.349  10.882 -0.2600 -1.2127  0.8164
 9942TIP3   OH251316   3.119   2.300   5.213  0.0850 -0.8637  0.1266
 9942TIP3    H151317   3.179   2.349   5.269 -0.5579 -1.7476  1.6272
 9942TIP3    H251318   3.166   2.219   5.192 -0.0512 -0.9622  0.1984
 9943TIP3   OH251319   2.354   5.315  13.189 -0.3782  0.8211 -0.0382
 9943TIP3    H151320   2.269   5.329  13.231 -1.2261 -0.6164 -1.2169
 9943TIP3    H251321   2.404   5.265  13.254 -2.1518 -2.5813 -1.1678
 9944TIP3   OH251322   2.514   2.051   0.932  0.4515  0.2823  0.2603
 9944TIP3    H151323   2.581   1.984   0.947  0.0131 -0.4671 -1.0064
 9944TIP3    H251324   2.547   2.102   0.858 -0.0672  0.3022  0.0369
 9945TIP3   OH251325   6.451   6.090   3.829 -0.0600 -0.1095  0.0069
 9945TIP3    H151326   6.533   6.041   3.836 -0.2775 -0.7746 -1.8702
 9945TIP3    H251327   6.418   6.069   3.742 -3.1317 -1.2945  1.3625
 9946TIP3   OH251328   6.401   3.445   2.250 -0.2201 -0.2920  0.0194
 9946TIP3    H151329   6.442   3.358   2.245  2.6508  1.0327 -0.6401
 9946TIP3    H251330   6.430   3.480   2.334 -0.6066  0.4077 -0.1353
 9947TIP3   OH251331   5.609   5.728   5.141 -0.0650 -0.4603  0.0401
 9947TIP3    H151332   5.596   5.728   5.236 -0.8475 -2.0473 -0.0433
 9947TIP3    H251333   5.605   5.635   5.117 -2.2633  0.0705 -1.8519
 9948TIP3   OH251334   0.104   3.685   3.459  0.3198 -0.1629 -0.2317
 9948TIP3    H151335   0.010   3.666   3.466  0.1825  0.4587 -0.3016
 9948TIP3    H251336   0.125   3.664   3.368  0.3007 -0.5254 -0.1528
 9949TIP3   OH251337   3.184   0.798   2.407  0.4231 -0.9677  0.2177
 9949TIP3    H151338   3.167   0.841   2.323 -0.7492 -0.6419  0.6066
 9949TIP3    H251339   3.152   0.708   2.394 -1.4099 -0.4404  0.8497
 9950TIP3   OH251340   3.954   0.053  16.105  0.2510 -0.6014 -0.1848
 9950TIP3    H151341   3.890   0.017  16.167  0.8985  0.5404  1.1916
 9950TIP3    H251342   3.910   0.050  16.020 -2.4125  1.9322  1.0133
 9951TIP3   OH251343   4.453   4.022  14.600  0.0197 -0.0793 -0.3982
 9951TIP3    H151344   4.365   4.010  14.564 -0.2130 -1.5492  0.5838
 9951TIP3    H251345   4.472   4.115  14.590 -1.6717  0.2553 -0.5712
 9952TIP3   OH251346   3.665   3.007   1.984 -0.3883  0.1808  0.2784
 9952TIP3    H151347   3.632   3.091   2.017 -2.9664 -0.7625  0.2320
 9952TIP3    H251348   3.618   2.994   1.902  2.3983  0.1966 -1.3542
 9953TIP3   OH251349   4.078   5.047   5.233 -0.2146  0.2202 -0.3451
 9953TIP3    H151350   3.994   5.065   5.191 -0.9841 -0.2265  0.9840
 9953TIP3    H251351   4.061   5.057   5.326  0.9094 -1.0952  0.0116
 9954TIP3   OH251352   1.757   5.139  14.739 -0.4171  0.1958  0.0395
 9954TIP3    H151353   1.693   5.147  14.810 -0.6177 -1.2189  0.0185
 9954TIP3    H251354   1.766   5.045  14.725  1.4439  0.3948 -0.1635
 9955TIP3   OH251355   2.121   4.632  15.882  0.4229  0.1668 -0.0121
 9955TIP3    H151356   2.052   4.576  15.917 -1.0930  1.3496 -1.0600
 9955TIP3    H251357   2.159   4.675  15.959  1.4155 -2.0501  0.7718
 9956TIP3   OH251358   1.441   3.275   0.361  0.5186  0.2406 -0.5882
 9956TIP3    H151359   1.502   3.206   0.385 -0.4826 -0.3558  0.2662
 9956TIP3    H251360   1.357   3.248   0.398 -0.4778  0.6104 -2.4626
 9957TIP3   OH251361   1.680   2.121   6.095  0.0037 -0.0412 -0.3306
 9957TIP3    H151362   1.664   2.202   6.144 -1.2354 -0.5767  0.1627
 9957TIP3    H251363   1.643   2.052   6.150 -0.2240 -0.7966 -1.4162
 9958TIP3   OH251364   4.246   3.914   3.633  0.0413 -0.0233 -0.1296
 9958TIP3    H151365   4.163   3.923   3.681  1.0026  1.3168  1.3552
 9958TIP3    H251366   4.257   3.999   3.590  1.2690  0.2734  0.7504
 9959TIP3   OH251367   5.309   1.194   0.656  0.2553 -0.5026  0.1342
 9959TIP3    H151368   5.267   1.198   0.742  0.3950  2.4257  0.1484
 9959TIP3    H251369   5.248   1.145   0.601 -0.1106 -1.8910  1.7425
 9960TIP3   OH251370   4.121   3.757   2.354 -0.3400 -0.8228 -0.3183
 9960TIP3    H151371   4.074   3.674   2.343 -2.1415  0.0229  0.6556
 9960TIP3    H251372   4.087   3.813   2.284  1.4076 -1.1150 -1.4288
 9961TIP3   OH251373   2.778   1.652   1.783 -0.0309  0.0694  0.1269
 9961TIP3    H151374   2.695   1.699   1.775 -0.4476 -0.5247  1.0069
 9961TIP3    H251375   2.841   1.707   1.734 -1.1867 -0.1444 -1.6602
 9962TIP3   OH251376   3.512   5.758  12.246 -0.4822  0.0568 -0.1635
 9962TIP3    H151377   3.419   5.743  12.231 -0.9283 -0.0036  2.5305
 9962TIP3    H251378   3.535   5.827  12.184 -2.2700 -0.0541 -0.9751
 9963TIP3   OH251379   4.185   5.733  14.390  0.4618 -0.1285  0.4346
 9963TIP3    H151380   4.148   5.821  14.387  1.1992  0.1863  0.4597
 9963TIP3    H251381   4.127   5.681  14.334  0.4879  0.5512 -0.2438
 9964TIP3   OH251382   1.401   4.700   1.723 -0.1964 -1.0237  0.3018
 9964TIP3    H151383   1.371   4.789   1.743 -0.7359 -1.0578 -0.3300
 9964TIP3    H251384   1.367   4.683   1.635  2.8749 -0.5105 -1.0634
 9965TIP3   OH251385   6.613   2.149  14.907  0.1643 -0.2169  0.0970
 9965TIP3    H151386   6.581   2.184  14.824 -1.1690 -1.0670  0.2352
 9965TIP3    H251387   6.708   2.143  14.895  0.3246  2.4892 -0.2555
 9966TIP3   OH251388   1.913   0.185  14.794  0.1311 -0.1595  0.2139
 9966TIP3    H151389   1.885   0.163  14.705  1.3294  0.1467 -0.2635
 9966TIP3    H251390   1.959   0.107  14.825  2.8316  0.9467 -0.8156
 9967TIP3   OH251391   3.163   5.080  14.133 -0.0492  0.6634  0.0312
 9967TIP3    H151392   3.114   5.038  14.062 -1.7844  1.3272  0.8284
 9967TIP3    H251393   3.158   5.017  14.205  1.0476  0.3418 -0.1608
 9968TIP3   OH251394   5.189   0.847   0.560  1.0538  0.5047  0.2947
 9968TIP3    H151395   5.149   0.811   0.639 -0.2553  0.6846 -0.2728
 9968TIP3    H251396   5.135   0.923   0.538 -1.0746 -1.7741 -2.9670
 9969TIP3   OH251397   3.613   2.111   0.925 -0.1324 -0.3509  0.7709
 9969TIP3    H151398   3.557   2.189   0.925  2.4235  1.6638 -3.3594
 9969TIP3    H251399   3.695   2.141   0.965  0.2007 -1.4904  0.9616
 9970TIP3   OH251400   5.540   1.645  11.433 -0.0395  0.0255 -0.6780
 9970TIP3    H151401   5.505   1.557  11.442  0.5581  0.0525  2.8494
 9970TIP3    H251402   5.633   1.633  11.418  0.0310  0.0634 -0.2665
 9971TIP3   OH251403   0.087   0.373  14.706  0.0521 -0.1626 -0.7245
 9971TIP3    H151404   0.112   0.287  14.740 -0.0775  0.0956  0.0248
 9971TIP3    H251405   0.158   0.397  14.647  0.5782 -0.3387 -0.1644
 9972TIP3   OH251406   6.371   4.777  15.245 -0.1454  0.1388  0.2678
 9972TIP3    H151407   6.326   4.775  15.330  1.8216 -2.0200  1.3153
 9972TIP3    H251408   6.464   4.767  15.267  0.5317  0.9461 -2.0736
 9973TIP3   OH251409   1.732   5.844  17.164  0.5289  0.2412  0.2997
 9973TIP3    H151410   1.802   5.782  17.140  1.7850  1.6051  0.3451
 9973TIP3    H251411   1.702   5.879  17.080  0.6786  0.4807  0.3437
 9974TIP3   OH251412   2.854   3.916   4.399 -0.4593 -0.2554  0.6242
 9974TIP3    H151413   2.860   3.834   4.448 -0.5425  0.3010  1.5610
 9974TIP3    H251414   2.927   3.969   4.432 -0.9083  0.3680  0.6155
 9975TIP3   OH251415   1.024   5.729  13.322 -0.3429 -0.7973 -0.1437
 9975TIP3    H151416   0.998   5.660  13.261  1.8656 -0.6889 -1.2506
 9975TIP3    H251417   1.007   5.810  13.275  0.3950 -0.6878 -0.2278
 9976TIP3   OH251418   5.479   3.970  15.154 -0.8065 -0.4332 -0.2119
 9976TIP3    H151419   5.510   4.047  15.106 -0.1391  0.1943  1.1970
 9976TIP3    H251420   5.552   3.909  15.153 -0.5678 -0.1674  0.5238
 9977TIP3   OH251421   5.411   0.295   4.463 -0.1673 -0.4092  0.2888
 9977TIP3    H151422   5.474   0.367   4.456 -0.9035  0.1512 -0.8754
 9977TIP3    H251423   5.464   0.218   4.484  0.8809  0.0959 -0.4773
 9978TIP3   OH251424   2.569   3.152  16.122  0.2597 -0.3285 -0.2351
 9978TIP3    H151425   2.481   3.158  16.160  0.1444  0.6296 -0.6281
 9978TIP3    H251426   2.570   3.220  16.054  1.2881 -0.3648 -0.2607
 9979TIP3   OH251427   2.313   5.902   3.810 -0.2699  0.1601  0.0218
 9979TIP3    H151428   2.400   5.941   3.797 -0.4843  0.4449 -0.5778
 9979TIP3    H251429   2.322   5.849   3.890  0.2497  0.7863  0.3843
 9980TIP3   OH251430   2.371   5.351   0.994 -0.2377  0.0051  0.6308
 9980TIP3    H151431   2.378   5.342   0.899 -0.4957 -2.1956  0.7889
 9980TIP3    H251432   2.295   5.298   1.017 -0.2937  0.6932  2.0429
 9981TIP3   OH251433   0.270   6.774  17.156 -0.2857  0.2582 -0.4262
 9981TIP3    H151434   0.290   6.845  17.094  1.4912  0.7222  0.6325
 9981TIP3    H251435   0.191   6.804  17.202  0.9848  2.0499  0.6839
 9982TIP3   OH251436   1.230   2.673   5.025  0.1561  0.0190  0.2356
 9982TIP3    H151437   1.141   2.698   5.049 -0.5085 -2.4180  0.3724
 9982TIP3    H251438   1.263   2.749   4.976 -2.3162  0.5492 -0.6796
 9983TIP3   OH251439   1.967   0.902   3.164  0.0219  0.0491  0.6212
 9983TIP3    H151440   1.875   0.927   3.158 -0.1240 -0.0410  2.2859
 9983TIP3    H251441   1.965   0.814   3.201  0.8068  0.3445  1.3819
 9984TIP3   OH251442   4.994   6.654  16.142  0.4267  0.2116  0.0884
 9984TIP3    H151443   5.026   6.582  16.088 -0.5182 -0.6854  0.7003
 9984TIP3    H251444   4.905   6.669  16.111  0.5381  0.9513  0.1342
 9985TIP3   OH251445   5.305   5.752  13.454 -0.4851 -0.0007  0.0386
 9985TIP3    H151446   5.388   5.795  13.473  0.3176 -1.3252 -0.4265
 9985TIP3    H251447   5.252   5.819  13.410  0.7778  0.4851 -0.7509
 9986TIP3   OH251448   5.361   3.051   5.375  0.1400 -0.3167  0.3219
 9986TIP3    H151449   5.276   3.052   5.330 -0.1000 -0.9788  0.7697
 9986TIP3    H251450   5.364   2.968   5.421  1.6321 -0.9138 -0.8108
 9987TIP3   OH251451   2.512   2.810  16.951  0.4378  0.8404  0.0535
 9987TIP3    H151452   2.550   2.799  17.038  2.7355  0.1943 -1.0170
 9987TIP3    H251453   2.450   2.737  16.943  3.1889 -1.4934 -0.4104
 9988TIP3   OH251454   6.549   3.814  16.344 -0.5338 -0.0042 -0.1702
 9988TIP3    H151455   6.512   3.734  16.305 -0.6058 -0.0848  0.0623
 9988TIP3    H251456   6.504   3.823  16.428  0.1935 -0.2748  0.2545
 9989TIP3   OH251457   2.625   2.714  11.122 -1.2453  0.6581 -0.4252
 9989TIP3    H151458   2.696   2.686  11.063 -1.2832  1.9942 -1.1210
 9989TIP3    H251459   2.645   2.672  11.205 -1.3157 -1.4575 -1.4495
 9990TIP3   OH251460   3.627   1.995   5.762  0.6152 -0.3374 -0.0294
 9990TIP3    H151461   3.561   1.942   5.718  0.3009  0.8040 -0.9700
 9990TIP3    H251462   3.627   1.964   5.852  0.2707 -1.7566 -0.5010
 9991TIP3   OH251463   1.638   5.787  13.388 -0.1663  0.2712  0.2545
 9991TIP3    H151464   1.590   5.860  13.349  0.6332  0.2485 -0.8082
 9991TIP3    H251465   1.726   5.794  13.351  0.0563 -0.9338  0.5347
 9992TIP3   OH251466   4.853   4.815   1.678 -0.7262  0.0828 -0.2397
 9992TIP3    H151467   4.774   4.788   1.631 -0.2173 -2.7957  0.4333
 9992TIP3    H251468   4.913   4.741   1.668  0.2337  0.3478  3.0058
 9993TIP3   OH251469   4.108   4.366   1.192  0.0345 -0.2643 -0.4937
 9993TIP3    H151470   4.063   4.308   1.131 -0.2359  0.2429 -0.7845
 9993TIP3    H251471   4.090   4.329   1.278 -0.0702 -0.6581 -0.6842
 9994TIP3   OH251472   3.712   1.766   5.361  0.1178 -0.3121 -0.0780
 9994TIP3    H151473   3.728   1.793   5.271 -0.2463 -1.7158 -0.5864
 9994TIP3    H251474   3.627   1.721   5.357 -0.5435  0.8104  1.2182
 9995TIP3   OH251475   2.772   0.295   3.289 -0.1732  0.3533 -0.3056
 9995TIP3    H151476   2.803   0.382   3.315 -0.9440  0.6390 -0.3111
 9995TIP3    H251477   2.699   0.277   3.349 -1.4556  0.6785 -1.7459
 9996TIP3   OH251478   2.982   2.481  16.068 -0.6148  0.1165  0.0452
 9996TIP3    H151479   2.953   2.394  16.093  0.1951  0.2896  1.6415
 9996TIP3    H251480   2.960   2.536  16.143  1.4779  0.7350  0.2269
 9997TIP3   OH251481   0.308   2.386   6.045  0.1427  0.0952  0.2550
 9997TIP3    H151482   0.390   2.355   6.007 -0.4733 -1.9024  0.5161
 9997TIP3    H251483   0.335   2.445   6.115  1.3512 -0.4523  0.2575
 9998TIP3   OH251484   4.793   1.898  14.560 -0.1420  0.3796 -0.6965
 9998TIP3    H151485   4.738   1.838  14.611 -0.6178  2.4937  1.3767
 9998TIP3    H251486   4.873   1.849  14.543 -0.8712 -1.1556  0.2013
 9999TIP3   OH251487   1.216   5.621   3.517  0.6323  0.0651  0.3884
 9999TIP3    H151488   1.252   5.670   3.443 -0.2822  0.9684  0.5314
 9999TIP3    H251489   1.219   5.683   3.590  1.4599 -0.7952  1.0944
10000TIP3   OH251490   2.567   3.267   4.584  0.4813  0.0660 -0.4102
10000TIP3    H151491   2.541   3.305   4.667 -0.4450  1.7326 -1.4316
10000TIP3    H251492   2.645   3.316   4.558  0.0319  0.4334 -1.1109
10001TIP3   OH251493   0.610   1.966  13.806 -0.0776 -0.4041  0.4851
10001TIP3    H151494   0.647   1.991  13.721  1.6584 -0.9970  1.0376
10001TIP3    H251495   0.651   1.882  13.825  0.1528  0.0962  2.2622
10002TIP3   OH251496   6.251   6.080   1.697 -0.1710  0.2227  0.0665
10002TIP3    H151497   6.206   6.165   1.694 -1.2221 -0.3600 -1.7653
10002TIP3    H251498   6.341   6.100   1.670 -0.2416  0.8467  0.2815
10003TIP3   OH251499   4.810   5.150   6.068 -0.0265 -0.1550  0.1300
10003TIP3    H151500   4.885   5.149   6.128  1.4502 -0.3571 -1.6708
10003TIP3    H251501   4.739   5.187   6.120  1.2772 -0.0593  1.9251
10004TIP3   OH251502   4.498   2.533   5.049 -0.9275  0.4193 -0.9021
10004TIP3    H151503   4.464   2.533   5.138  0.0469  2.6562 -0.4974
10004TIP3    H251504   4.422   2.553   4.994 -1.1707  0.8543 -0.4088
10005TIP3   OH251505   4.628   3.068   5.371  0.0991  0.3427 -0.4153
10005TIP3    H151506   4.552   3.026   5.412  0.7167  0.0261  0.4024
10005TIP3    H251507   4.601   3.159   5.360 -0.2280  0.3406  0.3185
10006TIP3   OH251508   1.469   4.057   4.150  0.6230  0.4844  0.4911
10006TIP3    H151509   1.402   4.055   4.218 -0.7084  1.1337 -0.7770
10006TIP3    H251510   1.470   3.969   4.114  0.3611  0.5073  0.4295
10007TIP3   OH251511   5.343   4.460  14.107 -0.2347 -0.1040  0.3365
10007TIP3    H151512   5.349   4.454  14.202  0.3562 -0.1172  0.3008
10007TIP3    H251513   5.258   4.502  14.091  0.2728  1.1518  0.9108
10008TIP3   OH251514   4.750   1.202   5.589  0.2145 -0.3909  0.2119
10008TIP3    H151515   4.824   1.242   5.545 -0.2800  0.3560  0.0653
10008TIP3    H251516   4.771   1.108   5.591  1.2252 -0.1640  0.3081
10009TIP3   OH251517   1.873   4.223   5.341  0.5360 -0.0210 -0.1167
10009TIP3    H151518   1.950   4.193   5.388  0.6359  0.8293  0.2812
10009TIP3    H251519   1.799   4.180   5.386  0.8218 -1.4448 -0.9906
10010TIP3   OH251520   5.367   5.758   2.516  0.0193 -0.1520 -0.2531
10010TIP3    H151521   5.353   5.750   2.610  0.5157  2.4177  0.0866
10010TIP3    H251522   5.280   5.770   2.479 -0.0708 -0.0421 -0.0040
10011TIP3   OH251523   0.468   5.366   5.601  0.0742  0.0676 -0.2783
10011TIP3    H151524   0.428   5.453   5.608  0.7708  0.3838 -0.1495
10011TIP3    H251525   0.548   5.372   5.653  0.3674 -0.5127 -0.6570
10012TIP3   OH251526   1.404   2.688   2.476 -0.0971 -0.0005  0.0392
10012TIP3    H151527   1.432   2.677   2.385  0.3851  2.0870 -0.0880
10012TIP3    H251528   1.459   2.628   2.526  1.2035  0.5028 -0.7771
10013TIP3   OH251529   3.232   0.343  13.086  0.5703  0.6980 -0.2731
10013TIP3    H151530   3.306   0.311  13.035 -1.2387 -1.2313 -1.7813
10013TIP3    H251531   3.185   0.401  13.027  0.6526  1.5992  0.5344
10014TIP3   OH251532   1.589   2.171   0.516 -0.2649  0.0948  0.4746
10014TIP3    H151533   1.522   2.160   0.584 -1.4918  0.6491 -0.6287
10014TIP3    H251534   1.670   2.182   0.565 -1.0076 -0.3383  1.8473
10015TIP3   OH251535   4.341   3.213   0.127 -0.4775 -0.4718 -0.3539
10015TIP3    H151536   4.315   3.204   0.218 -0.4408  1.9179 -0.0789
10015TIP3    H251537   4.265   3.252   0.083  0.0967 -0.0806 -1.0133
10016TIP3   OH251538   0.739   4.235  14.450  0.0697 -0.6673  0.1626
10016TIP3    H151539   0.775   4.250  14.537 -1.6681  0.8330  0.6584
10016TIP3    H251540   0.649   4.205  14.466 -1.0894  1.9516 -1.0895
10017TIP3   OH251541   3.415   2.718  12.013 -0.0712 -0.1586 -0.1290
10017TIP3    H151542   3.419   2.643  11.952  0.1234 -0.4608  0.2545
10017TIP3    H251543   3.505   2.730  12.041 -0.3891 -1.0176  1.3111
10018TIP3   OH251544   1.218   4.142  15.457  0.0615 -0.1900  0.5633
10018TIP3    H151545   1.194   4.063  15.409 -0.4314 -0.1584  0.7590
10018TIP3    H251546   1.314   4.138  15.463  0.1666  0.0128 -0.7760
10019TIP3   OH251547   5.679   6.288  12.960  0.9204 -0.1688 -0.4183
10019TIP3    H151548   5.747   6.221  12.959 -0.5451 -1.7396  1.2427
10019TIP3    H251549   5.696   6.339  13.039 -0.4141 -1.2102  0.5580
10020TIP3   OH251550   1.765   2.304  13.105  0.1968  0.5140 -0.4716
10020TIP3    H151551   1.841   2.362  13.110  0.2316  0.5870 -1.6907
10020TIP3    H251552   1.721   2.315  13.189 -0.5447  3.3809 -1.1640
10021TIP3   OH251553   2.891   2.268   5.613 -0.0613 -0.0517 -0.4911
10021TIP3    H151554   2.836   2.328   5.663 -1.1836 -1.2021 -0.3157
10021TIP3    H251555   2.980   2.299   5.627 -0.3732 -0.2486  2.0894
10022TIP3   OH251556   6.208   6.207  14.830 -0.3412  0.2158  0.0705
10022TIP3    H151557   6.118   6.239  14.826 -0.0846  0.9551  0.0470
10022TIP3    H251558   6.237   6.204  14.739 -0.0778  0.7550  0.1358
10023TIP3   OH251559   3.647   1.511  15.460 -0.2476 -0.3419 -0.1589
10023TIP3    H151560   3.714   1.469  15.513  0.0696 -1.0478 -1.1026
10023TIP3    H251561   3.672   1.604  15.457 -0.4472 -0.2303  1.1663
10024TIP3   OH251562   1.234   5.827  15.368  0.4617 -0.1527  0.1858
10024TIP3    H151563   1.316   5.864  15.336  0.0331  0.1155 -0.6286
10024TIP3    H251564   1.255   5.736  15.389  0.8510 -0.2310 -0.5076
10025TIP3   OH251565   4.723   1.842   0.162  0.5553 -0.0158 -0.3310
10025TIP3    H151566   4.729   1.798   0.078  1.9132 -0.9415  0.2300
10025TIP3    H251567   4.734   1.773   0.227  1.4024  0.9400  0.5775
10026TIP3   OH251568   0.338   5.350  13.583  0.1430 -0.2111 -0.6570
10026TIP3    H151569   0.430   5.349  13.558  0.3529 -1.1754  0.1226
10026TIP3    H251570   0.294   5.301  13.513  0.3434 -0.5128 -0.5721
10027TIP3   OH251571   4.951   3.085   3.374 -0.4732  0.3990  0.2365
10027TIP3    H151572   4.998   3.142   3.313  1.8926 -1.9082 -0.2300
10027TIP3    H251573   5.003   3.088   3.455 -1.7075  0.8227  1.0288
10028TIP3   OH251574   6.029   5.241  17.244 -0.3669 -0.2003  0.8627
10028TIP3    H151575   6.038   5.243  17.149  0.5862 -2.2807  0.8707
10028TIP3    H251576   5.990   5.325  17.267 -0.5989  0.3194 -1.3652
10029TIP3   OH251577   0.304   0.121  15.483  0.3257  0.3406 -0.1565
10029TIP3    H151578   0.347   0.045  15.522  0.1618  0.3935  0.1361
10029TIP3    H251579   0.317   0.191  15.548  0.3383  0.5191 -0.3520
10030TIP3   OH251580   5.599   5.931   1.846  0.0955 -0.0709 -0.1201
10030TIP3    H151581   5.577   5.872   1.774  0.5024  1.5711 -1.6233
10030TIP3    H251582   5.695   5.930   1.848  0.1370  1.3915 -0.8977
10031TIP3   OH251583   5.835   2.702  14.795 -0.2575  0.2958  0.3091
10031TIP3    H151584   5.760   2.707  14.736  0.4889  1.8516 -0.5502
10031TIP3    H251585   5.894   2.771  14.764  0.7854  0.1885  2.0014
10032TIP3   OH251586   5.474   2.232   1.407  0.1954  0.3569 -0.1888
10032TIP3    H151587   5.455   2.206   1.497  0.9322  0.6463  0.0556
10032TIP3    H251588   5.570   2.229   1.401  0.1221 -0.2198 -1.1345
10033TIP3   OH251589   4.337   5.377  16.748  0.1759  0.0865  0.3303
10033TIP3    H151590   4.407   5.389  16.812 -1.0440 -1.9678  2.1325
10033TIP3    H251591   4.363   5.299  16.698 -0.2839 -0.0211  0.2583
10034TIP3   OH251592   4.871   4.357   1.783  0.3382  0.2824  0.6189
10034TIP3    H151593   4.903   4.436   1.828  0.5064 -0.8418  2.5215
10034TIP3    H251594   4.821   4.310   1.850 -2.5898  0.3606 -1.3797
10035TIP3   OH251595   5.333   5.666  12.742  0.0771 -0.4509 -0.0593
10035TIP3    H151596   5.357   5.602  12.675 -0.4877 -0.2882 -0.4143
10035TIP3    H251597   5.345   5.620  12.825  0.4415 -0.7628 -0.2852
10036TIP3   OH251598   2.062   1.272   2.299  0.5479  0.1242 -0.2107
10036TIP3    H151599   2.107   1.297   2.219 -0.9167  0.7171 -0.8703
10036TIP3    H251600   2.026   1.354   2.333 -0.8200 -0.4514 -0.2144
10037TIP3   OH251601   2.653   6.265  14.726 -0.0020 -0.1928  0.2774
10037TIP3    H151602   2.584   6.276  14.661  0.9722  1.2608 -0.5481
10037TIP3    H251603   2.627   6.189  14.777 -2.1950  0.3162 -0.0518
10038TIP3   OH251604   3.873   3.651  16.508 -0.0993 -0.3534  0.5840
10038TIP3    H151605   3.940   3.655  16.440  0.3691  1.1637  1.1306
10038TIP3    H251606   3.811   3.586  16.476  2.0955 -2.5071  0.4979
10039TIP3   OH251607   4.087   3.785  12.823  0.8094 -0.0130  0.3114
10039TIP3    H151608   4.109   3.878  12.810 -0.5054  0.1835 -0.6234
10039TIP3    H251609   4.007   3.772  12.773  1.3048 -1.8195 -0.0485
10040TIP3   OH251610   3.541   6.596   1.178 -0.1111 -0.3470 -0.2469
10040TIP3    H151611   3.532   6.517   1.125  2.3452 -1.7922  1.3861
10040TIP3    H251612   3.588   6.657   1.121  0.4535 -1.0675 -0.5650
10041TIP3   OH251613   2.775   5.295   1.988 -0.1277 -0.6206  0.2091
10041TIP3    H151614   2.786   5.308   1.894  1.3678 -1.4628  0.2453
10041TIP3    H251615   2.753   5.203   1.998  2.6058 -1.2576  0.8525
10042TIP3   OH251616   1.529   0.372  15.059 -0.0808  0.6358  0.0199
10042TIP3    H151617   1.459   0.375  14.994 -1.6661 -1.0860  1.5908
10042TIP3    H251618   1.520   0.453  15.108  1.1295  1.9485 -1.8616
10043TIP3   OH251619   5.562   0.414  12.423 -0.6605 -0.1295 -0.1050
10043TIP3    H151620   5.606   0.346  12.372 -0.9350 -0.3161 -0.0926
10043TIP3    H251621   5.506   0.367  12.484  1.3495  0.0266  1.9325
10044TIP3   OH251622   5.585   1.613  15.627  0.1257  0.0004  0.9975
10044TIP3    H151623   5.500   1.625  15.669  0.3564  0.7808  1.2490
10044TIP3    H251624   5.647   1.608  15.699  0.0533 -2.7054  0.9030
10045TIP3   OH251625   0.358   6.633   4.224 -0.2473  0.0088 -0.5567
10045TIP3    H151626   0.334   6.571   4.155 -0.7851 -1.8641  1.2549
10045TIP3    H251627   0.429   6.590   4.271 -0.0526  1.1521  0.2204
10046TIP3   OH251628   0.393   2.395  14.707  0.0198 -0.7811  0.3210
10046TIP3    H151629   0.386   2.364  14.797 -0.9102 -0.3883  0.3830
10046TIP3    H251630   0.479   2.364  14.678  0.1829 -1.1922  1.2308
10047TIP3   OH251631   5.039   2.714   3.067  0.7669  0.4757 -0.2445
10047TIP3    H151632   5.083   2.795   3.040 -1.1422  1.6042 -0.0817
10047TIP3    H251633   5.009   2.732   3.156 -0.9525  0.1603 -0.7307
10048TIP3   OH251634   3.960   2.135   0.073  0.1787 -0.0619  0.1665
10048TIP3    H151635   4.020   2.190   0.123 -0.1565  0.1242  0.3662
10048TIP3    H251636   3.874   2.173   0.089  0.1939  0.6785 -1.4474
10049TIP3   OH251637   6.386   6.535  12.335  0.5477  0.0627 -0.3353
10049TIP3    H151638   6.358   6.523  12.244  1.7084 -2.5232 -0.3983
10049TIP3    H251639   6.461   6.594  12.329  0.9655 -0.5339 -1.1249
10050TIP3   OH251640   3.903   2.112   1.802  0.1873  0.6588 -0.3014
10050TIP3    H151641   3.901   2.064   1.885  1.4842 -0.9135 -1.1596
10050TIP3    H251642   3.985   2.161   1.804  0.4340  0.2670 -0.8503
10051TIP3   OH251643   2.988   3.006  13.186  0.2584  0.3557  0.1058
10051TIP3    H151644   2.940   2.931  13.221 -0.0032 -0.0192 -1.0491
10051TIP3    H251645   2.932   3.040  13.116  0.5485  1.4013  0.3868
10052TIP3   OH251646   0.920   3.661  13.466 -0.2467 -0.1778  0.4470
10052TIP3    H151647   0.882   3.711  13.538 -1.8966  0.1305 -0.6036
10052TIP3    H251648   0.947   3.727  13.402  0.1737 -0.4962  0.2944
10053TIP3   OH251649   6.145   4.397  13.242  0.3467 -0.0636  0.5074
10053TIP3    H151650   6.132   4.448  13.322 -3.5436 -0.2352  0.0717
10053TIP3    H251651   6.158   4.307  13.273  0.1663  0.0746  0.9900
10054TIP3   OH251652   4.839   5.385   2.099 -0.0172 -0.4810  0.6182
10054TIP3    H151653   4.873   5.455   2.043  0.8185  0.9715  2.8637
10054TIP3    H251654   4.816   5.315   2.038  3.5835 -0.1195 -1.3144
10055TIP3   OH251655   3.534   0.934  16.275  0.3971  0.2741  0.1940
10055TIP3    H151656   3.463   0.897  16.327 -0.6068 -1.4537 -2.3357
10055TIP3    H251657   3.499   1.017  16.243 -0.3175 -0.3109 -0.5829
10056TIP3   OH251658   3.335   5.058   0.362  0.2042 -0.0846  0.4420
10056TIP3    H151659   3.359   5.109   0.439 -0.4871  1.1903 -0.1742
10056TIP3    H251660   3.312   4.972   0.396 -2.1832  1.0870  1.9101
10057TIP3   OH251661   1.928   1.204  17.228 -0.4383 -0.2653  0.0362
10057TIP3    H151662   2.001   1.146  17.208 -0.9786 -0.9061 -0.1054
10057TIP3    H251663   1.951   1.244  17.312  1.0445  1.1390 -1.0172
10058TIP3   OH251664   3.256   5.971  15.733 -0.2647 -0.0725  0.4666
10058TIP3    H151665   3.280   5.967  15.825  0.1740  0.1448  0.3628
10058TIP3    H251666   3.160   5.975  15.733 -0.2009  1.5418  0.9609
10059TIP3   OH251667   4.028   4.263  11.782  0.0504  0.0189  0.2162
10059TIP3    H151668   4.020   4.181  11.734  1.0253  0.1315 -0.1534
10059TIP3    H251669   3.938   4.289  11.800 -0.2575 -1.2946  0.6205
10060TIP3   OH251670   3.488   3.932   4.282  0.1024  0.2154 -1.5506
10060TIP3    H151671   3.470   3.851   4.235 -1.0390 -0.5940  0.2233
10060TIP3    H251672   3.521   3.903   4.367  0.2516  1.6179 -1.1227
10061TIP3   OH251673   2.203   4.780  15.333 -0.0679 -0.7966 -0.2234
10061TIP3    H151674   2.283   4.821  15.367 -1.6244  1.2301  1.0855
10061TIP3    H251675   2.205   4.799  15.239  1.3971 -1.4935 -0.3521
10062TIP3   OH251676   6.747   1.724  15.591 -0.2256  0.4878  0.4408
10062TIP3    H151677   6.787   1.704  15.506  0.3068  1.0555  0.5534
10062TIP3    H251678   6.786   1.808  15.617 -1.9292  1.3407  0.2905
10063TIP3   OH251679   1.950   6.108   2.394  0.0972  0.4265 -0.2959
10063TIP3    H151680   1.935   6.054   2.471 -2.6397 -1.3353 -1.9995
10063TIP3    H251681   1.993   6.187   2.429 -0.7293 -0.4690  2.9436
10064TIP3   OH251682   4.624   1.511  12.427 -0.8352  0.4538  0.8206
10064TIP3    H151683   4.597   1.544  12.512 -0.6751  2.2381  0.1923
10064TIP3    H251684   4.550   1.459  12.396 -1.7539  1.6184  1.0748
10065TIP3   OH251685   3.018   5.183  10.754 -0.9365 -0.1353  0.2751
10065TIP3    H151686   3.011   5.111  10.691 -2.2046  0.7194 -0.5699
10065TIP3    H251687   2.971   5.152  10.831  0.5669 -1.1577  0.8167
10066TIP3   OH251688   5.642   0.049  16.268  0.2058 -0.7484  0.5683
10066TIP3    H151689   5.700   0.099  16.211  0.6702  0.7317  2.3046
10066TIP3    H251690   5.699  -0.014  16.311 -0.4828 -3.3512 -2.1321
10067TIP3   OH251691   6.450   0.709  17.209 -0.3315  0.1547 -0.2539
10067TIP3    H151692   6.464   0.657  17.130  0.8643 -1.5238  0.9940
10067TIP3    H251693   6.359   0.738  17.204 -0.2663  0.0865 -2.2320
10068TIP3   OH251694   1.624   3.161   0.996  0.0050  0.5544  0.5206
10068TIP3    H151695   1.650   3.237   0.945 -2.1044  0.9627 -0.0131
10068TIP3    H251696   1.552   3.193   1.051 -0.6468 -0.9381  0.5662
10069TIP3   OH251697   0.094   3.837   0.250 -0.4644 -0.1202  0.2933
10069TIP3    H151698   0.164   3.846   0.315 -0.4188  1.3257  0.0757
10069TIP3    H251699   0.013   3.831   0.301 -0.3789  0.4565  0.4986
10070TIP3   OH251700   3.774   4.932   3.654  0.2124  0.8645 -0.7259
10070TIP3    H151701   3.806   4.946   3.565 -0.5030  0.8569 -0.9935
10070TIP3    H251702   3.852   4.930   3.708  0.9007 -2.0297 -1.7265
10071TIP3   OH251703   3.248   4.291  10.640 -0.2187  0.0334 -0.0801
10071TIP3    H151704   3.257   4.196  10.639  1.1981  0.1488 -0.7071
10071TIP3    H251705   3.210   4.311  10.726  0.2681 -1.0399  0.3964
10072TIP3   OH251706   1.665   3.957  12.926 -0.4006 -0.1952  0.5127
10072TIP3    H151707   1.723   3.891  12.963  0.1793 -0.0662 -0.1662
10072TIP3    H251708   1.598   3.907  12.880  1.8205 -0.2811 -2.7217
10073TIP3   OH251709   3.001   6.101  14.007  0.4358 -0.4512  0.1619
10073TIP3    H151710   3.037   6.160  14.074 -0.1393 -0.1695  0.2272
10073TIP3    H251711   2.986   6.158  13.931  0.4146 -0.6289  0.0344
10074TIP3   OH251712   6.093   5.973  16.872  0.2669 -0.1316 -0.1376
10074TIP3    H151713   6.182   5.938  16.862  0.5593  1.1663 -2.2817
10074TIP3    H251714   6.105   6.058  16.915  0.0803  0.1279 -0.5970
10075TIP3   OH251715   2.157   0.740  15.941  0.6276  0.1715  0.1081
10075TIP3    H151716   2.084   0.733  16.002 -0.2960 -0.7570 -1.0931
10075TIP3    H251717   2.228   0.691  15.983 -0.5225 -1.9242 -0.3274
10076TIP3   OH251718   3.128   6.737   2.944 -0.0577  0.2130  0.2377
10076TIP3    H151719   3.110   6.652   2.985  1.1370 -0.2693 -0.2322
10076TIP3    H251720   3.056   6.793   2.973 -1.3569 -1.2100 -0.2071
10077TIP3   OH251721   4.200   1.665  12.689 -0.0923  0.0269  0.2015
10077TIP3    H151722   4.120   1.650  12.638 -0.6790  0.2584  1.0526
10077TIP3    H251723   4.209   1.761  12.692 -0.6252  0.0424  1.4057
10078TIP3   OH251724   6.123   6.698   5.978 -0.3587  0.1945 -0.0478
10078TIP3    H151725   6.160   6.652   6.054 -0.9619 -3.0339 -1.5875
10078TIP3    H251726   6.188   6.686   5.909 -1.4285 -0.0581 -1.0276
10079TIP3   OH251727   6.281   5.603  14.603 -0.5259  0.0565  0.2769
10079TIP3    H151728   6.261   5.692  14.573  1.4560  0.4058 -0.0680
10079TIP3    H251729   6.200   5.554  14.588 -1.0969  1.3833 -1.1125
10080TIP3   OH251730   6.442   4.615  15.819 -0.0015  0.4077  0.2723
10080TIP3    H151731   6.453   4.687  15.882  1.9697 -0.0174  0.4456
10080TIP3    H251732   6.530   4.601  15.784 -0.3584 -1.9474  0.2709
10081TIP3   OH251733   4.788   6.130  13.725  0.5967  0.4528  0.8274
10081TIP3    H151734   4.799   6.076  13.803  0.6819  1.2622  1.3797
10081TIP3    H251735   4.809   6.219  13.754 -0.4424  0.9263  0.1551
10082TIP3   OH251736   2.536   2.844   4.738 -0.4172  0.1382  0.0673
10082TIP3    H151737   2.615   2.802   4.770 -0.3285 -0.5723 -1.0389
10082TIP3    H251738   2.477   2.847   4.813 -0.3893 -1.9032  0.1963
10083TIP3   OH251739   1.977   6.411   1.176  0.4373  0.4009 -0.3060
10083TIP3    H151740   2.002   6.381   1.089  0.8401 -0.0502 -0.0384
10083TIP3    H251741   1.964   6.331   1.226  0.5623  0.6622  0.1444
10084TIP3   OH251742   5.910   1.421  15.445 -0.4654  0.2953 -0.2180
10084TIP3    H151743   5.856   1.343  15.451  0.7724 -0.5180  0.4559
10084TIP3    H251744   5.987   1.402  15.498 -0.0831  1.9166 -0.1565
10085TIP3   OH251745   6.469   2.089   0.540 -0.0602  0.3124 -0.1582
10085TIP3    H151746   6.468   1.997   0.512 -1.8389 -0.0800  1.1621
10085TIP3    H251747   6.377   2.112   0.552  0.4383  1.9502  0.6001
10086TIP3   OH251748   5.907   3.908  16.547 -0.1057 -0.0840 -0.6021
10086TIP3    H151749   5.822   3.877  16.515 -0.2278 -1.0692  0.6093
10086TIP3    H251750   5.889   3.936  16.637  0.9933 -1.0071 -0.0847
10087TIP3   OH251751   2.590   2.532   3.112 -0.1635 -0.5863 -0.7359
10087TIP3    H151752   2.562   2.530   3.203 -1.0629 -0.7512 -1.0060
10087TIP3    H251753   2.664   2.593   3.110  0.6518 -1.5460  0.3072
10088TIP3   OH251754   1.262   3.155   4.972  0.8425  0.2792 -0.0320
10088TIP3    H151755   1.275   3.061   4.981 -0.2931  0.1304  0.1419
10088TIP3    H251756   1.340   3.194   5.012  2.1365 -0.6091 -1.6380
10089TIP3   OH251757   3.768   2.262  13.943 -0.1359  0.0599  0.2914
10089TIP3    H151758   3.833   2.193  13.929  0.2944  0.6836 -0.8769
10089TIP3    H251759   3.814   2.328  13.995 -0.3502 -0.2501  0.8736
10090TIP3   OH251760   6.337   4.111  11.623  0.0138  0.0889 -0.6420
10090TIP3    H151761   6.307   4.075  11.539  1.2322 -0.0719 -1.0112
10090TIP3    H251762   6.329   4.038  11.684 -2.1629  0.5752 -0.2905
10091TIP3   OH251763   2.001   5.641   4.423 -0.2570  0.4582 -0.8448
10091TIP3    H151764   1.909   5.647   4.396 -0.4844  2.4729  0.2995
10091TIP3    H251765   2.002   5.673   4.513  1.5664  0.3939 -0.8230
10092TIP3   OH251766   2.726   2.157   4.629 -0.0920  0.5150  0.3731
10092TIP3    H151767   2.736   2.251   4.617 -1.1165  0.6135  0.2397
10092TIP3    H251768   2.800   2.132   4.684  1.3475  1.0419 -1.2934
10093TIP3   OH251769   2.436   3.706   4.835 -0.1488 -0.2139 -0.5200
10093TIP3    H151770   2.433   3.692   4.930 -1.2978 -0.8503 -0.6349
10093TIP3    H251771   2.438   3.618   4.798  0.1658  0.0345 -1.0938
10094TIP3   OH251772   2.027   2.211  13.947 -0.5453 -0.2996 -0.0063
10094TIP3    H151773   1.964   2.200  13.876  0.9395  2.4254 -1.8501
10094TIP3    H251774   1.989   2.280  14.002 -0.4074 -0.4820  0.3174
10095TIP3   OH251775   5.323   5.858  15.957 -0.6691  0.3883 -0.2871
10095TIP3    H151776   5.319   5.791  16.025 -0.4341 -0.0083 -0.6670
10095TIP3    H251777   5.385   5.923  15.992  0.7178 -0.6081 -0.8252
10096TIP3   OH251778   0.480   2.320   0.591 -0.0450 -0.2617  0.0057
10096TIP3    H151779   0.488   2.301   0.497 -1.4090 -2.7446  0.3366
10096TIP3    H251780   0.498   2.413   0.598  0.0932 -0.0247 -2.7332
10097TIP3   OH251781   3.036   2.350   3.464  0.4274  0.3136  0.7718
10097TIP3    H151782   3.118   2.364   3.417  0.2964  1.8812  0.9740
10097TIP3    H251783   3.039   2.414   3.536 -1.1518  0.6958  0.5177
10098TIP3   OH251784   4.680   1.506  11.936 -0.1811 -0.3263  0.3043
10098TIP3    H151785   4.682   1.490  12.030  1.9001  0.7036  0.4523
10098TIP3    H251786   4.701   1.421  11.897 -2.1171 -1.0178  0.7112
10099TIP3   OH251787   0.527   0.078  12.771  0.2171  0.2963 -0.0659
10099TIP3    H151788   0.593   0.077  12.703  0.8377  1.5301  0.5013
10099TIP3    H251789   0.546   0.000  12.824  1.7173  1.0652  0.5530
10100TIP3   OH251790   0.951   3.849  14.672 -0.3725  0.3519  0.3244
10100TIP3    H151791   0.922   3.814  14.587  1.3207  0.1397 -0.1887
10100TIP3    H251792   0.998   3.776  14.713 -0.5220  0.6915  1.1084
10101TIP3   OH251793   5.969   6.571  12.922  0.2397  0.2583 -0.2836
10101TIP3    H151794   5.978   6.551  12.828  1.0273  0.2262 -0.2010
10101TIP3    H251795   6.053   6.545  12.960 -0.7299 -1.4895  0.7409
10102TIP3   OH251796   0.173   6.407  11.392  0.2195 -0.2335 -0.5448
10102TIP3    H151797   0.120   6.425  11.314 -0.6098 -0.3340 -0.0163
10102TIP3    H251798   0.236   6.479  11.395  0.7180 -0.6037 -1.6905
10103TIP3   OH251799   2.272   6.034  14.822 -0.5353 -0.7336 -0.6237
10103TIP3    H151800   2.312   6.105  14.771  1.2702 -2.4357 -1.6183
10103TIP3    H251801   2.203   6.078  14.873  2.9249  2.4405  1.6626
10104TIP3   OH251802   6.059   0.654   0.311  0.5659  0.0624  0.4809
10104TIP3    H151803   6.138   0.708   0.317 -0.6319  1.8487  0.5215
10104TIP3    H251804   6.060   0.619   0.222  0.2224  1.9274 -0.2610
10105TIP3   OH251805   0.895   3.219   3.592 -0.5495 -0.0495 -0.2903
10105TIP3    H151806   0.929   3.174   3.514  0.9469 -1.0178  0.9002
10105TIP3    H251807   0.968   3.272   3.622 -0.7725 -0.5152  1.0807
10106TIP3   OH251808   3.252   0.301   3.443 -0.0509 -0.8756  0.0112
10106TIP3    H151809   3.270   0.232   3.508  0.5010  1.1563  2.0574
10106TIP3    H251810   3.331   0.355   3.444 -2.4106  2.6663  2.1083
10107TIP3   OH251811   3.386   0.962  15.636  0.2690  0.5530  0.4326
10107TIP3    H151812   3.474   0.951  15.601  0.5579  1.1908  0.9534
10107TIP3    H251813   3.367   0.880  15.682  1.0255  0.8481  1.2785
10108TIP3   OH251814   3.369   5.516   1.963  0.0392 -0.3073 -0.0666
10108TIP3    H151815   3.367   5.610   1.978 -1.8749 -0.5848  1.6039
10108TIP3    H251816   3.342   5.477   2.046 -1.6061 -2.2370 -1.4474
10109TIP3   OH251817   0.493   2.638  16.157  0.6702  0.6404  0.3301
10109TIP3    H151818   0.437   2.676  16.225  1.1089  0.0580  1.0287
10109TIP3    H251819   0.537   2.713  16.117 -0.9408  1.1455 -0.5360
10110TIP3   OH251820   6.320   2.876  11.533  0.6027  0.3125 -0.5068
10110TIP3    H151821   6.372   2.802  11.503  0.3736  0.6840 -1.8771
10110TIP3    H251822   6.350   2.950  11.480  2.4375  1.7486  2.3927
10111TIP3   OH251823   2.441   0.769  11.117 -0.2448 -0.3294 -0.6720
10111TIP3    H151824   2.477   0.758  11.029 -1.7926 -0.1453 -1.3517
10111TIP3    H251825   2.351   0.797  11.102  0.2221  2.1658  0.9850
10112TIP3   OH251826   6.568   6.591  16.684  0.6142 -0.3536 -0.3390
10112TIP3    H151827   6.504   6.642  16.635  1.3169  1.6705  0.7893
10112TIP3    H251828   6.546   6.606  16.776  1.5250 -1.2013  0.0391
10113TIP3   OH251829   6.537   5.764  15.100 -0.0881  0.1994 -0.0949
10113TIP3    H151830   6.558   5.707  15.027  3.9279  0.0851  0.9774
10113TIP3    H251831   6.520   5.850  15.060 -0.7285 -0.4959 -1.3266
10114TIP3   OH251832   2.991   3.695  10.974  0.0304  0.4135 -0.5089
10114TIP3    H151833   2.972   3.644  10.896 -2.2209 -0.2376  0.4202
10114TIP3    H251834   3.087   3.704  10.974  0.2737 -1.7441 -1.9683
10115TIP3   OH251835   2.237   2.469  15.946  0.5021 -0.0104 -0.0838
10115TIP3    H151836   2.278   2.396  15.993 -0.2420  0.1104  0.7691
10115TIP3    H251837   2.144   2.445  15.942  0.1492  1.1877  0.7611
10116TIP3   OH251838   0.476   6.025   4.636 -0.1724 -0.8826  0.5386
10116TIP3    H151839   0.534   5.957   4.601 -1.6692 -1.4489 -0.9100
10116TIP3    H251840   0.425   5.980   4.703 -1.7703 -1.4528 -1.0166
10117TIP3   OH251841   2.847   2.161   3.523 -0.0353  0.0058  0.4860
10117TIP3    H151842   2.920   2.217   3.497  0.4136 -0.8902 -0.1801
10117TIP3    H251843   2.785   2.167   3.451 -1.3156  1.9418  1.6943
10118TIP3   OH251844   2.223   4.087  16.496  0.4813 -0.1172 -0.0150
10118TIP3    H151845   2.133   4.059  16.480  1.1226 -1.3959 -1.4846
10118TIP3    H251846   2.248   4.042  16.577 -0.8633  1.8539  1.5310
10119TIP3   OH251847   0.290   5.120  11.857 -0.2743  0.8188  0.3566
10119TIP3    H151848   0.326   5.035  11.885 -0.3402  0.3623 -0.9040
10119TIP3    H251849   0.222   5.097  11.795  0.5432  1.8377 -0.9371
10120TIP3   OH251850   3.642   5.828  15.073  0.0550  0.1097  0.0858
10120TIP3    H151851   3.613   5.906  15.119 -2.1177 -0.8198  0.3597
10120TIP3    H251852   3.561   5.785  15.045  1.1155 -2.9867  1.5241
10121TIP3   OH251853   6.357   0.843   4.260  0.3442  0.2565  0.2153
10121TIP3    H151854   6.426   0.837   4.193  0.2502  0.1769  0.1261
10121TIP3    H251855   6.276   0.841   4.210  0.2275 -1.7426  0.4716
10122TIP3   OH251856   3.248   0.060   0.954 -0.2148  0.5706 -0.9065
10122TIP3    H151857   3.155   0.038   0.966 -0.2864  0.7936 -1.0410
10122TIP3    H251858   3.251   0.103   0.868 -0.1222  1.3346 -0.5235
10123TIP3   OH251859   0.486   5.116  11.044 -0.3615  0.9979 -0.0621
10123TIP3    H151860   0.422   5.086  10.980  0.7541 -0.5783 -0.4628
10123TIP3    H251861   0.456   5.204  11.068 -2.4403  0.4513 -0.5291
10124TIP3   OH251862   5.397   5.288  14.781 -0.2537 -0.1047 -0.2261
10124TIP3    H151863   5.307   5.302  14.810 -0.7227 -1.0622 -1.1827
10124TIP3    H251864   5.450   5.342  14.840 -1.3278 -0.6377  1.2800
10125TIP3   OH251865   4.554   4.720  15.013 -0.0630 -0.7220 -0.6003
10125TIP3    H151866   4.514   4.666  14.946  1.1103 -1.0539 -1.0277
10125TIP3    H251867   4.619   4.664  15.055 -0.5473 -0.4200  0.6080
10126TIP3   OH251868   3.955   6.476  16.470 -0.0966 -0.3887 -0.0990
10126TIP3    H151869   3.961   6.568  16.495 -1.1813 -1.2453  3.6225
10126TIP3    H251870   3.875   6.471  16.417  0.4809  0.9387 -1.1210
10127TIP3   OH251871   2.074   6.625  11.912 -0.5833 -0.1898  0.5150
10127TIP3    H151872   2.128   6.652  11.987 -0.6008 -2.3169  1.3454
10127TIP3    H251873   2.128   6.646  11.835  0.3628  0.0119  1.2171
10128TIP3   OH251874   1.599   3.129   1.457 -0.2237  0.2683  0.2115
10128TIP3    H151875   1.670   3.077   1.494 -0.5272  0.4093  0.9866
10128TIP3    H251876   1.627   3.220   1.468 -0.5675  0.3276  0.6001
10129TIP3   OH251877   0.329   3.571   5.902 -0.1498  0.3607  0.0436
10129TIP3    H151878   0.340   3.599   5.811  0.8673 -0.4457 -0.0851
10129TIP3    H251879   0.408   3.602   5.947 -1.1164  1.6577  0.8857
10130TIP3   OH251880   4.176   4.527   0.629  0.1581 -0.4357  0.2807
10130TIP3    H151881   4.122   4.606   0.630  1.2595  0.3319  0.7834
10130TIP3    H251882   4.199   4.514   0.537  1.8315  1.1462  0.4455
10131TIP3   OH251883   1.362   2.750  15.305 -0.1913  0.7833 -0.0923
10131TIP3    H151884   1.354   2.755  15.210  0.1298  0.9628 -0.1138
10131TIP3    H251885   1.296   2.811  15.338 -1.0130 -0.0684 -0.1735
10132TIP3   OH251886   0.875   4.305  15.372 -0.7115  0.0771 -0.4422
10132TIP3    H151887   0.965   4.317  15.343  0.4532 -0.6796  2.6181
10132TIP3    H251888   0.856   4.213  15.354 -0.7622  0.1582 -0.8063
10133TIP3   OH251889   1.712   0.845   4.601  0.0626 -0.6821 -0.1520
10133TIP3    H151890   1.800   0.808   4.598 -1.0894 -3.6758  0.4952
10133TIP3    H251891   1.659   0.785   4.549 -1.8101  0.4274  0.4070
10134TIP3   OH251892   2.617   1.947  16.847 -0.0074  0.3649  0.5150
10134TIP3    H151893   2.645   1.991  16.927 -0.7515  0.4698  0.7251
10134TIP3    H251894   2.673   1.982  16.779  0.9029 -0.0176  1.0559
10135TIP3   OH251895   1.263   0.974   2.924 -0.7507  0.2336  0.1532
10135TIP3    H151896   1.216   0.999   2.845 -2.1233  0.6872  1.0850
10135TIP3    H251897   1.241   0.882   2.937  2.4645 -0.9439 -2.0080
10136TIP3   OH251898   4.626   0.354   6.194 -0.4309  0.2951 -0.1154
10136TIP3    H151899   4.540   0.315   6.181  0.2879 -1.3826  0.0847
10136TIP3    H251900   4.688   0.284   6.174  0.8650  1.0900  1.0029
10137TIP3   OH251901   1.311   2.278   4.622  0.3935 -0.0332  0.2008
10137TIP3    H151902   1.234   2.310   4.669  0.7413 -1.9179  2.0875
10137TIP3    H251903   1.379   2.342   4.641 -0.3528  0.9673 -0.4483
10138TIP3   OH251904   1.869   2.008   5.581 -0.5177 -0.6396 -0.3415
10138TIP3    H151905   1.926   2.039   5.652  1.0818  1.1877 -2.3301
10138TIP3    H251906   1.782   2.037   5.606  0.0994  0.4416  0.6265
10139TIP3   OH251907   2.860   0.074  14.635  0.2154  0.1029  0.2315
10139TIP3    H151908   2.939   0.041  14.591 -0.0236 -0.5089  0.2567
10139TIP3    H251909   2.796   0.084  14.565  1.3325  3.8820 -0.3606
10140TIP3   OH251910   0.964   3.485  16.285  0.4732  0.3099  0.4040
10140TIP3    H151911   1.016   3.407  16.308 -0.6352  0.0418  2.0382
10140TIP3    H251912   0.943   3.526  16.369 -1.0895  0.9766 -0.2954
10141TIP3   OH251913   6.184   2.722   3.712 -0.3284  0.3326  0.1727
10141TIP3    H151914   6.097   2.763   3.705 -0.1458  0.4329 -2.1044
10141TIP3    H251915   6.203   2.693   3.623  1.7152 -0.2572  0.7777
10142TIP3   OH251916   4.878   5.609   0.327  0.1234  1.0051 -0.5074
10142TIP3    H151917   4.838   5.530   0.290  1.3495 -0.0378  0.3271
10142TIP3    H251918   4.816   5.638   0.393 -0.9071  1.4426 -1.6562
10143TIP3   OH251919   4.744   1.726   0.449 -0.2809  0.5142 -0.0262
10143TIP3    H151920   4.759   1.673   0.527  0.6419  1.7543  0.6576
10143TIP3    H251921   4.681   1.793   0.477 -0.5945  0.4606 -0.5828
10144TIP3   OH251922   3.092   3.707  13.015 -0.0159  0.5019  0.6102
10144TIP3    H151923   3.093   3.618  13.050 -1.9635  0.6176  0.9790
10144TIP3    H251924   3.008   3.744  13.043  0.9008  2.5760  0.7354
10145TIP3   OH251925   6.431   6.472   5.823  0.0640 -0.2027  0.0761
10145TIP3    H151926   6.481   6.476   5.905  1.5496  3.5391 -0.8885
10145TIP3    H251927   6.468   6.398   5.776  0.1866 -1.4977  2.1714
10146TIP3   OH251928   1.380   2.366  12.098 -0.0815 -0.0328  0.6210
10146TIP3    H151929   1.325   2.303  12.052 -0.2296  0.4822  0.0772
10146TIP3    H251930   1.338   2.451  12.080  1.4661  0.4884 -0.6532
10147TIP3   OH251931   3.541   3.910  17.193 -0.1539  0.3376 -0.0618
10147TIP3    H151932   3.501   3.854  17.127 -1.4817 -0.3269  1.2566
10147TIP3    H251933   3.624   3.867  17.214 -1.6488 -1.7907  1.7199
10148TIP3   OH251934   2.994   5.273   5.583 -0.1390  0.9139  0.3574
10148TIP3    H151935   2.953   5.324   5.653 -0.9270  0.5887  0.1406
10148TIP3    H251936   2.976   5.322   5.503 -1.4631 -0.0135  0.0633
10149TIP3   OH251937   2.384   3.926  11.495  0.4795 -0.5823 -0.0203
10149TIP3    H151938   2.344   3.862  11.554  2.4605 -0.2854  1.7217
10149TIP3    H251939   2.440   3.874  11.436  0.5537 -0.6466  0.1063
10150TIP3   OH251940   5.391   6.601   6.015  0.0728  0.2205  0.5590
10150TIP3    H151941   5.297   6.598   5.999  0.4400 -1.1366 -1.6134
10150TIP3    H251942   5.402   6.563   6.102 -1.2969 -0.7383  0.3286
10151TIP3   OH251943   5.803   3.663  16.917  0.6442  0.0712 -0.4025
10151TIP3    H151944   5.801   3.643  16.824  0.6681  0.9231 -0.5872
10151TIP3    H251945   5.826   3.580  16.959  0.0134 -0.4653 -1.1058
10152TIP3   OH251946   0.082   1.224   0.280  0.0593 -0.1478  0.1447
10152TIP3    H151947   0.044   1.224   0.192 -0.1485  0.4284  0.2333
10152TIP3    H251948   0.051   1.305   0.320  0.7728 -0.0348  0.4847
10153TIP3   OH251949   0.350   0.884  17.036 -0.1164 -0.1383  0.0358
10153TIP3    H151950   0.419   0.833  16.994  0.7543  0.4522  0.7254
10153TIP3    H251951   0.360   0.972  17.001  1.0036  0.5054  1.8895
10154TIP3   OH251952   4.500   2.786  11.534  0.0849  0.3964 -0.1972
10154TIP3    H151953   4.509   2.760  11.626  0.6960  1.4288  0.0363
10154TIP3    H251954   4.441   2.720  11.497 -0.7801  0.4077  1.1029
10155TIP3   OH251955   0.902   1.600   1.360 -0.3696  0.2703 -0.3517
10155TIP3    H151956   0.886   1.686   1.401 -0.7554  0.7550 -1.5173
10155TIP3    H251957   0.817   1.574   1.325 -0.6364 -1.3728  1.4532
10156TIP3   OH251958   2.796   1.248  13.917 -0.1322 -0.2315 -0.4202
10156TIP3    H151959   2.778   1.322  13.975 -0.4147  0.4465 -1.3607
10156TIP3    H251960   2.884   1.218  13.942  0.0023  0.4490 -0.0740
10157TIP3   OH251961   2.964   0.322  12.583  0.3646  0.0422 -0.0909
10157TIP3    H151962   2.939   0.394  12.525  2.5338  0.3796 -0.6457
10157TIP3    H251963   3.059   0.328  12.589  0.2599 -0.4919  2.8704
10158TIP3   OH251964   3.888   0.223   5.312  0.1375  0.2374 -0.5735
10158TIP3    H151965   3.862   0.253   5.225 -2.0051 -1.1248 -0.4467
10158TIP3    H251966   3.859   0.292   5.372 -1.2115 -0.2514 -0.6548
10159TIP3   OH251967   6.648   5.176  14.420 -0.6470  0.6401  0.1887
10159TIP3    H151968   6.687   5.097  14.383  3.0407  2.7030 -0.5960
10159TIP3    H251969   6.559   5.150  14.443 -0.1591 -3.1927 -1.7815
10160TIP3   OH251970   4.159   4.331   4.718  0.2400 -0.1772 -0.2976
10160TIP3    H151971   4.216   4.334   4.642  0.5260 -0.1671 -0.0842
10160TIP3    H251972   4.074   4.302   4.684  0.5576 -0.8756 -0.5062
10161TIP3   OH251973   2.287   1.007  11.298  0.2622 -0.2908  0.0802
10161TIP3    H151974   2.273   0.921  11.337  0.9275 -0.5237 -0.1793
10161TIP3    H251975   2.368   0.997  11.248  0.4143  0.5234  0.1594
10162TIP3   OH251976   1.392   0.582   3.100  0.2361  0.8107 -0.3262
10162TIP3    H151977   1.405   0.530   3.021 -0.0204 -0.3644  0.3925
10162TIP3    H251978   1.407   0.520   3.172  3.6990  2.5730  0.6125
10163TIP3   OH251979   2.082   1.622   1.305  0.6196 -0.0261 -0.5838
10163TIP3    H151980   2.027   1.549   1.276  1.7800 -0.6204 -1.3019
10163TIP3    H251981   2.108   1.666   1.225  0.0614  1.0914 -0.1561
10164TIP3   OH251982   5.474   0.320   5.464  0.1183 -0.0862  0.2969
10164TIP3    H151983   5.491   0.232   5.430 -0.5101 -0.2073  0.2909
10164TIP3    H251984   5.537   0.330   5.536  0.6635 -0.2705 -0.1504
10165TIP3   OH251985   4.273   1.159   0.179  0.0976 -0.6923 -0.3045
10165TIP3    H151986   4.327   1.232   0.150  0.3295  0.3160  2.5257
10165TIP3    H251987   4.190   1.169   0.131  1.3291 -0.5806 -2.4672
10166TIP3   OH251988   0.608   1.436   0.771  0.2070 -0.5123  0.6048
10166TIP3    H151989   0.632   1.426   0.679 -0.8428 -3.0893  0.5924
10166TIP3    H251990   0.666   1.506   0.803  2.7255 -1.7050 -1.2248
10167TIP3   OH251991   4.767   0.504  16.018 -0.0026 -0.6259 -0.1496
10167TIP3    H151992   4.752   0.514  16.112 -0.2219 -0.4459 -0.2027
10167TIP3    H251993   4.680   0.501  15.979  0.0895  1.9834 -0.6234
10168TIP3   OH251994   1.044   6.666   1.769 -0.4598  0.4641  0.1583
10168TIP3    H151995   1.073   6.575   1.767  0.2057  0.7034 -1.9685
10168TIP3    H251996   0.978   6.668   1.839 -1.8610 -2.0845 -0.9978
10169TIP3   OH251997   5.627   3.025  15.615  0.1965  0.2034  0.2102
10169TIP3    H151998   5.696   2.985  15.669  1.6099  0.6018 -1.2806
10169TIP3    H251999   5.626   2.973  15.535 -1.2758  0.1948  0.2137
10170TIP3   OH252000   4.424   1.288   2.371 -0.2384  0.2907 -0.3536
10170TIP3    H152001   4.341   1.302   2.417  0.4414 -1.3663  1.4188
10170TIP3    H252002   4.406   1.213   2.314  0.3522 -0.8340  0.9058
10171TIP3   OH252003   1.049   2.935   3.532  0.3410 -0.0641 -0.3278
10171TIP3    H152004   1.141   2.958   3.521  0.4508 -0.1996  0.3026
10171TIP3    H252005   1.028   2.963   3.622 -0.4374  0.6699 -0.7283
10172TIP3   OH252006   5.762   2.691  12.621 -0.4302  0.3413 -0.2462
10172TIP3    H152007   5.850   2.724  12.606  0.0293 -0.8394 -0.1776
10172TIP3    H252008   5.705   2.763  12.594  0.5693  1.5765  0.8633
10173TIP3   OH252009   0.151   1.579   3.139  0.1088 -0.0756 -0.5032
10173TIP3    H152010   0.089   1.589   3.067  1.3988  2.8176 -1.2977
10173TIP3    H252011   0.103   1.610   3.216 -0.5012 -0.9869 -0.5057
10174TIP3   OH252012   6.238   4.143  15.664 -0.0658 -0.6953 -0.1046
10174TIP3    H152013   6.259   4.237  15.669 -1.3116 -0.4315  0.2759
10174TIP3    H252014   6.253   4.121  15.572  1.2530 -0.3819  0.0132
10175TIP3   OH252015   6.762   5.287  16.428 -0.2297  0.3112  1.0261
10175TIP3    H152016   6.675   5.264  16.395  0.1642  1.0619 -0.6140
10175TIP3    H252017   6.791   5.209  16.475 -2.1806  0.4041  2.4387
10176TIP3   OH252018   0.520   2.123   1.628 -0.4378  0.0971  0.0296
10176TIP3    H152019   0.449   2.086   1.576  0.1360 -0.9690 -0.0090
10176TIP3    H252020   0.532   2.061   1.701  0.9854 -0.1646 -0.4049
10177TIP3   OH252021   1.315   1.285  16.130  0.5948 -0.2762 -0.3056
10177TIP3    H152022   1.298   1.241  16.213  1.0572  0.0963 -0.0079
10177TIP3    H252023   1.318   1.215  16.066 -3.2441 -0.2545 -0.6045
10178TIP3   OH252024   1.241   0.119  17.265 -0.2676  0.3229  0.3055
10178TIP3    H152025   1.176   0.077  17.321  0.6197  0.2234  1.2799
10178TIP3    H252026   1.251   0.059  17.190 -1.0111  0.1566  0.3387
10179TIP3   OH252027   0.356   4.163  17.045 -0.3210  0.0809 -0.3546
10179TIP3    H152028   0.288   4.096  17.048  1.7036 -1.9686  0.6199
10179TIP3    H252029   0.372   4.177  16.952 -2.1735  0.7305 -0.6075
10180TIP3   OH252030   3.999   5.085  16.339  0.1570  0.1101 -0.0275
10180TIP3    H152031   3.989   4.993  16.364 -1.2703 -0.1309 -1.4372
10180TIP3    H252032   4.071   5.117  16.394 -1.2762 -1.0424  2.6189
10181TIP3   OH252033   3.524   6.161  14.063  0.0165 -0.6273 -0.2865
10181TIP3    H152034   3.591   6.099  14.036 -0.5840 -1.4396  0.0678
10181TIP3    H252035   3.557   6.197  14.146  0.4142 -0.3799 -0.5476
10182TIP3   OH252036   2.047   1.448  15.130 -0.0697  0.6026  0.2811
10182TIP3    H152037   2.008   1.485  15.051  1.8279  2.6554  0.2523
10182TIP3    H252038   2.003   1.493  15.202  0.3497  0.9772  0.3073
10183TIP3   OH252039   5.797   2.391  13.286  0.1438 -0.1043  0.2285
10183TIP3    H152040   5.865   2.371  13.222 -0.6583  0.9391 -0.9569
10183TIP3    H252041   5.723   2.334  13.262  0.7814 -1.7007  1.8991
10184TIP3   OH252042   5.143   4.515  16.252  0.1047 -0.1321 -0.1968
10184TIP3    H152043   5.131   4.507  16.347  0.4677  2.8225  0.1517
10184TIP3    H252044   5.237   4.532  16.241  0.0608 -0.4215 -1.0893
10185TIP3   OH252045   2.326   2.388   5.262 -0.0941 -0.1452 -0.3292
10185TIP3    H152046   2.331   2.429   5.348 -2.2061 -0.0115 -0.2464
10185TIP3    H252047   2.412   2.346   5.250  0.0133 -0.6494  2.0690
10186TIP3   OH252048   5.695   2.714  15.048 -0.5742  0.2800 -0.5807
10186TIP3    H152049   5.685   2.619  15.035  2.8173 -0.3619  0.9638
10186TIP3    H252050   5.728   2.745  14.964 -1.6257  0.1041 -1.0704
10187TIP3   OH252051   4.290   1.252  12.048 -0.7998  0.1038 -0.0251
10187TIP3    H152052   4.270   1.344  12.035 -3.0947 -0.6317 -1.9910
10187TIP3    H252053   4.222   1.220  12.107  0.4508 -0.1744  1.2950
10188TIP3   OH252054   4.499   5.698   5.882  0.1773  0.1276 -0.4912
10188TIP3    H152055   4.534   5.787   5.886 -0.3664  0.2862  0.9569
10188TIP3    H252056   4.575   5.641   5.897  0.4774  0.3473 -1.1595
10189TIP3   OH252057   4.366   5.149   6.110  0.5558 -0.1711 -0.6600
10189TIP3    H152058   4.423   5.222   6.132  1.0354 -1.0327  1.0845
10189TIP3    H252059   4.278   5.182   6.124  0.7812 -0.0083  0.4287
10190TIP3   OH252060   5.442   2.991   5.002 -0.1508 -0.1420 -0.2315
10190TIP3    H152061   5.430   2.901   4.972 -0.1644 -0.9301  1.9793
10190TIP3    H252062   5.357   3.032   4.992 -0.5495 -0.8531  0.2042
10191TIP3   OH252063   0.976   3.944  13.398 -0.1617  0.0601  0.0619
10191TIP3    H152064   0.904   3.917  13.341  0.9529  0.7611 -1.7170
10191TIP3    H252065   0.936   4.004  13.461 -1.4438 -0.9050  0.2047
10192TIP3   OH252066   4.687   5.841   1.778  0.2125  0.4574 -0.2877
10192TIP3    H152067   4.617   5.787   1.741  0.7627  0.1137 -0.8600
10192TIP3    H252068   4.694   5.813   1.869  0.4827 -0.4526 -0.5767
10193TIP3   OH252069   6.659   4.958  10.864 -0.1984 -0.3996 -0.7163
10193TIP3    H152070   6.677   5.016  10.789 -0.1939 -1.1589 -1.3073
10193TIP3    H252071   6.746   4.935  10.896 -0.1642 -1.3817 -1.4953
10194TIP3   OH252072   6.086   0.582   3.377 -0.8189  0.7766  0.3986
10194TIP3    H152073   6.139   0.621   3.308  2.4586 -0.4141  2.1211
10194TIP3    H252074   6.003   0.631   3.375  0.1566  2.3976 -2.6807
10195TIP3   OH252075   0.425   0.171  13.199 -0.3734 -1.0437  0.1191
10195TIP3    H152076   0.418   0.255  13.245 -0.5127 -0.8645 -0.2229
10195TIP3    H252077   0.387   0.188  13.113  1.4001 -0.9205 -0.6635
10196TIP3   OH252078   4.304   0.957  15.255 -0.4506 -0.0167  0.1305
10196TIP3    H152079   4.335   0.940  15.166  2.0388 -0.5338  1.0836
10196TIP3    H252080   4.216   0.918  15.257  0.3517 -1.9975 -1.4049
10197TIP3   OH252081   5.072   5.188   5.258  0.5139  0.2944  0.1753
10197TIP3    H152082   5.086   5.234   5.175  3.0791  0.0926  0.4311
10197TIP3    H252083   5.010   5.119   5.237  1.4113  0.0176 -1.7027
10198TIP3   OH252084   2.440   3.702  11.725  0.3954  0.1324  0.5679
10198TIP3    H152085   2.380   3.627  11.727  1.2983 -0.6570 -0.5554
10198TIP3    H252086   2.451   3.727  11.816  0.8846 -1.7854  1.0714
10199TIP3   OH252087   1.276   0.129  11.606  0.1089 -0.4445  0.4329
10199TIP3    H152088   1.315   0.178  11.534  1.7720 -1.3507  0.6835
10199TIP3    H252089   1.187   0.162  11.613  0.1530  0.1319 -1.5964
10200TIP3   OH252090   5.938   1.222   2.260  0.3283  0.5278  0.1754
10200TIP3    H152091   5.881   1.298   2.273  0.0658  0.3510  0.0551
10200TIP3    H252092   5.908   1.183   2.178 -1.1220 -1.0922  1.4507
10201TIP3   OH252093   4.738   0.857  13.908  0.1256  0.3404 -0.1986
10201TIP3    H152094   4.818   0.900  13.937  0.6827 -0.1778 -0.9241
10201TIP3    H252095   4.696   0.920  13.850 -1.2994  1.6133  2.1906
10202TIP3   OH252096   4.080   1.229   0.505  0.2181  0.0952 -0.0807
10202TIP3    H152097   4.168   1.216   0.469  1.2806  0.9392  2.1160
10202TIP3    H252098   4.095   1.260   0.594 -2.3228  0.4089  0.2740
10203TIP3   OH252099   5.653   6.605  12.256 -0.9988 -0.0595  0.4783
10203TIP3    H152100   5.614   6.688  12.282  1.0703  0.8599  0.7402
10203TIP3    H252101   5.591   6.539  12.285 -0.9792  1.2133  3.5658
10204TIP3   OH252102   0.223   1.550   1.585 -0.2566  0.3735  0.3202
10204TIP3    H152103   0.237   1.512   1.671  0.9461 -0.2198 -0.1297
10204TIP3    H252104   0.160   1.491   1.542 -0.0124  0.0677  0.3861
10205TIP3   OH252105   5.501   2.551   5.529 -0.4961 -0.3278 -0.3242
10205TIP3    H152106   5.590   2.518   5.521 -1.1089 -1.9705 -0.5266
10205TIP3    H252107   5.448   2.474   5.549 -2.0137  0.4750 -1.1488
10206TIP3   OH252108   4.031   6.788   3.299  0.6977 -0.0299  0.7549
10206TIP3    H152109   3.949   6.838   3.303 -1.8097 -3.7064 -1.6708
10206TIP3    H252110   4.047   6.760   3.389 -0.1672  1.5534  1.4254
10207TIP3   OH252111   3.475   3.870   1.793 -0.5396  0.1005 -0.6060
10207TIP3    H152112   3.435   3.957   1.797 -3.3347 -1.2115  1.5822
10207TIP3    H252113   3.539   3.870   1.864 -0.6687  0.2960 -0.4890
10208TIP3   OH252114   0.850   6.225  16.888 -0.6879  0.0525  0.2623
10208TIP3    H152115   0.926   6.227  16.946 -0.6698  1.8374  0.2264
10208TIP3    H252116   0.881   6.184  16.808 -0.3538 -1.2190  1.0381
10209TIP3   OH252117   4.258   6.707   6.780 -0.4937 -0.5324  0.3847
10209TIP3    H152118   4.209   6.706   6.863 -1.6377  2.3019 -0.1974
10209TIP3    H252119   4.226   6.785   6.735  1.1890 -1.2404 -2.1066
10210TIP3   OH252120   1.491   3.282   5.036  0.3629  0.3831  0.2977
10210TIP3    H152121   1.519   3.370   5.011  0.7841  0.1149 -0.1613
10210TIP3    H252122   1.551   3.258   5.107 -0.4817  0.9217  1.2092
10211TIP3   OH252123   4.684   2.433   6.548 -0.2807  0.2398 -0.4098
10211TIP3    H152124   4.683   2.503   6.614 -2.4965  1.3592 -1.5679
10211TIP3    H252125   4.703   2.354   6.597  0.0340  1.3375  1.2805
10212TIP3   OH252126   4.188   1.255  16.690 -0.1045  0.8607  0.3859
10212TIP3    H152127   4.151   1.233  16.604 -0.6482  1.1923  0.5349
10212TIP3    H252128   4.237   1.176  16.716  1.0422  1.1750 -0.7502
10213TIP3   OH252129   3.798   5.449  16.613 -0.1894  0.0637  1.0037
10213TIP3    H152130   3.831   5.370  16.571 -2.1608 -0.7810  0.9602
10213TIP3    H252131   3.811   5.434  16.706 -1.4993 -0.7910  1.0658
10214TIP3   OH252132   0.910   2.671  13.166 -0.0936  0.4928 -0.4223
10214TIP3    H152133   1.001   2.664  13.138 -0.1468  1.3198 -0.8092
10214TIP3    H252134   0.863   2.699  13.088 -0.3983  1.8250  0.2270
10215TIP3   OH252135   5.053   4.080  15.026 -0.1920  0.4487  0.1261
10215TIP3    H152136   5.121   4.044  15.082 -0.7957  0.8116  1.0936
10215TIP3    H252137   5.075   4.048  14.938  0.3946 -0.6463  0.6640
10216TIP3   OH252138   6.816   0.701   1.209 -0.0054  0.2522  0.0691
10216TIP3    H152139   6.811   0.791   1.178  0.7366  0.0960 -0.5045
10216TIP3    H252140   6.870   0.656   1.145 -0.3490 -0.6011  0.3681
10217TIP3   OH252141   4.218   1.768  15.152 -0.5055  0.1898 -0.5493
10217TIP3    H152142   4.243   1.859  15.163 -0.8174  0.1742  0.3143
10217TIP3    H252143   4.300   1.720  15.158 -0.6099  0.2239  1.2944
10218TIP3   OH252144   6.735   1.135  16.220 -0.0259  0.3328 -0.5504
10218TIP3    H152145   6.666   1.107  16.161 -0.7514 -0.2545  0.5497
10218TIP3    H252146   6.690   1.180  16.291  0.5565 -1.1789  0.8382
10219TIP3   OH252147   1.967   0.482   1.720  0.3522 -0.2881 -0.1194
10219TIP3    H152148   2.032   0.524   1.775 -0.2609 -2.3460  2.2595
10219TIP3    H252149   1.965   0.391   1.750  0.0549 -1.5322 -3.6001
10220TIP3   OH252150   4.353   6.694   4.708 -0.2295  0.6857 -0.1756
10220TIP3    H152151   4.364   6.657   4.796 -0.8499  1.5535  0.2772
10220TIP3    H252152   4.263   6.671   4.684 -1.1362  3.1554  0.7317
10221TIP3   OH252153   0.290   0.336   5.481  0.4865 -0.0489  0.0969
10221TIP3    H152154   0.253   0.336   5.393 -0.0797  0.0520  0.3358
10221TIP3    H252155   0.384   0.345   5.467  0.5523 -1.6876 -0.5563
10222TIP3   OH252156   0.355   5.147  15.779  0.0330 -0.2418 -0.1363
10222TIP3    H152157   0.340   5.090  15.704  1.1920  0.0237 -0.5773
10222TIP3    H252158   0.332   5.094  15.856 -1.8242 -0.2907 -0.6902
10223TIP3   OH252159   1.379   1.667  11.810 -0.3891  0.6573  0.0860
10223TIP3    H152160   1.334   1.645  11.891 -0.0679  1.3504  0.4503
10223TIP3    H252161   1.337   1.612  11.744 -0.2439 -0.3585  0.8259
10224TIP3   OH252162   5.128   2.342  17.133  0.0540  0.6466 -0.3612
10224TIP3    H152163   5.154   2.386  17.052  0.2488  1.7226  0.2842
10224TIP3    H252164   5.138   2.408  17.201  1.5082 -0.7140  0.8089
10225TIP3   OH252165   5.777   2.728  16.894  0.0586 -0.0220  0.0729
10225TIP3    H152166   5.688   2.729  16.858  0.3224  0.0621 -0.5765
10225TIP3    H252167   5.764   2.744  16.988 -0.7312 -1.5504  0.2396
10226TIP3   OH252168   0.215   6.620   6.011  0.5668 -0.6193  0.5688
10226TIP3    H152169   0.270   6.544   6.029  0.6329  0.0184  3.1706
10226TIP3    H252170   0.188   6.652   6.097 -2.9629 -0.2399 -0.6162
10227TIP3   OH252171   2.027   4.595   5.735 -0.0737  0.0773 -0.2841
10227TIP3    H152172   1.989   4.653   5.800  0.9379 -1.2259  1.5145
10227TIP3    H252173   1.954   4.541   5.704 -0.7495  1.3637 -1.0028
10228TIP3   OH252174   2.637   4.561   3.155  0.2345 -0.3265 -0.1443
10228TIP3    H152175   2.649   4.493   3.221  0.9134 -1.4898 -1.4381
10228TIP3    H252176   2.545   4.554   3.130  0.4177 -1.0813 -0.6073
10229TIP3   OH252177   0.980   6.594  15.891 -0.2780  0.7603 -0.0717
10229TIP3    H152178   0.936   6.518  15.928 -1.3855  1.7338  0.6761
10229TIP3    H252179   1.005   6.646  15.968 -0.5378  1.6821 -0.6039
10230TIP3   OH252180   3.815   6.197   0.882  0.2394 -0.9262 -0.5629
10230TIP3    H152181   3.776   6.164   0.801  1.6343 -1.0683 -1.1912
10230TIP3    H252182   3.861   6.277   0.855 -2.2870  1.0886  0.7489
10231TIP3   OH252183   0.001   5.575  13.441 -0.2177  0.3520  0.1870
10231TIP3    H152184   0.051   5.545  13.364 -0.5717 -0.9684  0.4612
10231TIP3    H252185  -0.090   5.561  13.417 -0.3158 -0.5163  1.0107
10232TIP3   OH252186   6.132   2.030   2.303  0.0265 -0.2241 -0.1573
10232TIP3    H152187   6.217   1.986   2.301  0.4406  0.5982 -0.8858
10232TIP3    H252188   6.075   1.976   2.248  0.2732 -0.3807 -0.2583
10233TIP3   OH252189   1.096   5.607   0.782 -0.6254 -0.3592  0.0327
10233TIP3    H152190   1.182   5.632   0.815 -1.1150  0.9552  0.3590
10233TIP3    H252191   1.114   5.555   0.704  0.4658  0.4709 -0.2828
10234TIP3   OH252192   1.163   3.321  17.030  0.0342 -0.1329 -0.0763
10234TIP3    H152193   1.204   3.368  17.103 -1.7140  1.4445 -0.0763
10234TIP3    H252194   1.221   3.337  16.955  0.8080 -0.1224  0.5237
10235TIP3   OH252195   4.299   0.303   4.226 -0.4726 -0.7095 -0.2228
10235TIP3    H152196   4.359   0.271   4.158  0.7090 -2.6818  1.6586
10235TIP3    H252197   4.227   0.239   4.225 -1.1888  0.0991 -0.6110
10236TIP3   OH252198   1.729   2.691  12.852 -0.0385 -0.1960 -0.1548
10236TIP3    H152199   1.752   2.771  12.898 -2.9111  0.9026 -0.5006
10236TIP3    H252200   1.807   2.667  12.803  1.4134  1.4129  1.3259
10237TIP3   OH252201   1.961   0.514  12.539  0.6762  0.1304  0.7544
10237TIP3    H152202   1.969   0.510  12.444 -1.9523  0.3706  0.4813
10237TIP3    H252203   1.969   0.607  12.561  0.1421  0.2028  0.6450
10238TIP3   OH252204   3.110   1.196   2.486 -0.0924 -0.1812 -0.4456
10238TIP3    H152205   3.114   1.107   2.522  0.3958 -0.6108 -1.5467
10238TIP3    H252206   3.125   1.185   2.392 -0.4588  1.0243 -0.6546
10239TIP3   OH252207   1.649   0.721   3.367 -0.4532 -0.0166  0.0832
10239TIP3    H152208   1.639   0.630   3.396 -0.9083 -0.5973 -1.8055
10239TIP3    H252209   1.691   0.765   3.440  1.6192 -2.2051  0.2742
10240TIP3   OH252210   2.430   0.318  14.311 -0.1362 -0.1727  0.4686
10240TIP3    H152211   2.524   0.325  14.329  0.0704 -0.0332 -0.6305
10240TIP3    H252212   2.408   0.401  14.270 -0.4621 -0.7264 -0.4879
10241TIP3   OH252213   6.241   1.634   5.659  0.0509  0.3593 -0.3296
10241TIP3    H152214   6.308   1.577   5.696 -0.8950 -0.2885  0.4013
10241TIP3    H252215   6.269   1.648   5.568 -0.2311 -2.1194 -0.8335
10242TIP3   OH252216   5.278   4.672  16.909  0.3062 -0.1361 -0.2525
10242TIP3    H152217   5.354   4.727  16.926  1.3089 -1.5131 -0.1584
10242TIP3    H252218   5.249   4.643  16.995 -1.8688  2.3657 -0.0973
10243TIP3   OH252219   3.517   3.495   2.524 -0.1980  0.0461 -0.2736
10243TIP3    H152220   3.563   3.447   2.455  0.6461  2.3490 -1.3698
10243TIP3    H252221   3.449   3.545   2.478 -1.2589 -0.3201  0.8709
10244TIP3   OH252222   0.588   4.694  16.382  0.0828 -0.2621 -0.4727
10244TIP3    H152223   0.533   4.706  16.305 -1.3300  1.0026  0.7144
10244TIP3    H252224   0.657   4.759  16.373  0.7435 -1.0806 -1.3836
10245TIP3   OH252225   6.205   2.831   4.587 -0.5445 -0.1726  0.8844
10245TIP3    H152226   6.258   2.836   4.506  0.4267  2.3516  1.6171
10245TIP3    H252227   6.270   2.829   4.657 -1.3963 -2.1270  1.6355
10246TIP3   OH252228   2.650   6.392  11.034 -0.3802  0.0790 -0.3209
10246TIP3    H152229   2.573   6.449  11.026 -1.9382 -2.0125 -0.7165
10246TIP3    H252230   2.633   6.320  10.973  2.1477 -0.1810 -0.7821
10247TIP3   OH252231   3.117   1.516  11.256 -0.0508 -0.2909  0.5017
10247TIP3    H152232   3.180   1.501  11.185  1.9893  1.1554  1.9213
10247TIP3    H252233   3.171   1.546  11.329 -2.1686 -1.2546  2.5117
10248TIP3   OH252234   0.802   1.294  11.263  0.2642  0.1023  0.2596
10248TIP3    H152235   0.784   1.311  11.355  1.8506  0.4344  0.5223
10248TIP3    H252236   0.854   1.370  11.234 -0.6137  0.2350 -1.0291
10249TIP3   OH252237   6.130   3.078   3.891  0.2030  0.4442  0.2093
10249TIP3    H152238   6.071   3.132   3.838 -0.9007  1.3063  2.2570
10249TIP3    H252239   6.109   2.988   3.867 -2.1410  0.7403  1.0986
10250TIP3   OH252240   5.018   1.235   4.554  0.0403  0.3556 -0.1100
10250TIP3    H152241   5.000   1.236   4.460  2.3885 -0.1248 -0.5866
10250TIP3    H252242   4.935   1.262   4.595 -1.3450 -0.6260 -2.2398
10251TIP3   OH252243   0.394   0.727  14.439  0.2335  0.2408  0.2502
10251TIP3    H152244   0.320   0.706  14.383  1.2231 -0.0364 -0.9667
10251TIP3    H252245   0.470   0.687  14.396  0.9848 -0.1374  1.8779
10252TIP3   OH252246   3.340   4.505  13.330 -0.0685 -0.0981 -0.2874
10252TIP3    H152247   3.328   4.414  13.356 -0.5420 -0.4144 -1.5484
10252TIP3    H252248   3.252   4.542  13.332  0.1877  0.4655  0.6821
10253TIP3   OH252249   4.435   6.631  13.719 -0.2496  0.7049  0.7572
10253TIP3    H152250   4.460   6.619  13.627 -2.1637 -0.4879  0.3726
10253TIP3    H252251   4.468   6.718  13.741  1.4690  0.4508 -0.6283
10254TIP3   OH252252   5.138   5.887  14.744 -0.0623 -0.0276  0.6570
10254TIP3    H152253   5.215   5.833  14.726 -0.1313 -0.7328  2.3456
10254TIP3    H252254   5.172   5.976  14.754 -0.0431  0.4264 -2.9234
10255TIP3   OH252255   5.255   4.851  15.093  0.2145 -0.5779  0.3041
10255TIP3    H152256   5.291   4.880  15.009  1.5413 -0.8270  0.7812
10255TIP3    H252257   5.254   4.756  15.087 -0.0714 -0.5832  0.4165
10256TIP3   OH252258   3.934   5.059   2.424 -0.1064  0.4645  0.0760
10256TIP3    H152259   3.970   4.989   2.477  0.6109  1.0154  0.3185
10256TIP3    H252260   3.907   5.016   2.342  0.4608 -0.0594  0.1669
10257TIP3   OH252261   6.474   0.250  16.145 -0.3290  0.6108  0.4782
10257TIP3    H152262   6.476   0.332  16.094 -1.7392  0.3972  0.0587
10257TIP3    H252263   6.463   0.182  16.080 -1.9407  0.3141  1.0331
10258TIP3   OH252264   3.406   1.234  15.075  0.0241 -0.0189  0.1328
10258TIP3    H152265   3.405   1.306  15.137  0.6592 -0.9489  1.2508
10258TIP3    H252266   3.475   1.176  15.107 -2.4453 -2.6220  1.0193
10259TIP3   OH252267   4.728   0.307   0.291  0.2710  0.1969 -0.0610
10259TIP3    H152268   4.709   0.374   0.356 -0.1227 -0.3323  0.3710
10259TIP3    H252269   4.816   0.329   0.259 -0.9618  2.5908 -2.0015
10260TIP3   OH252270   6.526   2.225   5.188  0.4302  0.1046 -0.7695
10260TIP3    H152271   6.556   2.294   5.128  0.3098 -0.2037 -1.1888
10260TIP3    H252272   6.607   2.182   5.217  0.5677  0.9963  0.1995
10261TIP3   OH252273   4.307   1.097   2.156  0.5210  0.4931 -0.3666
10261TIP3    H152274   4.354   1.014   2.158  2.3721  1.4302 -2.2815
10261TIP3    H252275   4.224   1.077   2.113  0.1975 -0.7070  0.7917
10262TIP3   OH252276   5.998   3.063  14.247  0.3361 -0.0039  0.5854
10262TIP3    H152277   6.074   3.045  14.192 -0.7897 -0.5611 -0.8416
10262TIP3    H252278   5.988   2.984  14.300  1.4879  0.5760  1.6808
10263TIP3   OH252279   6.212   1.150  15.387 -0.2810  0.0012 -0.2114
10263TIP3    H152280   6.220   1.079  15.324  1.9687 -4.0069  4.2369
10263TIP3    H252281   6.301   1.162  15.421 -1.4557  1.5934  2.5454
10264TIP3   OH252282   5.468   2.690  12.138  0.1529  0.1092 -0.2613
10264TIP3    H152283   5.393   2.640  12.107 -0.5911 -0.0088  1.6736
10264TIP3    H252284   5.433   2.749  12.204  1.8659 -0.4968  1.2495
10265TIP3   OH252285   6.810   1.029   0.033  0.0783  0.0915  0.2410
10265TIP3    H152286   6.881   1.013   0.095  0.0587  1.3233  0.6042
10265TIP3    H252287   6.853   1.047  -0.050  0.1709  0.1192  0.2947
10266TIP3   OH252288   3.057   4.745  15.271 -0.6782  0.3549 -0.1550
10266TIP3    H152289   3.022   4.708  15.190  1.5379 -0.8422 -0.6246
10266TIP3    H252290   3.006   4.703  15.341 -2.3051  1.0721 -0.8861
10267TIP3   OH252291   6.697   2.980  12.319 -0.0005 -0.2034 -0.2463
10267TIP3    H152292   6.693   3.022  12.233 -0.5533  1.4661  0.5661
10267TIP3    H252293   6.610   2.942  12.331 -0.9753  2.2918  0.8811
10268TIP3   OH252294   6.344   0.317  11.751  0.0583  0.3204  0.8567
10268TIP3    H152295   6.381   0.273  11.674  2.1735  0.3127  1.8492
10268TIP3    H252296   6.282   0.380  11.715 -0.6031 -1.2037 -0.7477
10269TIP3   OH252297   6.087   5.788   0.852 -0.1149  0.3770  0.5612
10269TIP3    H152298   6.045   5.708   0.883  0.2829 -1.1949 -2.7311
10269TIP3    H252299   6.031   5.820   0.781  1.2112  1.4194 -0.0544
10270TIP3   OH252300   6.294   1.985   0.753  0.1089  0.4561 -0.5012
10270TIP3    H152301   6.321   1.921   0.688  0.5575  0.8947 -0.7491
10270TIP3    H252302   6.243   2.049   0.704  0.4951  0.8173 -0.4375
10271TIP3   OH252303   1.949   0.792   4.012  0.2495 -0.1215  0.5731
10271TIP3    H152304   2.001   0.712   4.018  1.2839  0.5730  1.1289
10271TIP3    H252305   1.892   0.790   4.089 -0.1911 -0.6364  0.2369
10272TIP3   OH252306   2.379   6.491   1.967  0.1878 -0.2932  0.1254
10272TIP3    H152307   2.395   6.554   2.037  2.0921 -0.4567 -0.1281
10272TIP3    H252308   2.313   6.532   1.911 -2.3217 -0.6934  2.6508
10273TIP3   OH252309   1.057   0.687  16.493 -0.0672  0.6101  0.3325
10273TIP3    H152310   1.002   0.611  16.515  0.2454  0.3544  0.2379
10273TIP3    H252311   1.054   0.742  16.571  0.2846  0.1524  0.6753
10274TIP3   OH252312   0.276   3.178   0.263 -0.1460  0.2741 -0.0596
10274TIP3    H152313   0.223   3.100   0.282  0.8337 -0.1452  0.9931
10274TIP3    H252314   0.300   3.212   0.349 -1.8042  2.6227 -0.4825
10275TIP3   OH252315   4.651   6.353  16.213  0.4185 -0.3386  0.2490
10275TIP3    H152316   4.611   6.267  16.224  0.8865 -0.6671 -0.5903
10275TIP3    H252317   4.585   6.406  16.169 -0.5885  0.3060  2.4506
10276TIP3   OH252318   4.721   4.851   5.980  0.0288  0.2886  0.1746
10276TIP3    H152319   4.652   4.902   5.939  0.3154 -0.0436 -0.7220
10276TIP3    H252320   4.676   4.773   6.014 -0.0557  0.1419 -0.2797
10277TIP3   OH252321   4.788   4.749  14.730 -0.3556 -0.4302  0.0431
10277TIP3    H152322   4.875   4.717  14.751 -0.7386 -1.2167  0.4593
10277TIP3    H252323   4.774   4.823  14.790  0.4979  0.4936 -0.8649
10278TIP3   OH252324   1.603   1.780   0.701  0.6084 -0.0020 -0.0254
10278TIP3    H152325   1.653   1.785   0.620  0.8079  0.6446  0.1319
10278TIP3    H252326   1.517   1.814   0.678  0.7458  0.4299  0.0962
10279TIP3   OH252327   6.184   6.494  14.660 -0.5683 -0.0020 -0.9107
10279TIP3    H152328   6.266   6.461  14.697 -1.2881  1.4223  2.0713
10279TIP3    H252329   6.197   6.488  14.566  2.4706 -1.0209 -0.4989
10280TIP3   OH252330   4.958   2.680   2.252  0.1827 -0.0293  0.1879
10280TIP3    H152331   4.890   2.720   2.306 -0.2595 -1.0477  0.3855
10280TIP3    H252332   4.987   2.751   2.194 -1.8666  0.1137 -0.7097
10281TIP3   OH252333   6.795   3.232   0.850  0.0719  0.4941  0.3898
10281TIP3    H152334   6.803   3.138   0.834  1.0404  0.6984 -0.3787
10281TIP3    H252335   6.719   3.240   0.908 -0.9459 -0.6381 -0.7501
10282TIP3   OH252336   2.974   5.345  14.642 -0.1176  0.0060  0.5291
10282TIP3    H152337   2.928   5.328  14.560 -0.4234  1.7360  0.3327
10282TIP3    H252338   3.054   5.292  14.635 -1.1479 -1.5361  0.0620
10283TIP3   OH252339   5.647   2.658   3.532 -0.6661 -0.0506  0.1269
10283TIP3    H152340   5.736   2.693   3.533 -0.0683 -1.5265 -0.2131
10283TIP3    H252341   5.633   2.629   3.622 -0.2734 -1.0957 -0.1400
10284TIP3   OH252342   4.139   3.698  12.478  0.1646 -0.1449 -0.7280
10284TIP3    H152343   4.165   3.749  12.401 -0.7702 -0.1723 -1.0754
10284TIP3    H252344   4.181   3.742  12.552  1.4852 -0.4230 -1.3128
10285TIP3   OH252345   5.696   1.287   2.036 -0.2908  0.1358 -0.2473
10285TIP3    H152346   5.661   1.202   2.009 -0.1559  0.0001  0.0074
10285TIP3    H252347   5.758   1.310   1.967  0.7732 -0.6621  0.4271
10286TIP3   OH252348   5.768   0.071   5.469  0.3980  0.5600 -0.0613
10286TIP3    H152349   5.678   0.056   5.439  0.5100  1.3602 -0.8185
10286TIP3    H252350   5.761   0.148   5.526  1.0242  2.3661 -2.3579
10287TIP3   OH252351   2.355   1.380   0.134 -0.0343 -0.1190  0.0790
10287TIP3    H152352   2.352   1.399   0.227 -1.6938  0.5574 -0.0954
10287TIP3    H252353   2.448   1.373   0.113  0.3997  1.4362  1.4354
10288TIP3   OH252354   2.487   3.157   4.905 -0.0793  0.3123  0.4139
10288TIP3    H152355   2.436   3.095   4.956  0.6381  0.4148  1.2495
10288TIP3    H252356   2.424   3.194   4.842  0.0024 -3.0209 -1.7453
10289TIP3   OH252357   2.498   1.463  16.018 -0.3657  0.5766  0.0370
10289TIP3    H152358   2.529   1.530  16.080 -0.1481 -0.1092  0.6779
10289TIP3    H252359   2.472   1.389  16.074  1.2210 -0.6100 -0.7597
10290TIP3   OH252360   1.925   0.704  15.511 -0.0881 -0.0400  0.0915
10290TIP3    H152361   1.859   0.753  15.560 -1.1562  0.0591 -1.4324
10290TIP3    H252362   1.982   0.666  15.579 -1.0660  0.7548  1.3723
10291TIP3   OH252363   4.896   0.961   5.529 -0.1033 -0.0722 -0.2332
10291TIP3    H152364   4.977   1.008   5.513  1.0422 -1.8460  0.2369
10291TIP3    H252365   4.902   0.882   5.476 -0.5787 -1.2236  1.3595
10292TIP3   OH252366   5.629   5.053   2.984  0.3129 -0.1823  0.0166
10292TIP3    H152367   5.690   5.036   2.912 -0.5574  1.1305 -1.0589
10292TIP3    H252368   5.550   5.004   2.961  0.1310  0.0083  0.2291
10293TIP3   OH252369   3.579   2.430   4.496  0.5964 -0.5241 -0.0417
10293TIP3    H152370   3.625   2.368   4.554  0.5314  0.7104  1.3727
10293TIP3    H252371   3.556   2.503   4.554 -0.4931  0.2195 -1.4044
10294TIP3   OH252372   5.936   5.053   1.137 -0.0696  0.0605 -0.4184
10294TIP3    H152373   5.844   5.072   1.118 -0.4074 -0.5846  0.5511
10294TIP3    H252374   5.963   5.122   1.197 -0.1578 -0.2056 -0.0670
10295TIP3   OH252375   5.041   1.636   5.327  0.1016  0.5148  0.1468
10295TIP3    H152376   5.033   1.597   5.415  4.6777 -0.7406  0.1631
10295TIP3    H252377   5.084   1.568   5.275  0.8580  2.6260 -2.0656
10296TIP3   OH252378   2.323   1.549   5.492 -0.2968 -0.0285 -0.5029
10296TIP3    H152379   2.348   1.637   5.465 -1.5161  0.0903 -1.2565
10296TIP3    H252380   2.356   1.541   5.582  2.5708  0.0499 -1.5043
10297TIP3   OH252381   2.286   1.212   0.779 -0.3193  0.4423 -0.2970
10297TIP3    H152382   2.229   1.164   0.718 -0.8539  0.4010  0.2349
10297TIP3    H252383   2.298   1.297   0.737 -1.3507  0.7011 -0.0760
10298TIP3   OH252384   6.150   3.451   4.440  0.0414  0.1454 -0.2299
10298TIP3    H152385   6.130   3.357   4.433 -0.3023  0.3717 -2.9029
10298TIP3    H252386   6.237   3.454   4.480 -0.7488 -1.2258  1.6879
10299TIP3   OH252387   3.584   1.496   0.046 -0.2518 -0.8539  0.1845
10299TIP3    H152388   3.583   1.422   0.107  2.2540 -0.5745  0.6082
10299TIP3    H252389   3.657   1.477  -0.013 -0.3413  0.6967 -0.4383
10300TIP3   OH252390   3.740   6.547  16.294 -0.1308  0.0787 -0.2965
10300TIP3    H152391   3.774   6.571  16.208 -1.4369 -0.3361 -0.9457
10300TIP3    H252392   3.679   6.618  16.315  1.2674  0.9330  0.9505
10301TIP3   OH252393   3.104   0.331  14.679  0.0088 -0.2515 -0.2799
10301TIP3    H152394   3.123   0.237  14.674 -0.3434 -0.3806  0.6667
10301TIP3    H252395   3.028   0.337  14.737  0.6472  0.7019  0.4584
10302TIP3   OH252396   2.812   4.333  16.094 -0.6826  0.1728  0.6423
10302TIP3    H152397   2.845   4.423  16.103 -0.4138 -0.0279  1.6857
10302TIP3    H252398   2.855   4.300  16.015 -0.2773  0.7462  0.6140
10303TIP3   OH252399   4.450   3.736   4.348 -0.5582  0.2268 -0.1501
10303TIP3    H152400   4.465   3.819   4.393 -1.3531 -0.6896  1.9059
10303TIP3    H252401   4.407   3.681   4.414  1.0493 -2.2077 -1.0591
10304TIP3   OH252402   2.631   3.074   2.967 -0.3394  0.1130  0.3866
10304TIP3    H152403   2.639   2.979   2.975 -0.8224  0.1313  1.1227
10304TIP3    H252404   2.591   3.088   2.881  1.5113 -0.2615 -0.5566
10305TIP3   OH252405   4.305   3.526   2.605 -1.4032  0.2896 -0.2152
10305TIP3    H152406   4.386   3.567   2.573 -0.1005 -0.6195  1.8502
10305TIP3    H252407   4.271   3.480   2.528  0.7034 -0.3613 -0.7935
10306TIP3   OH252408   6.764   4.991  12.313 -0.2375 -0.3188  0.0825
10306TIP3    H152409   6.706   4.934  12.364 -2.4692  0.4050 -1.5615
10306TIP3    H252410   6.722   5.077  12.317  0.8917  0.2898 -0.9242
10307TIP3   OH252411   0.284   3.825  10.895 -0.3694  0.3376 -0.0203
10307TIP3    H152412   0.334   3.807  10.975 -1.2220  0.1343  0.4792
10307TIP3    H252413   0.315   3.760  10.832  0.7012  0.8531 -0.0284
10308TIP3   OH252414   2.145   3.120   0.544  0.2678  0.1976 -0.2050
10308TIP3    H152415   2.065   3.071   0.562  0.8693 -1.3050 -1.4943
10308TIP3    H252416   2.210   3.084   0.605 -0.2208  1.9808  1.4088
10309TIP3   OH252417   1.210   5.648  11.671 -0.0589  0.4568  0.1077
10309TIP3    H152418   1.204   5.558  11.704 -1.7771  0.9769  1.2121
10309TIP3    H252419   1.302   5.672  11.684  0.0765 -0.6066  1.1807
10310TIP3   OH252420   2.644   0.152  15.717  0.4403  0.1842  0.6289
10310TIP3    H152421   2.587   0.146  15.640  0.1922 -0.1038  0.8347
10310TIP3    H252422   2.690   0.068  15.719  3.4999  1.6987 -1.5934
10311TIP3   OH252423   2.504   2.272   5.607 -0.2029 -0.2111  0.2777
10311TIP3    H152424   2.509   2.212   5.533  0.9013  1.0210 -0.6872
10311TIP3    H252425   2.432   2.239   5.661 -0.5620 -1.5302 -0.9855
10312TIP3   OH252426   6.556   0.404   0.447 -0.2537 -0.4504 -0.0435
10312TIP3    H152427   6.632   0.399   0.388  0.9724  0.8990  1.3701
10312TIP3    H252428   6.493   0.344   0.409  1.7441 -2.0493 -0.9422
10313TIP3   OH252429   5.378   5.058   3.394  0.7484  0.1028 -0.0339
10313TIP3    H152430   5.326   5.127   3.434  0.3283  0.3179 -0.9243
10313TIP3    H252431   5.455   5.103   3.359  1.3991 -0.1719  1.0400
10314TIP3   OH252432   4.210   1.527  12.923  0.0577 -0.2880  0.2853
10314TIP3    H152433   4.268   1.575  12.982  1.6275 -0.5808 -1.0151
10314TIP3    H252434   4.188   1.589  12.854  2.0253 -1.3790 -1.3566
10315TIP3   OH252435   4.736   1.494   0.189  0.3651 -0.5633  0.0780
10315TIP3    H152436   4.657   1.524   0.145 -0.6208 -4.0946 -0.6993
10315TIP3    H252437   4.713   1.492   0.282 -1.3126 -3.8059 -0.3441
10316TIP3   OH252438   0.071   5.831  11.667  0.4825 -0.6349  0.5989
10316TIP3    H152439  -0.020   5.807  11.651 -0.0832  1.4400  0.5701
10316TIP3    H252440   0.089   5.900  11.604  1.0305  1.2544  2.7554
10317TIP3   OH252441   5.522   5.859  17.063  0.2868  0.3908 -0.3357
10317TIP3    H152442   5.463   5.913  17.012  2.5023  1.5151 -1.8012
10317TIP3    H252443   5.607   5.901  17.055  1.4037 -1.3997  1.3659
10318TIP3   OH252444   4.476   2.380   5.922  0.4203 -0.2113  0.0499
10318TIP3    H152445   4.506   2.470   5.909 -0.0443  0.1160  1.2042
10318TIP3    H252446   4.506   2.334   5.843  2.6732  0.4373  0.4669
10319TIP3   OH252447   5.105   2.692   2.770 -0.4452  0.2116 -0.1978
10319TIP3    H152448   5.021   2.656   2.797 -2.1553  2.9716 -1.6653
10319TIP3    H252449   5.135   2.631   2.702 -1.6010 -0.3910 -0.1847
10320TIP3   OH252450   1.493   6.389   4.685  0.3989  0.0086  0.4673
10320TIP3    H152451   1.583   6.364   4.665  0.3775 -0.7368  1.2738
10320TIP3    H252452   1.452   6.403   4.599  1.4546  1.0044  0.1203
10321TIP3   OH252453   1.772   4.048  15.236 -0.4996 -0.2557 -0.0122
10321TIP3    H152454   1.798   4.134  15.269  0.8688 -0.7037  0.1089
10321TIP3    H252455   1.774   3.991  15.313  2.1182 -1.1696 -0.6867
10322TIP3   OH252456   3.816   3.000   3.961 -0.1153  0.3279  0.5616
10322TIP3    H152457   3.898   2.950   3.961  0.6579  1.5511  0.2837
10322TIP3    H252458   3.801   3.022   3.869  0.8727  2.6505  0.9068
10323TIP3   OH252459   6.521   2.898  16.339 -0.3819  0.6813  0.0000
10323TIP3    H152460   6.508   2.818  16.289  0.3973  0.6876 -0.2070
10323TIP3    H252461   6.512   2.871  16.431 -0.7436  0.4800 -0.0966
10324TIP3   OH252462   3.013   0.120  15.649 -0.4090  0.2117 -0.0903
10324TIP3    H152463   3.084   0.156  15.595  0.2580  2.5060  2.2273
10324TIP3    H252464   2.973   0.053  15.594  0.0785  2.6285 -3.5387
10325TIP3   OH252465   4.541   1.325   5.338 -0.2118 -0.1804  0.2372
10325TIP3    H152466   4.510   1.335   5.249 -1.3626  1.4143  0.7970
10325TIP3    H252467   4.486   1.256   5.375  0.2273 -0.8004 -0.2520
10326TIP3   OH252468   5.698   2.087  12.349  0.1763  0.2349  0.5903
10326TIP3    H152469   5.781   2.051  12.316  0.1994  1.2532 -0.4987
10326TIP3    H252470   5.707   2.182  12.337 -0.5691  0.4638  1.8252
10327TIP3   OH252471   2.223   2.845  14.454  0.5310  0.7235 -0.6753
10327TIP3    H152472   2.154   2.800  14.406  1.1016 -1.3240  0.3735
10327TIP3    H252473   2.274   2.890  14.386 -0.2841  0.1228 -1.7053
10328TIP3   OH252474   0.627   5.888  15.533 -0.9779 -0.0849 -0.2593
10328TIP3    H152475   0.616   5.927  15.446 -0.3202 -0.7778 -0.6682
10328TIP3    H252476   0.587   5.950  15.593 -1.7342  0.2482 -1.0959
10329TIP3   OH252477   1.514   5.260  11.393  0.4982  0.4775 -0.4005
10329TIP3    H152478   1.432   5.310  11.399 -0.9721 -1.3789 -3.3251
10329TIP3    H252479   1.546   5.277  11.304  2.1790 -0.4587  0.0051
10330TIP3   OH252480   1.539   0.805   2.204 -0.2185  0.4554 -0.2153
10330TIP3    H152481   1.477   0.731   2.201 -0.4934  0.6529  0.3358
10330TIP3    H252482   1.487   0.877   2.240  0.5382  0.4058  1.0032
10331TIP3   OH252483   3.652   4.280  10.387  0.0078  0.0260 -0.3520
10331TIP3    H152484   3.737   4.267  10.344 -0.5263  0.2340 -1.5013
10331TIP3    H252485   3.600   4.204  10.359  0.1616 -0.6974  1.2639
10332TIP3   OH252486   4.879   1.725  12.899 -0.7980 -0.2700  0.3669
10332TIP3    H152487   4.926   1.741  12.817  0.2956  0.1998  1.0701
10332TIP3    H252488   4.817   1.797  12.905  0.4559  0.7992  0.8879
10333TIP3   OH252489   2.669   2.390  13.841  0.3903  0.5732  0.5954
10333TIP3    H152490   2.754   2.346  13.842  0.3389  0.4714  0.4327
10333TIP3    H252491   2.615   2.337  13.782  0.3138  0.8307  0.4381
10334TIP3   OH252492   0.916   0.109   2.699 -0.1324 -0.6851  0.5804
10334TIP3    H152493   0.884   0.158   2.624 -0.2328 -0.2054  0.9365
10334TIP3    H252494   1.002   0.147   2.718  0.5993 -1.8679 -0.2832
10335TIP3   OH252495   4.678   0.097   0.130  0.3487 -0.2653  0.4521
10335TIP3    H152496   4.706   0.167   0.188  2.9704 -0.9012  0.0048
10335TIP3    H252497   4.639   0.142   0.055  1.7513  0.7159  0.3005
10336TIP3   OH252498   5.893   6.089   3.955 -0.9468 -0.3584  0.0195
10336TIP3    H152499   5.956   6.036   3.906  1.7507 -0.9266  3.8967
10336TIP3    H252500   5.923   6.179   3.943  1.3809 -0.6987  2.6984
10337TIP3   OH252501   5.780   6.624  13.095  0.0056 -0.0957 -0.7178
10337TIP3    H152502   5.828   6.607  13.014 -1.4461  1.2995 -1.8977
10337TIP3    H252503   5.748   6.714  13.086 -0.1022  0.1109  1.4431
10338TIP3   OH252504   4.036   4.120  14.385  0.3174 -0.0957  0.1460
10338TIP3    H152505   3.972   4.135  14.454  0.2087 -0.5856  0.1518
10338TIP3    H252506   4.094   4.052  14.419  0.1127 -0.5249 -0.3336
10339TIP3   OH252507   1.474   0.680  13.733  0.0967  0.3984  0.2187
10339TIP3    H152508   1.529   0.639  13.666 -0.9198  0.9227 -0.9682
10339TIP3    H252509   1.488   0.774  13.722  1.0100  0.4447  1.7062
10340TIP3   OH252510   0.628   4.692   3.206  0.1478 -0.1536  0.1638
10340TIP3    H152511   0.704   4.649   3.167 -1.3565 -2.6323 -0.1114
10340TIP3    H252512   0.644   4.786   3.191  2.0657 -0.7486 -1.8475
10341TIP3   OH252513   2.936   5.876  11.588 -0.3161  0.0503  0.1654
10341TIP3    H152514   3.015   5.886  11.642 -0.0349  0.1505 -0.2577
10341TIP3    H252515   2.948   5.792  11.544  0.0303  0.5232 -0.6607
10342TIP3   OH252516   3.814   5.836   0.182 -0.3870 -0.1660  0.1809
10342TIP3    H152517   3.777   5.863   0.099 -1.8225  0.9896  1.1734
10342TIP3    H252518   3.909   5.850   0.172 -0.7630  2.2144 -0.4659
10343TIP3   OH252519   0.077   2.280  14.754 -0.1493  0.3412 -0.3682
10343TIP3    H152520   0.068   2.234  14.838  1.6991  0.3738 -0.1390
10343TIP3    H252521   0.056   2.214  14.688 -1.4981  0.2815  0.0978
10344TIP3   OH252522   0.621   4.181   2.466  0.7081 -0.1884  0.6004
10344TIP3    H152523   0.642   4.199   2.558 -2.2023  3.2891  0.6666
10344TIP3    H252524   0.678   4.240   2.417  0.1470  0.0908  0.2891
10345TIP3   OH252525   1.012   1.139   2.861 -0.0095 -0.4392  0.1818
10345TIP3    H152526   0.930   1.093   2.846 -0.2191 -0.1777  0.5040
10345TIP3    H252527   1.021   1.141   2.956 -0.2327  0.5759  0.1917
10346TIP3   OH252528   1.764   0.025   3.843 -0.0480 -0.0520  0.4374
10346TIP3    H152529   1.707  -0.032   3.895  1.5458 -0.2457  2.0178
10346TIP3    H252530   1.766  -0.016   3.756 -2.1979 -0.0992  0.3763
10347TIP3   OH252531   0.705   5.265  15.625 -0.1310 -0.3287 -0.1063
10347TIP3    H152532   0.692   5.170  15.629 -1.2357 -0.2809 -1.8200
10347TIP3    H252533   0.633   5.296  15.570  0.2296  1.5117  0.4286
10348TIP3   OH252534   4.310   6.807   3.476 -0.0527  0.4617 -0.6101
10348TIP3    H152535   4.261   6.773   3.551 -1.3273  0.0979 -1.6050
10348TIP3    H252536   4.400   6.778   3.492 -0.5963 -0.9325 -0.0068
10349TIP3   OH252537   2.309   0.191  15.530  0.1951  0.0652 -0.2620
10349TIP3    H152538   2.387   0.196  15.473 -0.2015 -0.1815 -0.8333
10349TIP3    H252539   2.344   0.170  15.616  0.7932  0.2489 -0.4563
10350TIP3   OH252540   4.073   3.873  14.154 -0.0383 -0.3440 -0.4528
10350TIP3    H152541   3.998   3.933  14.148 -0.8981 -1.3713 -0.0606
10350TIP3    H252542   4.034   3.786  14.158  1.1818 -0.8821 -0.1414
10351TIP3   OH252543   1.786   5.103  17.066  0.4506  0.9335 -0.0880
10351TIP3    H152544   1.754   5.187  17.032 -0.9122  0.5595  0.2680
10351TIP3    H252545   1.722   5.076  17.131  1.2163 -0.0828  0.2694
10352TIP3   OH252546   5.081   6.644  17.275 -0.1335 -0.0991 -0.7339
10352TIP3    H152547   5.099   6.637  17.181 -1.2580  1.4589 -1.0717
10352TIP3    H252548   5.002   6.593  17.288 -1.5573  1.9583 -1.1337
10353TIP3   OH252549   5.229   3.551   4.410  0.7846 -0.1754 -0.5169
10353TIP3    H152550   5.226   3.491   4.335  1.2380 -0.2074 -0.5139
10353TIP3    H252551   5.304   3.520   4.462  0.1776 -0.4533  0.2031
10354TIP3   OH252552   4.019   5.368  12.637 -0.0113  0.1463  0.1067
10354TIP3    H152553   4.039   5.461  12.620 -0.6669  0.2911  0.1363
10354TIP3    H252554   4.085   5.320  12.586 -1.1923  0.5971 -1.8792
10355TIP3   OH252555   3.687   3.837  12.365 -0.1548 -0.5161  0.2477
10355TIP3    H152556   3.625   3.768  12.386  0.3383 -1.1625 -0.3844
10355TIP3    H252557   3.662   3.867  12.278 -0.1418 -0.1419  0.3686
10356TIP3   OH252558   3.218   6.665  15.500  0.6344  0.2440  0.0692
10356TIP3    H152559   3.201   6.576  15.468  2.2185 -0.7968  2.0100
10356TIP3    H252560   3.132   6.698  15.526  0.3126 -1.4910  1.2373
10357TIP3   OH252561   2.630   3.641   1.819  0.2611  0.9060  0.0714
10357TIP3    H152562   2.597   3.644   1.729 -1.5500 -1.9629  0.6034
10357TIP3    H252563   2.552   3.640   1.874  1.2003 -3.0984  1.4626
10358TIP3   OH252564   3.148   3.413  14.062 -0.3554  0.1725  0.6615
10358TIP3    H152565   3.201   3.344  14.103 -0.1090 -0.7182 -1.1196
10358TIP3    H252566   3.196   3.494  14.082  0.8325 -0.4580  0.4454
10359TIP3   OH252567   4.465   5.331  12.270 -0.6921 -0.3600 -0.0995
10359TIP3    H152568   4.465   5.324  12.175  2.2931  2.2252 -0.3841
10359TIP3    H252569   4.521   5.260  12.300 -1.0228 -0.7121 -0.3109
10360TIP3   OH252570   4.160   5.177   4.807 -0.1407 -0.3203  0.1797
10360TIP3    H152571   4.103   5.101   4.797 -0.9096  0.4586 -1.6048
10360TIP3    H252572   4.103   5.245   4.843  0.2108 -0.1859  0.4856
10361TIP3   OH252573   4.105   5.047  16.616 -0.0891 -0.2541  0.3628
10361TIP3    H152574   4.122   4.953  16.609  0.9081 -0.0603  0.0698
10361TIP3    H252575   4.071   5.059  16.705 -1.5641 -1.0858 -0.0776
10362TIP3   OH252576   3.566   3.194  15.363  0.3336 -0.4166 -0.1649
10362TIP3    H152577   3.487   3.198  15.310  0.4771  1.1446 -0.3056
10362TIP3    H252578   3.633   3.161  15.303 -0.8389 -4.9034  0.8190
10363TIP3   OH252579   2.038   4.952  14.347 -0.4959  1.0295 -0.4948
10363TIP3    H152580   2.075   4.883  14.291 -0.9013 -0.1094  0.6036
10363TIP3    H252581   2.114   4.989  14.393 -0.5061 -0.3242  0.6764
10364TIP3   OH252582   6.381   1.655  14.842 -0.5083 -0.7390 -0.0024
10364TIP3    H152583   6.453   1.689  14.897 -1.4693 -0.6514  1.2252
10364TIP3    H252584   6.406   1.564  14.825  1.1359 -0.0115 -1.7113
10365TIP3   OH252585   2.192   0.565   2.723 -0.0811  0.2788 -0.0516
10365TIP3    H152586   2.225   0.511   2.795 -1.3934  0.2010  0.5180
10365TIP3    H252587   2.162   0.646   2.765 -0.1980  0.5276 -0.6025
10366TIP3   OH252588   2.741   5.416  10.143 -0.4794  0.1102 -0.1320
10366TIP3    H152589   2.662   5.418  10.198 -0.3409 -0.4263  0.0919
10366TIP3    H252590   2.791   5.342  10.176 -0.4550 -0.2997 -1.0758
10367TIP3   OH252591   4.902   1.689  13.377  0.0235 -0.4361 -0.0776
10367TIP3    H152592   4.816   1.651  13.357  0.6253 -1.0369 -1.6209
10367TIP3    H252593   4.941   1.627  13.439 -2.0614  1.6962  3.5118
10368TIP3   OH252594   1.892   3.397   6.006 -0.0461  0.0144  0.5184
10368TIP3    H152595   1.848   3.336   6.064  1.6295 -1.6532  0.0531
10368TIP3    H252596   1.931   3.343   5.938  2.2592  1.5026  0.6044
10369TIP3   OH252597   3.778   3.588   4.686 -0.0693  0.5944 -0.0082
10369TIP3    H152598   3.692   3.549   4.699  1.6132 -4.0358 -1.4748
10369TIP3    H252599   3.761   3.671   4.643 -3.8982  1.1863  2.4467
10370TIP3   OH252600   5.310   0.855   1.781  0.4393 -0.5251  0.2834
10370TIP3    H152601   5.236   0.795   1.772 -0.1194 -0.1217  2.0823
10370TIP3    H252602   5.270   0.941   1.786  1.1017 -0.2126  0.2384
10371TIP3   OH252603   4.897   0.247   0.529 -0.2155 -0.1616  0.0639
10371TIP3    H152604   4.990   0.226   0.521 -0.1987  0.3511 -1.3066
10371TIP3    H252605   4.895   0.343   0.535 -0.4903 -0.3214  2.8357
10372TIP3   OH252606   4.821   2.279   3.818 -0.2802 -0.1359 -0.1965
10372TIP3    H152607   4.728   2.259   3.819  0.0449 -2.0677 -2.1841
10372TIP3    H252608   4.862   2.205   3.863  0.2943  0.6394  0.5619
10373TIP3   OH252609   1.441   1.922   3.707  0.0361  0.3902  0.0540
10373TIP3    H152610   1.461   1.989   3.641  2.2504 -0.4169 -0.1191
10373TIP3    H252611   1.457   1.839   3.662  0.0088 -0.2043  1.1253
10374TIP3   OH252612   2.211   1.431   4.561 -0.3831 -0.1645  0.7399
10374TIP3    H152613   2.217   1.345   4.602  0.5563 -0.0922  0.7622
10374TIP3    H252614   2.268   1.425   4.484 -1.7202 -0.1328 -0.2719
10375TIP3   OH252615   2.208   4.326  11.913  0.4203  0.2522  0.6401
10375TIP3    H152616   2.264   4.252  11.888 -0.0804 -0.2918  1.1080
10375TIP3    H252617   2.184   4.367  11.830  0.8529 -0.0026  0.3872
10376TIP3   OH252618   2.279   1.836  16.946  0.4605 -0.0879  0.2171
10376TIP3    H152619   2.209   1.772  16.939 -0.3028  0.7907 -0.3094
10376TIP3    H252620   2.291   1.850  17.040  1.4299 -1.8552  0.3706
10377TIP3   OH252621   0.550   6.586  11.077 -0.0457  0.6706 -0.4025
10377TIP3    H152622   0.576   6.496  11.056 -0.3390  1.0343 -2.3788
10377TIP3    H252623   0.597   6.640  11.014 -0.7799  1.8179  0.0220
10378TIP3   OH252624   5.381   5.010   4.766  0.5606 -0.4973 -0.4329
10378TIP3    H152625   5.316   5.031   4.834  1.3581  0.9344 -0.0901
10378TIP3    H252626   5.336   5.029   4.684  0.5459  0.5708 -0.1956
10379TIP3   OH252627   1.035   3.997  15.684 -0.1792 -0.2605  0.3139
10379TIP3    H152628   0.994   3.913  15.705  0.3167 -0.8219 -0.9489
10379TIP3    H252629   1.123   3.974  15.654 -0.4860  0.5972 -1.2994
10380TIP3   OH252630   5.577   6.213   5.845 -0.1811 -0.2765  0.4630
10380TIP3    H152631   5.526   6.209   5.926 -0.6457 -4.6314  0.0861
10380TIP3    H252632   5.552   6.296   5.805 -2.7164  0.2753  3.0221
10381TIP3   OH252633   1.726   0.264   4.168 -0.2022  0.0150 -0.3319
10381TIP3    H152634   1.696   0.309   4.247 -0.0971 -0.9403  0.2583
10381TIP3    H252635   1.783   0.328   4.125 -2.3190  1.4980 -0.9863
10382TIP3   OH252636   1.972   6.269   2.768  0.7385  0.0546 -0.4176
10382TIP3    H152637   1.970   6.314   2.852  4.4268 -1.8631  0.8044
10382TIP3    H252638   1.937   6.182   2.786  0.8811 -0.1293 -1.0206
10383TIP3   OH252639   3.630   0.071  14.595 -0.1955 -0.4327 -0.1568
10383TIP3    H152640   3.708   0.022  14.619 -0.5140 -0.2913  1.2028
10383TIP3    H252641   3.658   0.163  14.598 -0.4871 -0.3682  0.6107
10384TIP3   OH252642   0.791   4.682   5.040  0.3020 -0.0324 -0.4065
10384TIP3    H152643   0.700   4.707   5.020  0.6075 -0.2492 -2.1968
10384TIP3    H252644   0.839   4.704   4.960  2.1664  1.7755  1.1581
10385TIP3   OH252645   1.897   3.763   4.481 -0.2824  0.8674 -0.2560
10385TIP3    H152646   1.942   3.798   4.404 -1.1978  0.3601 -1.0489
10385TIP3    H252647   1.856   3.682   4.449  1.5554 -0.7817  1.4645
10386TIP3   OH252648   0.005   2.762   6.024 -0.2556  0.0354 -0.1485
10386TIP3    H152649  -0.017   2.804   6.107  0.4018  1.3857 -0.6394
10386TIP3    H252650  -0.071   2.707   6.004 -0.9658  0.6915  0.7162
10387TIP3   OH252651   5.188   4.854  13.938 -0.4249  0.2109  0.6890
10387TIP3    H152652   5.136   4.926  13.974 -1.2632 -0.8670  1.7001
10387TIP3    H252653   5.172   4.856  13.844 -0.1885  1.5420  0.6759
10388TIP3   OH252654   2.468   4.676   4.747  0.6168  0.2395  0.0641
10388TIP3    H152655   2.403   4.620   4.790  2.3166 -1.8639 -0.0280
10388TIP3    H252656   2.524   4.705   4.819  2.3858 -1.8303 -0.4107
10389TIP3   OH252657   0.784   1.310   1.182 -0.1636  0.0822 -0.1667
10389TIP3    H152658   0.714   1.291   1.120 -0.6345 -1.7457  0.8840
10389TIP3    H252659   0.757   1.391   1.226 -1.9723 -0.9569  0.7038
10390TIP3   OH252660   5.881   0.453  14.261 -0.2991 -0.1986  0.0753
10390TIP3    H152661   5.951   0.509  14.294  0.5396 -0.3873 -1.3199
10390TIP3    H252662   5.884   0.376  14.317 -0.1904  0.3224  0.7937
10391TIP3   OH252663   0.342   6.643  13.774  0.1459 -0.6888  0.1783
10391TIP3    H152664   0.357   6.706  13.704 -1.4044 -0.9693 -0.4145
10391TIP3    H252665   0.358   6.693  13.854  0.5729  0.0034 -0.3314
10392TIP3   OH252666   3.920   0.357  17.209 -0.2657  0.0318 -0.2083
10392TIP3    H152667   3.887   0.331  17.123 -1.1138  0.9644 -0.1841
10392TIP3    H252668   3.979   0.430  17.191  0.9563 -0.9423 -0.1523
10393TIP3   OH252669   1.554   4.785   2.607 -0.4657 -0.0457  0.1075
10393TIP3    H152670   1.517   4.822   2.527 -1.8200 -0.5694  0.4820
10393TIP3    H252671   1.555   4.858   2.669 -1.7768 -0.2672  0.3942
10394TIP3   OH252672   3.494   4.203   2.743  0.4101 -0.3519  0.1934
10394TIP3    H152673   3.417   4.180   2.691 -0.0113  2.4340 -0.5032
10394TIP3    H252674   3.459   4.219   2.831  0.8062 -2.9249  0.8554
10395TIP3   OH252675   4.051   4.954   0.867  0.5836 -0.2309  0.0815
10395TIP3    H152676   4.110   4.899   0.918  0.1242  0.1843  1.0651
10395TIP3    H252677   4.060   5.042   0.905 -0.3808 -0.0871 -0.0050
10396TIP3   OH252678   2.983   2.495  14.007  0.9302 -0.2999 -0.0120
10396TIP3    H152679   3.023   2.413  14.037  0.2836 -0.0022  1.7191
10396TIP3    H252680   2.893   2.490  14.038  0.9716  1.2119  0.3882
10397TIP3   OH252681   1.394   3.198   2.265  0.2086 -0.2123 -0.5660
10397TIP3    H152682   1.376   3.289   2.289  1.7620 -0.5693  2.0582
10397TIP3    H252683   1.314   3.151   2.289  0.1718  0.1187 -0.0349
10398TIP3   OH252684   5.525   0.937  16.787  0.1417 -0.9863  0.3715
10398TIP3    H152685   5.557   0.887  16.712 -0.5125  0.2415 -0.7288
10398TIP3    H252686   5.430   0.940  16.776  0.0408 -0.7261  1.2149
10399TIP3   OH252687   5.192   6.172   3.082 -0.1229 -0.0560 -0.0948
10399TIP3    H152688   5.222   6.197   3.170 -2.0475 -2.2044  1.2306
10399TIP3    H252689   5.145   6.249   3.050  0.0528  0.5379  1.0345
10400TIP3   OH252690   0.672   4.737  14.525 -0.3293  0.1617 -0.1236
10400TIP3    H152691   0.628   4.696  14.451 -0.8313 -1.5332  1.0985
10400TIP3    H252692   0.731   4.670  14.560 -1.9694  0.0524  2.5832
10401TIP3   OH252693   6.355   2.408  15.652 -0.5147 -0.4556 -0.1597
10401TIP3    H152694   6.407   2.484  15.679  0.3498 -1.0646 -0.0851
10401TIP3    H252695   6.414   2.357  15.597 -2.3064  0.8320 -3.3921
10402TIP3   OH252696   5.503   1.809   2.945  0.1024 -0.0136 -0.3148
10402TIP3    H152697   5.531   1.901   2.939 -0.7380  0.3155  0.6631
10402TIP3    H252698   5.553   1.773   3.018  0.2127 -0.2604 -0.5109
10403TIP3   OH252699   2.629   0.451  15.538  0.5805  0.7089 -0.1724
10403TIP3    H152700   2.606   0.544  15.539 -1.7163  0.2332 -2.7671
10403TIP3    H252701   2.555   0.408  15.580  1.7712  0.0402  1.2829
10404TIP3   OH252702   3.833   4.335  10.780  0.0779 -0.2523 -0.4204
10404TIP3    H152703   3.878   4.371  10.703 -0.3621  1.9341  0.3337
10404TIP3    H252704   3.740   4.350  10.763 -0.0989 -0.8264  0.0213
10405TIP3   OH252705   4.947   6.422  10.427 -0.6324  0.0657  0.5279
10405TIP3    H152706   4.966   6.330  10.449 -0.8393  0.4919  2.6824
10405TIP3    H252707   4.851   6.426  10.423 -0.6918  0.4450  1.8412
10406TIP3   OH252708   5.149   3.121   4.557 -0.6238 -0.3375 -0.1072
10406TIP3    H152709   5.147   3.044   4.614  0.0284 -0.5983 -0.4279
10406TIP3    H252710   5.157   3.195   4.617  0.2144 -0.6203  0.1438
10407TIP3   OH252711   0.069   2.787  12.356  0.0524 -0.0016  0.2440
10407TIP3    H152712   0.142   2.817  12.410 -1.8332 -0.5297  3.1650
10407TIP3    H252713   0.012   2.863  12.349 -0.7695 -0.5565  0.8399
10408TIP3   OH252714   3.317   1.251   4.227 -0.1298 -0.2759 -0.2654
10408TIP3    H152715   3.234   1.272   4.272 -0.5523  0.8615 -1.5510
10408TIP3    H252716   3.298   1.172   4.177 -0.8265  0.7229 -1.5892
10409TIP3   OH252717   1.145   2.906  14.635  0.3342 -0.4865  0.0303
10409TIP3    H152718   1.054   2.928  14.654 -0.1532 -3.0130  0.7205
10409TIP3    H252719   1.196   2.961  14.695 -0.6795  1.2648 -0.6684
10410TIP3   OH252720   3.689   3.430  16.057  0.1157  0.1509 -0.8872
10410TIP3    H152721   3.620   3.434  15.990 -1.5219 -1.0861  0.7005
10410TIP3    H252722   3.756   3.374  16.018  0.6072  1.9551 -2.7483
10411TIP3   OH252723   1.215   2.757   2.979 -0.1408 -0.2583 -0.0274
10411TIP3    H152724   1.306   2.730   2.965 -0.4553 -0.4528 -1.8416
10411TIP3    H252725   1.201   2.828   2.916 -1.0612  0.1910  0.6746
10412TIP3   OH252726   6.587   5.830  13.907 -0.1731  0.5486 -0.1812
10412TIP3    H152727   6.603   5.735  13.901 -0.7086  0.4107  0.5741
10412TIP3    H252728   6.662   5.869  13.862 -0.8382 -0.2848 -2.0591
10413TIP3   OH252729   6.524   3.486  13.667  0.5940  0.4622  0.3276
10413TIP3    H152730   6.433   3.476  13.696  0.6424  1.0444  0.6829
10413TIP3    H252731   6.517   3.513  13.575  0.4029  1.1265  0.5424
10414TIP3   OH252732   1.310   3.337  14.882 -0.7473  0.0066 -0.0438
10414TIP3    H152733   1.405   3.323  14.877 -0.7656  0.3296 -1.5105
10414TIP3    H252734   1.301   3.431  14.900 -0.7994  0.1278 -0.6961
10415TIP3   OH252735   3.301   1.828   3.489  0.3911 -0.1167  0.2656
10415TIP3    H152736   3.254   1.826   3.406 -1.1802 -2.8902  1.1787
10415TIP3    H252737   3.234   1.841   3.555  1.3499 -0.4077  1.3173
10416TIP3   OH252738   2.581   5.085  15.536 -0.0899  0.4530  0.2440
10416TIP3    H152739   2.509   5.148  15.542 -0.2565  0.2457  0.4213
10416TIP3    H252740   2.611   5.074  15.626  0.9358  1.4296  0.0415
10417TIP3   OH252741   3.802   0.522  14.156 -0.0233 -0.0653 -0.1130
10417TIP3    H152742   3.844   0.579  14.091 -0.4004 -1.1025 -1.2811
10417TIP3    H252743   3.819   0.433  14.125  0.0311 -0.5860  1.3674
10418TIP3   OH252744   1.664   2.167   5.040  0.1164  0.3868 -0.2901
10418TIP3    H152745   1.589   2.145   4.985 -1.6542  2.9008  0.9704
10418TIP3    H252746   1.739   2.128   4.996 -2.1884 -4.3901 -0.3037
10419TIP3   OH252747   0.359   0.847  14.707  0.2649 -0.6019  0.0770
10419TIP3    H152748   0.341   0.916  14.643  0.4519 -0.8493 -0.2421
10419TIP3    H252749   0.382   0.771  14.654  0.4665 -0.7917  0.4391
10420TIP3   OH252750   5.023   5.829  13.318 -0.5453 -0.1249  0.3014
10420TIP3    H152751   5.077   5.856  13.243  0.8952 -2.1300  0.5778
10420TIP3    H252752   4.964   5.763  13.282  0.1077 -1.0463  0.9251
10421TIP3   OH252753   1.459   5.574  16.057  0.0291  0.0383 -1.0327
10421TIP3    H152754   1.409   5.493  16.059 -0.5528  0.4042 -0.1433
10421TIP3    H252755   1.400   5.639  16.096  2.0244 -0.0089  2.3087
10422TIP3   OH252756   5.306   5.237  13.137  0.2449  0.1691  0.1309
10422TIP3    H152757   5.344   5.188  13.064 -0.8297 -0.8625  0.2458
10422TIP3    H252758   5.215   5.210  13.138  0.7487 -1.5838  3.2845
10423TIP3   OH252759   2.138   0.339   0.894  0.8260 -0.6664 -0.1326
10423TIP3    H152760   2.107   0.265   0.946  0.5191 -0.2611  0.2669
10423TIP3    H252761   2.127   0.311   0.803 -2.0465 -0.0011 -0.0344
10424TIP3   OH252762   5.285   4.461   2.033 -0.5569 -0.4964  0.1231
10424TIP3    H152763   5.343   4.391   2.002 -0.4817 -0.1213 -0.5884
10424TIP3    H252764   5.202   4.416   2.050 -0.3755 -0.8423  0.1117
10425TIP3   OH252765   5.887   4.929  11.696 -0.5132  0.1722  0.0060
10425TIP3    H152766   5.890   4.894  11.607 -0.2622 -0.8715  0.4142
10425TIP3    H252767   5.836   5.010  11.689 -0.4474  0.1208 -1.0906
10426TIP3   OH252768   4.562   2.415   3.714  0.7046 -0.1683  0.6294
10426TIP3    H152769   4.527   2.447   3.797 -1.8178  0.6287 -0.6849
10426TIP3    H252770   4.621   2.484   3.684  0.2512  0.3440  0.9085
10427TIP3   OH252771   5.078   5.309   6.071  0.2188 -0.5688  0.1235
10427TIP3    H152772   5.136   5.251   6.120  2.1423  1.5763  0.4189
10427TIP3    H252773   5.126   5.328   5.990 -1.4295 -1.2453 -1.0563
10428TIP3   OH252774   0.883   2.649   3.864 -0.4871 -0.2447 -0.0049
10428TIP3    H152775   0.935   2.664   3.785 -0.8308  3.2855  0.3487
10428TIP3    H252776   0.901   2.725   3.919 -1.1140 -2.1111  2.8666
10429TIP3   OH252777   2.952   3.217  14.210 -0.2808 -0.1312  0.3494
10429TIP3    H152778   2.999   3.282  14.158  1.2680  0.1826  2.1097
10429TIP3    H252779   2.900   3.268  14.271  1.3999 -0.5026  2.1390
10430TIP3   OH252780   1.231   0.268   4.981  0.1920  0.0686  0.3282
10430TIP3    H152781   1.220   0.263   5.076 -0.4939  1.4176  0.3213
10430TIP3    H252782   1.145   0.247   4.946 -0.3279  2.5089  0.0861
10431TIP3   OH252783   6.793   1.537   1.947  0.4975 -0.9161 -0.5131
10431TIP3    H152784   6.770   1.523   1.855 -0.2867 -0.5583 -0.3738
10431TIP3    H252785   6.824   1.451   1.977  2.6791 -0.5591 -1.6427
10432TIP3   OH252786   4.211   4.528   4.912  0.3073 -1.0938  0.4092
10432TIP3    H152787   4.221   4.437   4.883  0.8076 -1.0320  0.3952
10432TIP3    H252788   4.140   4.562   4.857 -0.7392 -1.8348  1.2539
10433TIP3   OH252789   2.466   6.444   4.278 -0.0558  0.4312 -0.1625
10433TIP3    H152790   2.498   6.513   4.337 -1.6776  0.2056  1.0223
10433TIP3    H252791   2.384   6.415   4.318  0.1879 -1.6151 -1.1051
10434TIP3   OH252792   3.442   3.940   3.571  0.1950 -0.1492 -0.2600
10434TIP3    H152793   3.404   3.852   3.564 -0.0230 -0.0730  0.0108
10434TIP3    H252794   3.487   3.952   3.487 -0.6146 -0.1241 -0.6976
10435TIP3   OH252795   6.352   3.932  12.250  0.2631  0.2670  0.0371
10435TIP3    H152796   6.271   3.977  12.272 -0.7350 -1.6126  0.2807
10435TIP3    H252797   6.420   3.980  12.298 -0.9749  0.5417  1.5624
10436TIP3   OH252798   2.788   6.607   0.723 -0.4892 -0.0495  0.4238
10436TIP3    H152799   2.723   6.677   0.720 -0.1840  0.2764  1.3072
10436TIP3    H252800   2.869   6.649   0.694 -0.8405 -0.6657 -1.5361
10437TIP3   OH252801   4.414   4.514   2.446  0.2661 -0.0082  0.0029
10437TIP3    H152802   4.395   4.535   2.537 -0.4341 -1.1810  0.1502
10437TIP3    H252803   4.345   4.556   2.396  0.4481  0.3368  0.0389
10438TIP3   OH252804   5.565   4.909   0.612 -0.7093  0.5660 -0.2446
10438TIP3    H152805   5.536   4.914   0.703 -1.1957 -1.3775 -0.2586
10438TIP3    H252806   5.654   4.872   0.618 -0.6890  0.5684 -0.5582
10439TIP3   OH252807   3.273   1.711  16.364  0.2422 -0.2483  0.8247
10439TIP3    H152808   3.296   1.624  16.396  0.9851 -0.9997 -1.6684
10439TIP3    H252809   3.356   1.750  16.338 -0.2167  0.7875  0.8856
10440TIP3   OH252810   3.938   2.574  13.801  0.1482 -0.3546  0.4186
10440TIP3    H152811   3.922   2.663  13.835  0.7535 -0.5880  1.3441
10440TIP3    H252812   3.990   2.587  13.722  1.2776  0.0711  1.2137
10441TIP3   OH252813   1.371   3.349   0.672  0.1614  0.0095 -0.5826
10441TIP3    H152814   1.300   3.343   0.607  1.4095 -2.0604 -1.8199
10441TIP3    H252815   1.390   3.258   0.694  3.9014  0.3646 -1.9359
10442TIP3   OH252816   4.308   4.960  12.049  0.5865 -0.2069  0.1653
10442TIP3    H152817   4.397   4.959  12.084 -0.2298 -0.7282  2.2639
10442TIP3    H252818   4.304   5.039  11.996  1.8375  0.6032  1.2617
10443TIP3   OH252819   5.315   1.638   2.181  0.4694 -0.0848 -0.1230
10443TIP3    H152820   5.337   1.560   2.131  2.7228 -0.6340  1.6156
10443TIP3    H252821   5.356   1.710   2.133 -1.4567  0.0269 -1.6275
10444TIP3   OH252822   6.080   3.825  12.894 -0.1338  0.1771  0.0960
10444TIP3    H152823   6.018   3.755  12.872  0.3874  0.7966 -3.5403
10444TIP3    H252824   6.163   3.780  12.908 -0.2388 -0.1200 -0.2440
10445TIP3   OH252825   6.345   5.923   4.832  0.1959  0.3265 -0.7746
10445TIP3    H152826   6.307   5.937   4.919  0.5547  2.4850 -0.9374
10445TIP3    H252827   6.361   6.011   4.798  2.5153 -0.5072 -1.9621
10446TIP3   OH252828   1.403   3.100   3.002 -0.2795 -0.1564 -0.1055
10446TIP3    H152829   1.482   3.052   3.027  1.7390  2.8227 -0.4579
10446TIP3    H252830   1.380   3.149   3.081 -1.0225 -0.0365 -0.3950
10447TIP3   OH252831   0.493   6.640   6.546 -0.3895  0.4764 -0.2323
10447TIP3    H152832   0.454   6.617   6.462 -0.2188  1.3594 -0.5563
10447TIP3    H252833   0.428   6.613   6.611 -0.8301  0.4440 -0.6880
10448TIP3   OH252834   0.477   0.943  13.261  0.0888  0.1259 -0.4995
10448TIP3    H152835   0.468   0.933  13.355 -0.6130  0.6532 -0.5044
10448TIP3    H252836   0.562   0.904  13.240  0.4388  0.3954  0.4090
10449TIP3   OH252837   5.346   2.917  13.784  0.5305 -0.6301  0.0202
10449TIP3    H152838   5.371   2.894  13.873  1.9742  0.5944 -0.0468
10449TIP3    H252839   5.425   2.904  13.732 -0.0504 -0.4948 -0.9231
10450TIP3   OH252840   5.548   2.882  11.613  0.4822  0.3206  0.8764
10450TIP3    H152841   5.554   2.794  11.648 -0.7622 -0.1224 -0.0160
10450TIP3    H252842   5.455   2.897  11.598  0.8462  1.0247 -0.8792
10451TIP3   OH252843   3.875   3.870  12.612 -0.3980  0.3384 -0.0031
10451TIP3    H152844   3.911   3.833  12.532 -1.6411 -0.1160 -0.3697
10451TIP3    H252845   3.836   3.954  12.585 -1.4313 -0.1384 -0.0200
10452TIP3   OH252846   5.310   0.282  14.262 -0.6768 -0.1576 -0.0416
10452TIP3    H152847   5.250   0.319  14.326  1.5747  1.6462  1.1392
10452TIP3    H252848   5.350   0.207  14.307 -0.2838  0.1126  0.0585
10453TIP3   OH252849   2.465   6.539  14.450  0.5647 -0.4724 -0.4511
10453TIP3    H152850   2.521   6.602  14.495 -0.4430 -0.1605  0.3724
10453TIP3    H252851   2.444   6.474  14.518 -3.9318  1.9119  0.6059
10454TIP3   OH252852   2.289   6.664   6.025 -0.2214 -0.5002 -0.6261
10454TIP3    H152853   2.243   6.643   5.943 -0.2697  1.4265 -1.1203
10454TIP3    H252854   2.286   6.760   6.030 -0.0541 -0.5830  1.5501
10455TIP3   OH252855   0.103   4.018   1.941 -0.0375  0.3708 -0.1142
10455TIP3    H152856   0.112   4.085   1.874  0.4205 -0.4153 -0.8562
10455TIP3    H252857   0.055   4.060   2.012 -0.4730  1.2287 -0.9145
10456TIP3   OH252858   6.736   2.466   5.899  0.6539 -0.2332  0.1732
10456TIP3    H152859   6.662   2.465   5.838  1.2823  0.0743 -0.5990
10456TIP3    H252860   6.811   2.437   5.846  0.7491 -2.3284  1.4031
10457TIP3   OH252861   2.754   1.920   0.864 -0.3958 -0.5122 -0.1453
10457TIP3    H152862   2.816   1.921   0.790 -0.6321  0.0916 -0.3440
10457TIP3    H252863   2.753   1.829   0.894  0.0906 -0.6582 -0.5631
10458TIP3   OH252864   5.634   2.800   1.872  0.1281  0.0162  0.5173
10458TIP3    H152865   5.702   2.736   1.852 -0.3081 -1.1310  2.5777
10458TIP3    H252866   5.586   2.763   1.946 -0.3521  2.5677  1.5579
10459TIP3   OH252867   1.738   5.473  10.873  0.1215  0.2872  0.3410
10459TIP3    H152868   1.782   5.394  10.905  0.0929  0.8381  1.7804
10459TIP3    H252869   1.786   5.545  10.913  1.8030  1.1553 -3.0013
10460TIP3   OH252870   6.315   6.430   3.763 -0.0722 -0.0220  0.3661
10460TIP3    H152871   6.393   6.455   3.713  0.5954 -0.9096  0.9554
10460TIP3    H252872   6.242   6.467   3.713  0.6731  0.2103 -0.5682
10461TIP3   OH252873   4.547   3.649  17.178 -0.7633 -0.4699 -0.0717
10461TIP3    H152874   4.496   3.690  17.248 -0.0291  0.9517 -0.3700
10461TIP3    H252875   4.614   3.599  17.225 -1.5063 -1.1779  0.2728
10462TIP3   OH252876   0.245   2.693   3.244  0.0458 -0.1151  0.0147
10462TIP3    H152877   0.216   2.663   3.331  0.7387  0.3872  0.4227
10462TIP3    H252878   0.170   2.741   3.209  0.4494  1.4211  1.1813
10463TIP3   OH252879   3.508   2.391   1.041 -0.1852 -0.1443 -0.6112
10463TIP3    H152880   3.456   2.428   1.112 -0.6495 -0.7618 -0.6251
10463TIP3    H252881   3.471   2.428   0.961  0.7632  1.0729 -0.5037
10464TIP3   OH252882   2.374   1.468   6.007  0.0520 -0.1870  0.2820
10464TIP3    H152883   2.446   1.480   5.946 -0.4176 -1.6255 -0.5824
10464TIP3    H252884   2.340   1.556   6.022  1.4955  0.4042  0.1016
10465TIP3   OH252885   5.551   6.534   4.534 -0.1810 -0.3126  0.6291
10465TIP3    H152886   5.567   6.460   4.474 -0.4873  0.0204  0.1338
10465TIP3    H252887   5.462   6.562   4.514  0.0713  0.4356  0.5490
10466TIP3   OH252888   5.211   4.798   1.498  0.6025 -0.6571 -0.2881
10466TIP3    H152889   5.268   4.852   1.554  0.4619 -1.8604  1.0420
10466TIP3    H252890   5.152   4.861   1.457 -1.3506 -0.0132  3.3354
10467TIP3   OH252891   5.266   6.785   0.723 -0.0063  0.3310 -0.0201
10467TIP3    H152892   5.282   6.750   0.636 -1.8443 -1.3664  0.2796
10467TIP3    H252893   5.344   6.760   0.774  0.3717 -0.0344 -0.7707
10468TIP3   OH252894   2.468   1.169   5.363  0.5192  0.5399 -0.4190
10468TIP3    H152895   2.493   1.192   5.453  3.5633  0.0394 -1.0945
10468TIP3    H252896   2.512   1.235   5.309 -1.0377  0.6435 -1.5897
10469TIP3   OH252897   0.719   2.114   1.383 -0.2930 -0.3428  0.1951
10469TIP3    H152898   0.653   2.122   1.452 -0.4411  1.9556 -0.1728
10469TIP3    H252899   0.670   2.124   1.302  0.5330  1.8409 -0.0660
10470TIP3   OH252900   6.327   0.373   3.118  0.2621  0.6075 -0.7424
10470TIP3    H152901   6.290   0.355   3.032 -3.3725  1.2657  0.6019
10470TIP3    H252902   6.313   0.467   3.131 -0.2879  0.3087  0.9955
10471TIP3   OH252903   5.037   6.592  14.387 -0.1710  0.2291 -0.0305
10471TIP3    H152904   5.103   6.616  14.452 -0.6662  1.4292  0.0421
10471TIP3    H252905   5.034   6.666  14.327 -1.9909  0.5490  0.4064
10472TIP3   OH252906   0.624   0.994   4.416  0.6500  0.1468 -0.2361
10472TIP3    H152907   0.538   1.022   4.448  1.1779  0.7888  0.6307
10472TIP3    H252908   0.609   0.905   4.385 -0.3900  0.3424 -0.3380
10473TIP3   OH252909   1.673   6.178   2.763  0.0069  0.5745  0.0571
10473TIP3    H152910   1.753   6.137   2.731  0.3609  0.3014  1.2351
10473TIP3    H252911   1.652   6.130   2.843 -1.0698  0.9549  0.0134
10474TIP3   OH252912   4.739   6.176   4.006 -0.1133 -0.5578  0.1568
10474TIP3    H152913   4.731   6.101   3.947  1.4853  1.0809 -2.1713
10474TIP3    H252914   4.780   6.244   3.954 -3.4276  2.7032  1.5759
10475TIP3   OH252915   1.665   1.012   4.794  0.7320 -0.3524  0.1001
10475TIP3    H152916   1.672   0.937   4.735  0.6418  2.5267 -3.7686
10475TIP3    H252917   1.572   1.021   4.812  0.3221  0.9536 -2.4439
10476TIP3   OH252918   5.212   0.380   0.523 -0.0966 -0.4616 -0.0720
10476TIP3    H152919   5.143   0.447   0.526  0.1392 -0.2406  0.6649
10476TIP3    H252920   5.229   0.368   0.430  0.7373  1.4325 -0.1944
10477TIP3   OH252921   2.194   0.283   4.697  0.0097 -0.2721 -0.0001
10477TIP3    H152922   2.259   0.350   4.718 -0.8739  0.1928  1.3015
10477TIP3    H252923   2.130   0.328   4.642  0.7196 -0.7009 -1.1884
10478TIP3   OH252924   6.726   6.342   4.390  0.1729 -0.4816  0.6993
10478TIP3    H152925   6.633   6.356   4.371  0.8498  0.4237 -2.2776
10478TIP3    H252926   6.736   6.246   4.391 -0.5778 -0.5814 -0.2780
10479TIP3   OH252927   4.048   4.273  12.394  0.0287 -0.1580  0.3061
10479TIP3    H152928   4.021   4.264  12.485 -2.1772 -2.7794 -0.5253
10479TIP3    H252929   4.047   4.367  12.377 -1.8662  0.2182  2.3174
10480TIP3   OH252930   0.926   4.766   1.310  0.1583  0.2432  0.3127
10480TIP3    H152931   0.903   4.832   1.245 -0.9705  0.0221  0.4751
10480TIP3    H252932   0.842   4.740   1.348  0.6630 -0.7553  0.7589
10481TIP3   OH252933   4.670   0.459  17.218 -0.1601 -0.3786  0.1628
10481TIP3    H152934   4.648   0.522  17.150  1.9037  1.0933  0.7989
10481TIP3    H252935   4.735   0.402  17.178  1.2316  0.6347  0.9268
10482TIP3   OH252936   2.498   5.225  14.479 -0.2584 -0.4017 -0.0648
10482TIP3    H152937   2.515   5.131  14.473 -1.0994 -0.3572 -3.8573
10482TIP3    H252938   2.583   5.262  14.505  0.4541 -2.0356  0.0266
10483TIP3   OH252939   0.888   0.032  13.325 -0.1638 -0.4731  0.1218
10483TIP3    H152940   0.910   0.049  13.416 -1.1487 -1.1053  0.4899
10483TIP3    H252941   0.823  -0.039  13.329  1.3700 -1.9921 -1.1742
10484TIP3   OH252942   3.628   3.209   5.104 -0.0454 -0.2169 -0.5008
10484TIP3    H152943   3.602   3.187   5.015 -2.1504 -1.1094  0.2936
10484TIP3    H252944   3.675   3.292   5.096 -0.2566 -0.2675 -2.4226
10485TIP3   OH252945   4.663   5.432  14.018  0.2162 -0.4835  0.1785
10485TIP3    H152946   4.580   5.444  13.972 -0.6108  2.0047  2.1849
10485TIP3    H252947   4.667   5.338  14.037 -2.0860 -0.6427 -0.0371
10486TIP3   OH252948   1.396   2.855   6.531  0.4403  0.5769 -0.0349
10486TIP3    H152949   1.424   2.897   6.613  0.4530  0.5494 -0.0246
10486TIP3    H252950   1.477   2.830   6.488  0.5589  3.1809 -1.4264
10487TIP3   OH252951   6.107   5.174   3.811  0.0376  0.1335  0.2869
10487TIP3    H152952   6.074   5.085   3.820  1.4212 -0.5027 -0.6368
10487TIP3    H252953   6.149   5.175   3.725  0.7550  1.4294  0.6403
10488TIP3   OH252954   5.201   5.064   4.522  0.4442 -0.4583 -0.4453
10488TIP3    H152955   5.174   4.991   4.466 -2.4181 -0.4843  0.8865
10488TIP3    H252956   5.195   5.141   4.465  0.8842 -0.9007 -1.1020
10489TIP3   OH252957   2.269   3.980  14.295  0.4638 -0.5578 -0.4640
10489TIP3    H152958   2.182   4.016  14.311  0.5778 -0.1666 -0.7261
10489TIP3    H252959   2.318   4.051  14.254  0.5385 -1.1604 -1.4508
10490TIP3   OH252960   5.548   4.215   4.237  0.0482  0.3933  0.1141
10490TIP3    H152961   5.532   4.192   4.328 -0.9187 -1.0639 -0.4101
10490TIP3    H252962   5.464   4.200   4.193  1.0870 -1.0488 -1.4330
10491TIP3   OH252963   6.445   1.261  10.881 -0.1603  0.3398 -0.0844
10491TIP3    H152964   6.352   1.275  10.868 -1.0041 -4.1735  0.4625
10491TIP3    H252965   6.454   1.240  10.973  1.4514  0.9135 -0.0899
10492TIP3   OH252966   4.761   1.526   2.869 -0.0090  0.6289 -0.0671
10492TIP3    H152967   4.803   1.553   2.951 -0.7971 -0.1625  0.6059
10492TIP3    H252968   4.777   1.599   2.809 -0.7450  1.8875  1.2456
10493TIP3   OH252969   1.686   3.665  12.884 -0.0185  0.4351 -0.6972
10493TIP3    H152970   1.660   3.652  12.975 -2.2366 -1.8450 -1.5841
10493TIP3    H252971   1.776   3.633  12.880 -0.8465 -2.0879  0.1354
10494TIP3   OH252972   0.710   2.412   5.571 -0.6084 -0.5937 -0.1024
10494TIP3    H152973   0.785   2.396   5.514  0.4916  1.1162  0.8255
10494TIP3    H252974   0.748   2.423   5.658 -1.6030  3.1180 -0.0413
10495TIP3   OH252975   2.202   6.275  16.735  0.2138 -0.2796  0.3533
10495TIP3    H152976   2.221   6.182  16.725  1.1561 -0.0186 -0.2758
10495TIP3    H252977   2.281   6.320  16.706 -1.5239  0.8558 -2.9528
10496TIP3   OH252978   2.577   2.038   1.848 -0.2191 -0.2194  0.0107
10496TIP3    H152979   2.627   2.048   1.929 -0.0415 -1.1694  0.0230
10496TIP3    H252980   2.575   1.944   1.832 -2.1037 -0.1970  0.0454
10497TIP3   OH252981   0.557   3.750   3.252  0.0375  0.2442 -0.1180
10497TIP3    H152982   0.470   3.784   3.273 -0.3379 -1.0466  0.4428
10497TIP3    H252983   0.540   3.668   3.206  0.9583 -0.1646  0.2549
10498TIP3   OH252984   4.745   3.193  14.740 -0.4519  0.4218 -0.1060
10498TIP3    H152985   4.806   3.131  14.780 -1.6184  0.1444  1.3187
10498TIP3    H252986   4.797   3.273  14.728  0.3669 -0.0034  0.5037
10499TIP3   OH252987   4.705   2.008   4.749 -0.4690  0.0479 -0.9272
10499TIP3    H152988   4.745   1.982   4.666  0.1982 -0.0138 -0.5943
10499TIP3    H252989   4.627   1.954   4.756  1.1178 -2.2249 -0.0244
10500TIP3   OH252990   5.431   2.662   0.156  0.1455  0.3313 -0.0754
10500TIP3    H152991   5.492   2.653   0.083 -0.7575 -0.6041 -0.7370
10500TIP3    H252992   5.461   2.740   0.203  1.0558  0.6397 -1.1372
10501TIP3   OH252993   4.777   3.191   2.460 -0.3692 -0.1079 -0.4922
10501TIP3    H152994   4.725   3.141   2.396 -0.1651  0.5030 -1.1410
10501TIP3    H252995   4.728   3.271   2.474 -0.5119 -0.3290  0.2764
10502TIP3   OH252996   0.195   6.448   4.519 -0.2404  0.3412 -0.0938
10502TIP3    H152997   0.163   6.360   4.538  0.7377  0.4092  1.9952
10502TIP3    H252998   0.123   6.489   4.469 -2.5314 -0.2293  2.5943
10503TIP3   OH252999   4.938   0.257   2.812 -0.1247 -0.2203 -0.4099
10503TIP3    H153000   4.884   0.245   2.734  1.4342 -1.6881 -1.2728
10503TIP3    H253001   5.026   0.273   2.779  0.5307 -0.7256  1.0375
10504TIP3   OH253002   6.731   3.350  14.524  0.1293  0.0546 -0.3970
10504TIP3    H153003   6.706   3.432  14.567  1.4720  0.5070 -0.4715
10504TIP3    H253004   6.727   3.285  14.594 -0.8316  0.1925 -0.3142
10505TIP3   OH253005   0.864   5.453  15.756 -0.3194  0.2959  0.0667
10505TIP3    H153006   0.932   5.487  15.698  1.7546 -3.6659 -0.0149
10505TIP3    H253007   0.799   5.417  15.697  0.6613 -1.6313  0.1177
10506TIP3   OH253008   4.513   4.048  10.918 -0.4047  0.0220 -0.0704
10506TIP3    H153009   4.566   3.971  10.903 -0.7589  0.0010 -1.2170
10506TIP3    H253010   4.430   4.030  10.874 -0.9916  0.4872  0.8182
10507TIP3   OH253011   1.477   5.191  16.573  0.1103  0.0255  0.4274
10507TIP3    H153012   1.423   5.228  16.504  0.7629  1.1577  0.5065
10507TIP3    H253013   1.563   5.177  16.533  0.5669  0.9235  1.0437
10508TIP3   OH253014   1.776   5.132   4.409 -0.0324  0.2782  0.1124
10508TIP3    H153015   1.768   5.135   4.505 -0.3456 -1.4847  0.1639
10508TIP3    H253016   1.803   5.042   4.391 -0.1557  0.5566 -1.4731
10509TIP3   OH253017   4.256   4.845  13.629 -0.4951  0.2232 -0.0518
10509TIP3    H153018   4.316   4.776  13.655 -1.1277 -0.6060 -0.7742
10509TIP3    H253019   4.180   4.799  13.592 -0.9524  1.2895 -0.4670
10510TIP3   OH253020   0.200   6.151   2.088 -0.0905 -0.0152  0.4888
10510TIP3    H153021   0.203   6.056   2.097 -0.8259  0.0301  1.3230
10510TIP3    H253022   0.126   6.167   2.030  1.7366 -0.0744 -1.9101
10511TIP3   OH253023   6.175   0.080  14.335 -0.4901  0.0035  0.1602
10511TIP3    H153024   6.261   0.101  14.299 -0.9092 -0.2958 -1.0244
10511TIP3    H253025   6.125   0.046  14.261 -1.3536 -0.6551  1.0308
10512TIP3   OH253026   0.654   4.536   0.631  0.0498  0.0051  0.6406
10512TIP3    H153027   0.648   4.632   0.637 -1.0317  0.1406 -1.8547
10512TIP3    H253028   0.567   4.509   0.603  0.8503 -1.5440 -0.4002
10513TIP3   OH253029   1.752   2.187   1.213  0.3274 -0.0822  0.1179
10513TIP3    H153030   1.840   2.161   1.185  0.1521  0.3974 -0.9161
10513TIP3    H253031   1.757   2.282   1.223  0.6982 -0.3621  2.9056
10514TIP3   OH253032   3.565   5.806  12.501  0.1060  0.5891  0.0731
10514TIP3    H153033   3.555   5.773  12.412 -0.4462  0.5500  0.1488
10514TIP3    H253034   3.506   5.753  12.554  1.0036  0.1030  0.5923
10515TIP3   OH253035   6.108   3.668   5.235 -0.1979  0.1038 -0.0250
10515TIP3    H153036   6.151   3.743   5.275 -0.4072 -0.1790  0.7358
10515TIP3    H253037   6.024   3.702   5.205 -0.5634  0.0278  0.8991
10516TIP3   OH253038   6.782   2.445  17.274 -0.3065 -0.4486 -0.1672
10516TIP3    H153039   6.818   2.376  17.330  0.5449 -0.5676 -0.8397
10516TIP3    H253040   6.857   2.502  17.256 -1.1969  1.2005  1.1493
10517TIP3   OH253041   0.649   5.239   3.623 -0.2966 -0.1992  0.4653
10517TIP3    H153042   0.743   5.252   3.635  0.0695 -0.9238 -1.4007
10517TIP3    H253043   0.612   5.246   3.711  1.9576 -3.7179  1.8176
10518TIP3   OH253044   4.996   1.911   3.677  0.2177  0.0947  0.0751
10518TIP3    H153045   4.921   1.865   3.638 -0.2145 -0.5585  1.6192
10518TIP3    H253046   4.956   1.973   3.739  0.9300  0.1664  0.4724
10519TIP3   OH253047   5.410   2.589   4.549  0.1224 -0.0176  0.1865
10519TIP3    H153048   5.375   2.527   4.486  2.1830 -0.0394 -0.9862
10519TIP3    H253049   5.421   2.538   4.629 -2.3201 -0.0350  0.5576
10520TIP3   OH253050   3.559   0.057  14.895  0.0046  0.0946  0.3132
10520TIP3    H153051   3.526  -0.020  14.848  0.5395 -0.1294  0.3003
10520TIP3    H253052   3.480   0.103  14.923 -0.3841 -1.5044  2.0301
10521TIP3   OH253053   2.350   2.184  11.861 -0.1384 -0.3173 -0.5289
10521TIP3    H153054   2.261   2.161  11.835 -1.1471  1.9621  0.8176
10521TIP3    H253055   2.343   2.272  11.897  2.8490  0.3205 -1.3759
10522TIP3   OH253056   5.238   3.366  16.536  0.4475  0.0692 -0.3231
10522TIP3    H153057   5.145   3.388  16.540  0.4214 -0.0162 -0.4616
10522TIP3    H253058   5.266   3.397  16.450  0.4965 -0.1029 -0.3714
10523TIP3   OH253059   2.427   0.279  13.001 -0.2819 -0.9575 -0.0285
10523TIP3    H153060   2.498   0.342  12.994 -0.2835 -0.9700 -0.1685
10523TIP3    H253061   2.470   0.196  13.022 -0.1141 -1.2757 -1.6015
10524TIP3   OH253062   0.619   1.180  14.855  0.1016 -0.2687  0.1482
10524TIP3    H153063   0.565   1.254  14.881  0.7565  0.6498 -1.0748
10524TIP3    H253064   0.707   1.203  14.884  0.0717 -1.1866  0.9875
10525TIP3   OH253065   2.664   2.458   6.018 -0.6755 -0.2033 -0.0452
10525TIP3    H153066   2.631   2.423   6.101  2.3272 -1.7136  0.5903
10525TIP3    H253067   2.700   2.544   6.041 -0.5061 -0.3013  0.0544
10526TIP3   OH253068   2.705   4.819  11.744  0.5910 -1.1560 -0.4433
10526TIP3    H153069   2.693   4.911  11.723  0.5949 -1.4397 -1.7176
10526TIP3    H253070   2.666   4.808  11.831 -0.2959 -0.1783 -0.7191
10527TIP3   OH253071   2.535   5.070  12.467 -0.7680  0.1614  0.8410
10527TIP3    H153072   2.522   5.114  12.383 -0.7085 -0.1660  0.6598
10527TIP3    H253073   2.479   5.117  12.528 -1.8721 -0.4560  0.3318
10528TIP3   OH253074   5.359   1.866  16.386 -0.4481  0.1677  0.2254
10528TIP3    H153075   5.414   1.888  16.461  0.1143 -1.6756  0.3892
10528TIP3    H253076   5.406   1.902  16.310  0.7477 -0.9649  0.4138
10529TIP3   OH253077   1.714   1.171   1.198 -0.3538  0.0957 -0.1480
10529TIP3    H153078   1.646   1.235   1.175 -1.0530 -0.5897 -0.0132
10529TIP3    H253079   1.796   1.221   1.195 -0.7735  0.7489 -1.0690
10530TIP3   OH253080   0.899   1.585  13.403 -0.4164 -0.2977 -0.0633
10530TIP3    H153081   0.907   1.668  13.355  0.7792 -0.4859 -0.2184
10530TIP3    H253082   0.846   1.606  13.480  1.6701  1.1126  1.0256
10531TIP3   OH253083   6.263   2.464   4.814 -0.0221  0.5454 -0.0666
10531TIP3    H153084   6.293   2.429   4.898  0.0298  0.5791 -0.0706
10531TIP3    H253085   6.244   2.386   4.762  0.2577  0.5201 -0.1342
10532TIP3   OH253086   5.014   4.045   0.856  0.1238  0.2029  0.2990
10532TIP3    H153087   4.995   3.997   0.937  1.4210 -0.9162 -0.0458
10532TIP3    H253088   5.012   4.137   0.882 -0.4087 -0.1070  1.3913
10533TIP3   OH253089   6.500   4.992   6.177 -0.0055 -0.3221  0.7720
10533TIP3    H153090   6.479   5.023   6.265 -0.5913  0.2064  0.4571
10533TIP3    H253091   6.527   5.071   6.130 -0.2886 -0.4969  0.3086
10534TIP3   OH253092   4.833   3.506  17.121  0.2940 -0.1905  0.5059
10534TIP3    H153093   4.824   3.558  17.200  0.7245 -0.2309  0.5838
10534TIP3    H253094   4.750   3.517  17.075 -0.2399 -0.7879  1.3387
10535TIP3   OH253095   2.463   3.648   1.141  0.0823  0.2188 -0.4406
10535TIP3    H153096   2.512   3.602   1.073  0.0185 -1.1184  0.3953
10535TIP3    H253097   2.518   3.638   1.220 -0.8495 -0.0699  0.1759
10536TIP3   OH253098   1.942   1.315   0.622 -0.2004  0.3471  0.0044
10536TIP3    H153099   1.897   1.242   0.665  1.4833 -0.7279 -0.0176
10536TIP3    H253100   1.967   1.373   0.693  1.8023 -0.9923  0.4332
10537TIP3   OH253101   1.922   0.566   3.083 -0.2053  0.3918  0.3307
10537TIP3    H153102   1.898   0.631   3.017  0.3069 -1.3008 -1.5719
10537TIP3    H253103   1.956   0.618   3.156  1.7985  2.2085 -1.8152
10538TIP3   OH253104   6.259   6.187  13.061 -0.0496  0.2046 -0.2511
10538TIP3    H153105   6.237   6.095  13.049 -1.3758  0.5373 -0.4451
10538TIP3    H253106   6.244   6.227  12.975 -0.8324  0.8603  0.1747
10539TIP3   OH253107   2.629   6.740  14.555  0.9731 -0.0591 -0.0018
10539TIP3    H153108   2.577   6.802  14.606  0.4829 -0.2211 -0.3080
10539TIP3    H253109   2.682   6.694  14.621 -1.5521 -2.1230  0.6813
10540TIP3   OH253110   3.106   5.687   2.093  0.7655  0.0511 -0.5282
10540TIP3    H153111   3.132   5.684   2.185 -0.4685  0.7903 -0.1478
10540TIP3    H253112   3.161   5.755   2.054  1.7204 -0.6856 -0.4906
10541TIP3   OH253113   0.856   5.114   1.904 -0.1318 -0.3966  0.1979
10541TIP3    H153114   0.901   5.196   1.927 -0.0274 -0.4949  0.3444
10541TIP3    H253115   0.871   5.057   1.979  0.1060 -0.6774 -0.0658
10542TIP3   OH253116   5.576   1.835   3.508 -0.4309 -0.8802 -0.0298
10542TIP3    H153117   5.623   1.917   3.519 -0.1743 -1.0545  0.2122
10542TIP3    H253118   5.540   1.816   3.595 -0.0332 -1.2912  0.0523
10543TIP3   OH253119   1.211   6.287   2.896 -0.0143  0.0733  0.4970
10543TIP3    H153120   1.210   6.362   2.955 -2.3326  0.2874  0.2510
10543TIP3    H253121   1.156   6.222   2.939 -0.7962 -0.1984 -0.8625
10544TIP3   OH253122   5.201   0.874  13.605  0.1060  0.1487  0.4074
10544TIP3    H153123   5.180   0.921  13.524  2.4767 -0.6147 -0.7080
10544TIP3    H253124   5.138   0.802  13.608 -0.8274  0.9360 -0.0757
10545TIP3   OH253125   2.426   4.882  10.391  0.4712 -0.8022  0.4376
10545TIP3    H153126   2.430   4.790  10.418 -1.3537 -1.0061  0.0797
10545TIP3    H253127   2.483   4.887  10.315 -0.1154 -1.8568 -0.0923
10546TIP3   OH253128   1.274   4.626  13.710  0.7234  0.3558 -0.3092
10546TIP3    H153129   1.205   4.596  13.651  1.7486  0.7993 -1.7827
10546TIP3    H253130   1.354   4.615  13.659  1.2531  4.3821 -0.4272
10547TIP3   OH253131   2.179   3.406  15.142  0.3378  0.2468  0.3222
10547TIP3    H153132   2.174   3.329  15.198  0.3315 -0.5775 -0.7812
10547TIP3    H253133   2.102   3.458  15.165 -0.0481 -0.4254  0.5771
10548TIP3   OH253134   1.067   2.304  14.875  0.0137 -0.2947 -0.1952
10548TIP3    H153135   1.131   2.361  14.917  1.4736 -0.6911 -1.8039
10548TIP3    H253136   1.074   2.221  14.923 -0.4979  0.1662  0.6908
10549TIP3   OH253137   5.776   0.639   6.421 -0.0655  0.0998  0.8187
10549TIP3    H153138   5.840   0.569   6.412 -1.8436 -1.6495  1.3529
10549TIP3    H253139   5.783   0.666   6.513  0.3327  0.3435  0.7171
10550TIP3   OH253140   2.301   5.555  10.645 -0.4918  0.4012 -0.0254
10550TIP3    H153141   2.274   5.590  10.730 -0.1690  1.0312 -0.1799
10550TIP3    H253142   2.393   5.531  10.657 -1.0538 -1.5995  0.4507
10551TIP3   OH253143   2.527   2.757  12.431  0.0970 -0.0270  0.0562
10551TIP3    H153144   2.561   2.789  12.347  1.1343 -1.6507 -0.1722
10551TIP3    H253145   2.490   2.671  12.410  1.1286 -0.8175  1.4000
10552TIP3   OH253146   3.642   3.797   1.593  0.2896  0.5716  0.1876
10552TIP3    H153147   3.576   3.816   1.660 -0.6340  1.0658 -0.8405
10552TIP3    H253148   3.698   3.875   1.591 -1.0404  1.5078 -1.1789
10553TIP3   OH253149   0.694   2.269   3.875  0.5479 -0.2394 -0.1681
10553TIP3    H153150   0.768   2.228   3.830  0.3043  0.1138 -0.8856
10553TIP3    H253151   0.639   2.304   3.805 -0.6040 -1.0053  0.3421
10554TIP3   OH253152   1.191   3.978  16.015 -0.0321  0.3351 -0.2390
10554TIP3    H153153   1.140   4.042  15.964 -2.4030 -0.0280  1.5868
10554TIP3    H253154   1.195   3.901  15.958  0.1209  1.0390 -1.1911
10555TIP3   OH253155   6.021   1.397  11.109 -0.2736  0.6093  0.2103
10555TIP3    H153156   5.999   1.311  11.074  1.0767  0.5301 -0.4690
10555TIP3    H253157   5.950   1.454  11.080  0.2428  0.3024 -1.7040
10556TIP3   OH253158   1.498   3.547   3.973 -0.0939  0.4175 -0.1314
10556TIP3    H153159   1.579   3.538   3.923 -0.9472  0.1510 -1.5183
10556TIP3    H253160   1.521   3.523   4.062  0.6800 -2.7296 -1.1107
10557TIP3   OH253161   0.144   1.646   4.439  0.2858  0.3066  0.4571
10557TIP3    H153162   0.054   1.639   4.407  0.0250 -1.1333  1.4815
10557TIP3    H253163   0.184   1.714   4.384 -1.0764  0.1130 -0.7914
10558TIP3   OH253164   5.329   0.258   0.233  0.1251 -0.3558  0.4570
10558TIP3    H153165   5.248   0.226   0.195 -0.6819  0.2949  1.6050
10558TIP3    H253166   5.398   0.219   0.179 -0.9300 -1.2635 -0.2534
10559TIP3   OH253167   3.913   4.512   3.893 -0.2065  0.0035  0.2025
10559TIP3    H153168   4.002   4.500   3.925  0.4896  0.8484 -1.4095
10559TIP3    H253169   3.922   4.525   3.799 -2.0716 -0.3680 -0.0537
10560TIP3   OH253170   1.679   2.123  11.516  0.8094 -0.0952 -0.6333
10560TIP3    H153171   1.669   2.041  11.468  1.3862 -0.3519 -0.3258
10560TIP3    H253172   1.594   2.166  11.509  1.2704  0.4985 -3.0124
10561TIP3   OH253173   4.502   5.927   0.788 -0.0961  0.0699 -0.0802
10561TIP3    H153174   4.535   5.847   0.830  1.6530  1.2062  0.8140
10561TIP3    H253175   4.436   5.960   0.848 -1.0990 -0.9009 -0.6415
10562TIP3   OH253176   1.885   4.059   2.292  0.3075 -0.1709 -0.1508
10562TIP3    H153177   1.922   4.145   2.315 -0.1454  0.1318 -0.5487
10562TIP3    H253178   1.875   4.014   2.376 -0.1729  0.4631  0.1343
10563TIP3   OH253179   3.244   4.347  12.012 -0.0661  0.1628 -0.0356
10563TIP3    H153180   3.335   4.376  12.013  0.4952 -1.4933 -1.3692
10563TIP3    H253181   3.204   4.396  11.940  0.2860 -0.6025 -0.7580
10564TIP3   OH253182   4.301   5.660  15.549  0.7164  0.0903  0.5667
10564TIP3    H153183   4.305   5.687  15.641 -1.1400 -0.1981  0.7563
10564TIP3    H253184   4.327   5.568  15.550  0.3926 -0.0029  0.8594
10565TIP3   OH253185   2.580   1.537   3.766 -0.6758 -0.0429 -0.8476
10565TIP3    H153186   2.667   1.559   3.734 -1.0408  0.4304 -1.5420
10565TIP3    H253187   2.525   1.538   3.688 -1.2685 -0.5038 -0.4377
10566TIP3   OH253188   0.888   4.847   5.242 -0.1481 -0.8656  0.1908
10566TIP3    H153189   0.809   4.897   5.262 -0.7531 -1.3601 -0.9218
10566TIP3    H253190   0.858   4.774   5.188  1.3549  0.3264 -2.3996
10567TIP3   OH253191   3.614   4.793   0.499 -0.6303 -0.3981 -0.5237
10567TIP3    H153192   3.521   4.775   0.503 -0.8048  0.7189  2.2676
10567TIP3    H253193   3.629   4.854   0.572  2.3423 -0.9234 -0.6363
10568TIP3   OH253194   0.786   3.847  15.025  0.5859  0.1700  0.0250
10568TIP3    H153195   0.735   3.807  15.095  0.3474  0.1133 -0.1821
10568TIP3    H253196   0.822   3.773  14.975 -0.1489  0.2129 -0.5678
10569TIP3   OH253197   3.067   6.596  14.298 -0.1447 -0.1614 -0.0156
10569TIP3    H153198   3.067   6.562  14.208  0.2336 -1.0981  0.3255
10569TIP3    H253199   2.987   6.560  14.337  0.5507 -1.1759  0.5229
10570TIP3   OH253200   5.931   0.358  12.206  0.1702  0.3389  0.0053
10570TIP3    H153201   6.004   0.322  12.255  1.7905  2.2282 -0.9431
10570TIP3    H253202   5.971   0.418  12.142 -2.1791  1.3894 -0.5668
10571TIP3   OH253203   6.696   2.787   0.564 -0.0241  0.4746  0.0417
10571TIP3    H153204   6.720   2.699   0.536 -0.1063 -0.7093  3.4853
10571TIP3    H253205   6.780   2.828   0.588 -0.1152  0.9273 -0.4011
10572TIP3   OH253206   6.138   5.681   3.260  0.1900  0.0373  0.2079
10572TIP3    H153207   6.047   5.689   3.288  0.0746 -0.1432 -0.1006
10572TIP3    H253208   6.132   5.672   3.164  0.5159 -0.2079  0.2104
10573TIP3   OH253209   6.096   1.764   4.170  0.4661 -0.1539  0.3379
10573TIP3    H153210   6.062   1.768   4.259  0.7270 -0.5597  0.4509
10573TIP3    H253211   6.026   1.722   4.120  0.5848 -0.5106  0.4718
10574TIP3   OH253212   3.675   2.908   2.880 -0.3562 -0.1286  0.3383
10574TIP3    H153213   3.662   2.835   2.941 -0.9103 -0.8052 -0.5688
10574TIP3    H253214   3.592   2.913   2.831 -0.2284  0.9474  0.2185
10575TIP3   OH253215   0.802   0.737   4.119  0.5546  0.6456 -0.4595
10575TIP3    H153216   0.797   0.730   4.215  1.5302  0.4447 -0.4191
10575TIP3    H253217   0.711   0.740   4.091  0.1456 -3.1330  0.1965
10576TIP3   OH253218   0.389   5.191   3.026 -0.1501 -0.5740  0.1199
10576TIP3    H153219   0.423   5.120   3.080 -0.3579  0.9027  2.2342
10576TIP3    H253220   0.298   5.166   3.008  0.7155 -2.4206 -1.9312
10577TIP3   OH253221   6.493   6.071   0.124  0.1599  0.1438  0.0077
10577TIP3    H153222   6.573   6.026   0.097 -0.0707  0.8346 -1.9287
10577TIP3    H253223   6.524   6.142   0.180  0.8719  0.1697 -0.4080
10578TIP3   OH253224   5.112   5.796   2.430 -0.3158 -0.9695  0.1573
10578TIP3    H153225   5.111   5.822   2.338  0.0052  0.0522  0.4398
10578TIP3    H253226   5.020   5.790   2.454 -0.3806  0.7633  0.3339
10579TIP3   OH253227   2.484   3.953  15.362 -0.5806  0.4157 -0.0364
10579TIP3    H153228   2.390   3.944  15.352 -0.5426  0.8662 -0.8259
10579TIP3    H253229   2.519   3.945  15.273  0.0236  1.3579  0.0989
10580TIP3   OH253230   3.808   3.782  17.269 -0.2012 -0.5146 -0.5137
10580TIP3    H153231   3.804   3.765  17.175 -0.4198 -0.6765 -0.4756
10580TIP3    H253232   3.812   3.696  17.309 -0.1110 -0.4460 -0.3747
10581TIP3   OH253233   1.113   5.945   0.919  0.0826  0.1562 -0.5683
10581TIP3    H153234   1.104   5.959   0.825 -1.9413  3.2019 -0.0159
10581TIP3    H253235   1.171   6.016   0.948  0.4928 -0.6065  0.5083
10582TIP3   OH253236   3.295   4.334  11.661  0.3393  0.2823  0.4738
10582TIP3    H153237   3.254   4.255  11.696  0.7811 -0.0396  0.2761
10582TIP3    H253238   3.256   4.406  11.711 -0.2948 -0.0335  0.4411
10583TIP3   OH253239   1.054   2.461   3.927  0.0356 -0.5022  0.5781
10583TIP3    H153240   0.985   2.510   3.882 -1.4475 -2.7068  0.3961
10583TIP3    H253241   1.135   2.487   3.882 -0.8230  1.1195 -0.0530
10584TIP3   OH253242   3.712   0.481   1.747  0.2922  0.4236 -0.2970
10584TIP3    H153243   3.681   0.505   1.835  0.5007 -0.8755  0.1382
10584TIP3    H253244   3.645   0.516   1.688 -1.3997 -1.2398  0.5529
10585TIP3   OH253245   2.540   3.367  13.039  0.1535  0.1331 -0.4542
10585TIP3    H153246   2.623   3.400  13.074 -0.1784  0.8896 -0.3561
10585TIP3    H253247   2.546   3.381  12.945 -0.1376  0.8367 -0.3738
10586TIP3   OH253248   2.460   3.249   5.484 -0.4226  1.0178  0.6578
10586TIP3    H153249   2.547   3.261   5.522 -0.4485 -1.9909  1.8106
10586TIP3    H253250   2.450   3.154   5.475 -2.6035  1.4299 -1.8248
10587TIP3   OH253251   1.624   0.572   2.394 -0.5592  0.1237  0.2461
10587TIP3    H153252   1.543   0.522   2.382  0.1846 -1.1480  0.3908
10587TIP3    H253253   1.689   0.526   2.340 -0.0317  1.3934 -0.2336
10588TIP3   OH253254   0.673   3.673   5.462  0.0111  0.5912  0.7637
10588TIP3    H153255   0.728   3.701   5.535 -0.5971  2.2561  0.6097
10588TIP3    H253256   0.708   3.588   5.437  2.0240  1.2631  1.1788
10589TIP3   OH253257   5.884   5.443  15.046  0.4310 -0.0260  0.4858
10589TIP3    H153258   5.796   5.445  15.008  0.1701  1.3354  1.1443
10589TIP3    H253259   5.943   5.437  14.970 -0.2124 -0.7749  0.0375
10590TIP3   OH253260   5.950   6.726   5.022  0.0602 -0.2123  0.1499
10590TIP3    H153261   5.959   6.631   5.026  1.4463 -0.1061 -0.1757
10590TIP3    H253262   5.892   6.742   4.948 -0.4965 -0.8165  0.4548
10591TIP3   OH253263   5.359   4.476  16.712 -0.3660  0.8724  0.0660
10591TIP3    H153264   5.357   4.548  16.775  1.2739  0.1588  0.9792
10591TIP3    H253265   5.303   4.409  16.751  2.1015 -0.2989  1.7464
10592TIP3   OH253266   2.639   1.099   4.676  0.7834  0.6623  0.1609
10592TIP3    H153267   2.648   1.103   4.580 -1.1065  2.8406  0.0104
10592TIP3    H253268   2.598   1.015   4.693  0.1073  0.7314 -1.0673
10593TIP3   OH253269   0.868   1.984  16.947 -0.0671 -0.1544  0.1040
10593TIP3    H153270   0.856   2.079  16.937 -0.3286 -0.1058  0.8500
10593TIP3    H253271   0.841   1.947  16.863 -0.2374  0.4121 -0.0932
10594TIP3   OH253272   2.162   5.116   5.614 -0.2721 -0.2642  0.2817
10594TIP3    H153273   2.100   5.075   5.674 -1.3841  0.7879 -0.1267
10594TIP3    H253274   2.109   5.176   5.561  1.0909  0.6801 -0.0582
10595TIP3   OH253275   6.027   2.507   3.981  0.0320  0.3309 -0.4044
10595TIP3    H153276   5.996   2.492   3.892 -0.0626  0.6494 -0.4290
10595TIP3    H253277   6.099   2.570   3.970 -0.8374  1.3969 -0.1432
10596TIP3   OH253278   6.720   0.412   1.862  0.0274 -0.3415 -0.2205
10596TIP3    H153279   6.705   0.505   1.882 -0.0890 -0.1161 -1.3159
10596TIP3    H253280   6.637   0.369   1.883  0.0136 -0.1623  0.0910
10597TIP3   OH253281   1.797   4.764   1.872  0.0397 -0.1231 -0.0797
10597TIP3    H153282   1.880   4.748   1.917 -0.1844 -0.9778  0.0248
10597TIP3    H253283   1.802   4.711   1.792 -1.5956 -2.4834  1.3231
10598TIP3   OH253284   4.906   5.699   1.469  0.2271  0.1190  0.1869
10598TIP3    H153285   4.940   5.789   1.478  1.2402 -0.1523 -0.8178
10598TIP3    H253286   4.981   5.644   1.489 -0.4345 -0.5220  0.9324
10599TIP3   OH253287   4.016   0.480  13.143 -0.1223 -0.8213 -0.0558
10599TIP3    H153288   4.025   0.576  13.137  0.7526 -0.8639  0.5222
10599TIP3    H253289   3.952   0.458  13.075 -1.9446  0.4004  1.2185
10600TIP3   OH253290   5.065   6.632   3.875  0.6082 -0.3193 -0.3342
10600TIP3    H153291   5.153   6.653   3.845 -0.1067  0.8973 -1.6401
10600TIP3    H253292   5.043   6.702   3.937 -0.3229  0.7181 -1.8034
10601TIP3   OH253293   3.582   2.171  14.865 -0.1791  0.0890 -0.2091
10601TIP3    H153294   3.600   2.182  14.772 -0.0227  1.5071 -0.0132
10601TIP3    H253295   3.667   2.182  14.908 -0.5619  1.3109  0.2501
10602TIP3   OH253296   3.879   5.205   3.467 -0.2551 -0.0552  0.0344
10602TIP3    H153297   3.798   5.253   3.483  0.2892  1.0624 -0.4943
10602TIP3    H253298   3.910   5.237   3.382  1.2216  0.2293  0.6533
10603TIP3   OH253299   4.944   0.662  11.965  0.4668 -0.0460  0.1021
10603TIP3    H153300   4.889   0.614  11.903  0.7747 -0.6117  0.2630
10603TIP3    H253301   5.008   0.708  11.909  0.5660 -0.3292 -0.0228
10604TIP3   OH253302   6.170   5.184  12.734 -0.1818 -0.1085  0.5626
10604TIP3    H153303   6.075   5.190  12.722 -0.0659  1.5690  0.3425
10604TIP3    H253304   6.196   5.271  12.763  1.7597  0.5559 -2.8299
10605TIP3   OH253305   5.287   1.247   2.290 -0.1172 -0.5406 -0.2939
10605TIP3    H153306   5.308   1.181   2.357 -1.0987 -0.9147 -0.3495
10605TIP3    H253307   5.306   1.203   2.207 -1.1112 -0.8885 -0.3455
10606TIP3   OH253308   1.956   2.487  17.017 -0.4254 -0.4818  0.2338
10606TIP3    H153309   2.020   2.457  17.081  0.3372 -0.5190 -0.5277
10606TIP3    H253310   1.893   2.539  17.067  2.0910  2.4467  0.4720
10607TIP3   OH253311   1.396   4.517  12.961  0.0185  0.1852 -0.8426
10607TIP3    H153312   1.347   4.496  12.881 -0.4045 -1.5355 -0.1470
10607TIP3    H253313   1.349   4.593  12.997 -0.9922 -0.2617 -1.1839
10608TIP3   OH253314   4.864   5.608  13.837 -0.3204 -0.3112  0.2667
10608TIP3    H153315   4.803   5.545  13.798 -0.9937 -1.0068  2.3992
10608TIP3    H253316   4.865   5.682  13.776 -2.3744 -0.8074 -0.3822
10609TIP3   OH253317   4.836   5.089  11.618 -0.0747 -0.4434 -0.0626
10609TIP3    H153318   4.766   5.153  11.630 -0.3660 -0.6742 -0.5005
10609TIP3    H253319   4.821   5.024  11.686 -0.5307 -0.7068 -0.4124
10610TIP3   OH253320   1.545   3.856  14.506  0.9397 -0.4690  0.1706
10610TIP3    H153321   1.632   3.847  14.546  1.0315  0.6456  0.2347
10610TIP3    H253322   1.562   3.893  14.419  0.5705 -0.7150 -0.0053
10611TIP3   OH253323   1.172   6.365   5.131  0.2947  0.3838 -0.7222
10611TIP3    H153324   1.241   6.336   5.071  1.4213  1.2748  0.1300
10611TIP3    H253325   1.148   6.452   5.100  0.6393  0.7080 -0.0835
10612TIP3   OH253326   5.096   1.401   3.384  0.1174 -0.6666 -0.2957
10612TIP3    H153327   5.175   1.418   3.333  1.2634 -0.2351  1.5740
10612TIP3    H253328   5.070   1.486   3.419  0.0981 -1.1376  0.8768
10613TIP3   OH253329   2.302   6.102  14.346 -0.1688  0.4837 -0.0111
10613TIP3    H153330   2.378   6.073  14.295 -1.1502 -2.1271 -0.0737
10613TIP3    H253331   2.334   6.176  14.397  2.0067  0.3574 -1.1403
10614TIP3   OH253332   0.097   1.296   3.397  0.3714  0.0787  0.2507
10614TIP3    H153333   0.177   1.326   3.440  0.2067  1.1111 -0.1459
10614TIP3    H253334   0.043   1.374   3.390 -0.6256 -0.5844  0.3942
10615TIP3   OH253335   4.434   0.710  11.938 -0.3193  0.0507  0.5142
10615TIP3    H153336   4.349   0.755  11.946  0.7681  2.7706 -2.1752
10615TIP3    H253337   4.475   0.721  12.023 -1.3489  1.5260  0.8401
10616TIP3   OH253338   0.275   4.626   5.853  0.0761 -0.2257  0.9703
10616TIP3    H153339   0.193   4.658   5.890 -0.4470 -1.0946  0.5613
10616TIP3    H253340   0.262   4.532   5.842  1.0180 -0.3228  0.6198
10617TIP3   OH253341   6.167   3.534  16.195 -0.1039 -0.2434 -0.4710
10617TIP3    H153342   6.164   3.441  16.217  1.1508 -0.3607 -0.7526
10617TIP3    H253343   6.078   3.555  16.165 -0.4848 -1.2537 -0.0539
10618TIP3   OH253344   4.558   0.058  15.838  0.2240  0.6508  0.6181
10618TIP3    H153345   4.478   0.089  15.796  1.3202  2.4003 -0.2469
10618TIP3    H253346   4.532   0.038  15.928 -1.0650  1.8172  0.5214
10619TIP3   OH253347   2.773   2.459   0.593 -0.0349  0.1039 -0.0453
10619TIP3    H153348   2.783   2.502   0.678 -2.4990  1.3815 -0.3583
10619TIP3    H253349   2.773   2.530   0.530  1.6768 -0.8316 -1.1319
10620TIP3   OH253350   6.601   5.871   1.651 -0.0096 -0.6781  0.1697
10620TIP3    H153351   6.510   5.843   1.637 -0.6646  2.0568 -1.3438
10620TIP3    H253352   6.646   5.847   1.570  0.0821  0.0768 -0.0025
10621TIP3   OH253353   2.941   3.833  12.089 -0.6911 -0.8472  0.3550
10621TIP3    H153354   2.933   3.889  12.166  2.4687  1.5292 -0.9515
10621TIP3    H253355   2.891   3.754  12.112 -3.5031  1.5859  3.0542
10622TIP3   OH253356   3.696   6.506  14.922  0.0013 -0.1842  0.1081
10622TIP3    H153357   3.650   6.511  15.006 -0.2794 -1.2304  0.0177
10622TIP3    H253358   3.762   6.575  14.928 -0.2824  0.0287  1.0213
10623TIP3   OH253359   2.632   4.730   1.023  0.2476 -0.0579 -0.3406
10623TIP3    H153360   2.619   4.753   1.115 -1.5009 -2.1113 -0.0301
10623TIP3    H253361   2.712   4.777   0.997  1.4943 -0.4670  2.5789
10624TIP3   OH253362   0.572   4.412   1.440 -0.1197 -0.4209  0.5753
10624TIP3    H153363   0.498   4.354   1.459 -0.8918 -0.0998 -1.2945
10624TIP3    H253364   0.645   4.352   1.426 -0.8808 -0.9758 -1.2129
10625TIP3   OH253365   2.232   2.530   2.774  0.2135  0.1131 -0.4382
10625TIP3    H153366   2.308   2.496   2.727 -0.3792 -1.0368 -0.5776
10625TIP3    H253367   2.266   2.553   2.860  0.6251 -0.8411 -0.3388
10626TIP3   OH253368   1.472   4.732  11.260  0.0486  0.1839  0.4198
10626TIP3    H153369   1.488   4.707  11.169  1.1472  0.0568  0.6415
10626TIP3    H253370   1.386   4.696  11.280 -0.6225  1.0121 -0.8581
10627TIP3   OH253371   6.013   0.905  13.579  0.2261 -0.6446  0.7051
10627TIP3    H153372   6.089   0.916  13.523 -0.6304  0.2051 -0.3109
10627TIP3    H253373   6.029   0.962  13.654 -0.5843  1.5605 -0.7591
10628TIP3   OH253374   1.785   2.698  15.544 -0.6780 -0.1750  0.0235
10628TIP3    H153375   1.869   2.675  15.584 -1.5162 -1.3673  1.1325
10628TIP3    H253376   1.757   2.777  15.590 -0.5105 -0.1866  0.1478
10629TIP3   OH253377   5.398   6.185  16.152  0.1365  0.3810 -0.3084
10629TIP3    H153378   5.445   6.164  16.072  0.5113 -1.3124  0.3530
10629TIP3    H253379   5.316   6.225  16.121 -0.2901 -1.4026 -1.5851
10630TIP3   OH253380   5.698   0.321   5.898 -0.0702  0.5455 -0.2008
10630TIP3    H153381   5.738   0.376   5.965 -0.1054  0.7163 -0.3192
10630TIP3    H253382   5.609   0.304   5.931 -0.7538  2.2521 -1.1241
10631TIP3   OH253383   5.665   0.556   1.300 -0.1814 -0.2763 -0.0480
10631TIP3    H153384   5.630   0.633   1.256 -0.6756 -2.0821 -2.9765
10631TIP3    H253385   5.739   0.528   1.246  2.5250  0.3825  3.1588
10632TIP3   OH253386   3.105   2.781   2.922 -0.0700 -0.2136 -0.5279
10632TIP3    H153387   3.161   2.813   2.851 -0.3519  0.8908 -0.2516
10632TIP3    H253388   3.083   2.859   2.973  0.5494 -1.0660  1.0725
10633TIP3   OH253389   0.952   5.724  15.342  0.1166  1.0388 -0.7351
10633TIP3    H153390   1.012   5.650  15.343  0.1655  1.0690 -1.3406
10633TIP3    H253391   1.009   5.801  15.352  0.0715  1.0027 -0.1703
10634TIP3   OH253392   1.302   4.589  16.080  0.3039  0.4699 -0.1553
10634TIP3    H153393   1.258   4.535  16.014  1.3931 -0.3361 -0.2455
10634TIP3    H253394   1.361   4.645  16.029 -1.0001  1.9575 -0.0875
10635TIP3   OH253395   4.857   0.535   3.462 -0.5952  0.3995  0.6160
10635TIP3    H153396   4.834   0.524   3.370 -1.7362  0.9848  0.8236
10635TIP3    H253397   4.897   0.622   3.466  2.1059 -0.7510  0.1914
10636TIP3   OH253398   2.757   4.394  17.197  0.1948  0.3972 -0.0799
10636TIP3    H153399   2.747   4.314  17.145  1.5211 -0.7108  1.3269
10636TIP3    H253400   2.679   4.446  17.176 -1.7352 -2.1440  0.5149
10637TIP3   OH253401   1.419   0.596  17.217 -0.6021 -0.0910 -0.0227
10637TIP3    H153402   1.373   0.520  17.181 -0.5815  0.9214 -2.2240
10637TIP3    H253403   1.447   0.646  17.141  2.8296  0.1422  1.3034
10638TIP3   OH253404   2.572   0.551   4.674  0.3034  0.2284  0.0337
10638TIP3    H153405   2.561   0.507   4.590 -0.3270  2.3785 -1.0392
10638TIP3    H253406   2.623   0.490   4.727 -0.6685 -1.8318 -1.3570
10639TIP3   OH253407   1.086   3.486  13.209  0.6041  0.1291 -0.2480
10639TIP3    H153408   1.063   3.435  13.131  0.3481  0.4898 -0.4090
10639TIP3    H253409   1.014   3.548  13.219  0.8338  0.3489  0.0473
10640TIP3   OH253410   3.467   2.691   0.437 -0.5447 -0.3869 -0.9437
10640TIP3    H153411   3.408   2.631   0.392 -0.1664  0.3231 -2.4420
10640TIP3    H253412   3.434   2.696   0.526 -0.8746 -2.4208 -0.9281
10641TIP3   OH253413   4.468   6.314  13.204  0.3228 -0.4042 -0.1232
10641TIP3    H153414   4.546   6.291  13.153  0.0992  0.0166 -0.6619
10641TIP3    H253415   4.395   6.277  13.155  0.1260 -0.2103  0.0226
10642TIP3   OH253416   5.635   1.531   3.956  0.5308 -0.1105  0.3397
10642TIP3    H153417   5.633   1.479   3.876  1.6988 -0.0769  0.2760
10642TIP3    H253418   5.656   1.469   4.025  3.0324  0.4264  0.1089
10643TIP3   OH253419   6.216   4.836  13.532  0.4243  0.1719  0.1210
10643TIP3    H153420   6.300   4.873  13.505  1.7482 -1.9089  1.2539
10643TIP3    H253421   6.186   4.895  13.601  1.3619  0.4495  0.3058
10644TIP3   OH253422   6.544   5.945   3.174  1.0338  0.4195  0.2531
10644TIP3    H153423   6.569   5.858   3.144 -0.2544  0.6162 -1.4693
10644TIP3    H253424   6.454   5.956   3.144  0.6923  1.8063  1.6807
10645TIP3   OH253425   6.119   4.984   5.126  0.4593 -0.5277 -0.5513
10645TIP3    H153426   6.045   5.029   5.085  1.7689  0.8360 -1.4805
10645TIP3    H253427   6.173   4.956   5.052  2.2497  0.8874  0.1970
10646TIP3   OH253428   1.122   2.431   0.947  0.3728  0.1161  0.6314
10646TIP3    H153429   1.041   2.479   0.967  0.9967  1.3221  0.2999
10646TIP3    H253430   1.170   2.429   1.029 -0.7410 -2.0862  1.2577
10647TIP3   OH253431   4.635   6.362  10.145 -0.6790  0.0450 -0.5135
10647TIP3    H153432   4.556   6.416  10.149 -0.3772  0.4234  0.4696
10647TIP3    H253433   4.697   6.413  10.092 -0.8051  0.1179 -0.5906
10648TIP3   OH253434   0.085   4.465   2.459  0.0242  0.4428  0.2204
10648TIP3    H153435   0.132   4.387   2.490 -1.9771  0.0707  2.4963
10648TIP3    H253436   0.042   4.499   2.537 -2.5534  1.4033 -1.5539
10649TIP3   OH253437   0.536   0.009  11.831  0.0225  0.4778 -0.0412
10649TIP3    H153438   0.595   0.072  11.788  0.9931 -0.9633 -0.8872
10649TIP3    H253439   0.580  -0.076  11.820 -1.6092 -0.4541  0.4331
10650TIP3   OH253440   2.538   0.097  10.728  0.7115 -0.3402  0.5245
10650TIP3    H153441   2.468   0.153  10.697  0.8170 -0.0585  0.7889
10650TIP3    H253442   2.606   0.103  10.661  2.3785  2.9757  2.3745
10651TIP3   OH253443   1.339   1.809   5.849  0.5401  0.3272  0.0897
10651TIP3    H153444   1.256   1.852   5.866 -0.1518  0.2212 -2.8245
10651TIP3    H253445   1.320   1.715   5.861 -0.1644  0.1829 -2.0072
10652TIP3   OH253446   0.272   0.202   1.020 -0.2707 -0.2931 -0.2718
10652TIP3    H153447   0.316   0.175   1.100  0.4728  0.7352 -0.3157
10652TIP3    H253448   0.312   0.287   0.998 -2.3922  0.7555 -0.2284
10653TIP3   OH253449   2.970   1.398   3.366 -0.4950 -0.2032  0.3967
10653TIP3    H153450   2.954   1.315   3.412 -0.8929  0.0753  0.7719
10653TIP3    H253451   3.065   1.408   3.366 -0.2649 -1.9849 -2.0279
10654TIP3   OH253452   2.388   3.835  10.888  0.4774  1.0598 -0.0800
10654TIP3    H153453   2.414   3.852  10.979  0.2808 -1.3001  0.4409
10654TIP3    H253454   2.441   3.759  10.862 -0.5889  0.7640 -1.4208
10655TIP3   OH253455   0.155   3.392  10.858  0.3163  0.2984 -0.1274
10655TIP3    H153456   0.225   3.353  10.911  0.0175  0.3108  0.2854
10655TIP3    H253457   0.115   3.457  10.917  0.6753  1.0782 -0.7348
10656TIP3   OH253458   1.428   0.095  12.038 -0.0147 -0.1735  0.2214
10656TIP3    H153459   1.473   0.016  12.008  0.3368 -0.3141  1.0912
10656TIP3    H253460   1.472   0.167  11.992  1.3909 -0.2718  1.3326
10657TIP3   OH253461   6.510   5.772   3.933  0.0687 -0.3131 -0.5328
10657TIP3    H153462   6.540   5.821   4.009 -0.0168 -2.7439  1.0968
10657TIP3    H253463   6.550   5.817   3.858  0.7520  1.6404  0.9799
10658TIP3   OH253464   6.390   6.697   1.578 -1.0577  0.2306 -0.0573
10658TIP3    H153465   6.355   6.771   1.528 -2.0242 -0.0760  0.1635
10658TIP3    H253466   6.449   6.737   1.642 -0.1852  0.6654 -1.1115
10659TIP3   OH253467   6.250   0.464   0.540  0.2596 -0.0089  0.1562
10659TIP3    H153468   6.229   0.388   0.487 -0.3755 -0.8405  1.5752
10659TIP3    H253469   6.345   0.460   0.551  0.2339 -0.5701  0.1848
10660TIP3   OH253470   4.342   0.410   1.210  0.3392 -0.6534  0.1009
10660TIP3    H153471   4.376   0.499   1.196  1.4615 -1.3800 -2.0902
10660TIP3    H253472   4.269   0.403   1.149  1.5274 -1.8836 -1.2207
10661TIP3   OH253473   4.916   4.511   5.417  0.3024  0.6165  1.0431
10661TIP3    H153474   4.919   4.568   5.494 -0.3395  0.5413  1.1273
10661TIP3    H253475   4.849   4.446   5.438 -1.1642  1.6508 -0.2846
10662TIP3   OH253476   2.883   1.950  13.523 -0.5636  0.0370 -0.2808
10662TIP3    H153477   2.892   2.045  13.530 -0.0659 -0.1686  2.3587
10662TIP3    H253478   2.789   1.934  13.527 -0.6630  0.4329 -1.0444
10663TIP3   OH253479   4.678   4.194   1.534  0.0336 -0.2804 -0.6375
10663TIP3    H153480   4.605   4.212   1.474  0.3512  0.7330 -0.7303
10663TIP3    H253481   4.649   4.231   1.618 -0.3594 -1.5840 -0.1881
10664TIP3   OH253482   6.131   6.264   1.993  0.2473  0.2241  0.2976
10664TIP3    H153483   6.166   6.344   1.954 -0.5795  0.4150 -0.0722
10664TIP3    H253484   6.207   6.220   2.032  0.9715  0.3933 -0.9001
10665TIP3   OH253485   4.486   5.658   2.458  0.1086  0.3366 -0.3869
10665TIP3    H153486   4.477   5.565   2.479  0.1930 -0.0043 -1.8308
10665TIP3    H253487   4.501   5.700   2.543 -0.4989 -0.8907  0.3370
10666TIP3   OH253488   4.043   6.570   4.263  0.2269  0.2073  0.2933
10666TIP3    H153489   3.963   6.566   4.315 -0.4261 -1.1325 -0.7925
10666TIP3    H253490   4.022   6.629   4.190  0.1062 -0.4330 -0.1933
10667TIP3   OH253491   0.975   0.483  16.779 -0.3676  0.0436  0.0319
10667TIP3    H153492   0.965   0.535  16.859 -0.2866  0.3398 -0.1486
10667TIP3    H253493   1.031   0.410  16.806 -0.0363  0.3403  0.1584
10668TIP3   OH253494   3.737   1.668  11.605 -0.1700  0.5045 -0.0557
10668TIP3    H153495   3.794   1.744  11.589  0.5990  0.4528  2.2556
10668TIP3    H253496   3.793   1.606  11.651 -1.0741 -1.0941 -1.0635
10669TIP3   OH253497   1.823   6.132   4.164 -0.0868 -0.4183 -0.1519
10669TIP3    H153498   1.749   6.179   4.125  0.2286 -0.6672 -1.0517
10669TIP3    H253499   1.894   6.196   4.166 -0.4641 -0.0236  1.1795
10670TIP3   OH253500   1.472   2.851   4.106  0.1741  0.1247 -0.4430
10670TIP3    H153501   1.403   2.821   4.046 -0.5449  0.5390  0.1612
10670TIP3    H253502   1.475   2.784   4.174  0.0240  0.3470 -0.2130
10671TIP3   OH253503   3.943   0.239  11.718  0.0170  0.3159  0.0041
10671TIP3    H153504   3.949   0.195  11.803 -1.4719  0.0411 -0.0139
10671TIP3    H253505   3.854   0.272  11.715  1.0536  3.2187 -0.0713
10672TIP3   OH253506   5.883   1.933   3.996  0.4552  0.2432  0.4361
10672TIP3    H153507   5.819   2.004   4.001  0.8674  0.6924 -0.6257
10672TIP3    H253508   5.952   1.960   4.057  0.2008  0.3339  0.6879
10673TIP3   OH253509   4.582   5.765  12.772  0.6641  0.0354 -0.1228
10673TIP3    H153510   4.554   5.857  12.767  2.4515  0.6555  1.0856
10673TIP3    H253511   4.530   5.728  12.843 -1.2781 -0.3714 -1.6854
10674TIP3   OH253512   3.625   0.134  15.897 -0.1510 -0.2995 -1.0416
10674TIP3    H153513   3.623   0.112  15.803  0.8894 -0.2450 -1.0861
10674TIP3    H253514   3.563   0.074  15.937 -0.1300 -0.7592 -1.6889
10675TIP3   OH253515   6.125   5.679   1.766 -0.0605  0.2408  0.5194
10675TIP3    H153516   6.031   5.665   1.751 -0.3420  0.6800  1.8133
10675TIP3    H253517   6.132   5.771   1.789  0.2464 -0.4864  3.5753
10676TIP3   OH253518   0.447   1.729   0.801 -0.1377 -0.3914 -0.2656
10676TIP3    H153519   0.457   1.768   0.715  0.8872 -0.9189 -0.3962
10676TIP3    H253520   0.448   1.634   0.785  0.0458 -0.4918  0.3234
10677TIP3   OH253521   5.158   2.168  11.277  0.6248 -1.1499  0.3664
10677TIP3    H153522   5.181   2.098  11.216 -0.1738 -0.3689 -0.8518
10677TIP3    H253523   5.167   2.249  11.226 -1.2032 -0.5703  0.9212
10678TIP3   OH253524   6.290   6.126   2.559 -0.3885  0.2947 -0.1096
10678TIP3    H153525   6.253   6.052   2.511  0.1315  1.0465 -1.7097
10678TIP3    H253526   6.236   6.201   2.532 -0.5264  0.6098  1.0189
10679TIP3   OH253527   5.089   4.619   2.611 -0.7645  0.8309  1.0493
10679TIP3    H153528   5.106   4.710   2.635  2.4043  0.5075  0.1389
10679TIP3    H253529   5.171   4.573   2.628 -2.2645 -1.8453  1.3333
10680TIP3   OH253530   5.358   4.295  16.312 -0.0389 -0.0700  0.2696
10680TIP3    H153531   5.406   4.212  16.303 -0.5668 -0.5174  1.3881
10680TIP3    H253532   5.424   4.359  16.337  0.5682  0.1042 -1.7338
10681TIP3   OH253533   2.272   5.948   5.195 -0.2434  0.4017  0.4925
10681TIP3    H153534   2.265   5.853   5.190 -0.1456  0.4010  0.3325
10681TIP3    H253535   2.314   5.972   5.112  0.8365  0.4760  1.0543
10682TIP3   OH253536   2.980   4.990  10.295 -0.4641  0.0507 -0.2886
10682TIP3    H153537   2.961   4.916  10.236 -1.0646 -0.4251  0.4915
10682TIP3    H253538   3.015   4.949  10.374 -0.4451  0.6291  0.0053
10683TIP3   OH253539   1.661   6.323  16.883  0.2182 -0.2030 -0.2748
10683TIP3    H153540   1.612   6.291  16.807 -1.7363  1.8131  0.0609
10683TIP3    H253541   1.730   6.378  16.846  1.5126 -2.0876 -0.7057
10684TIP3   OH253542   3.025   4.970   2.831  0.2390 -0.1725  0.0679
10684TIP3    H153543   2.982   5.051   2.856  0.8838 -1.0074  4.1298
10684TIP3    H253544   2.953   4.911   2.805 -0.1356  2.0304 -4.3248
10685TIP3   OH253545   4.495   1.072  15.783 -0.0061 -0.1238 -0.0966
10685TIP3    H153546   4.441   1.027  15.848 -0.7976 -2.9414 -2.6115
10685TIP3    H253547   4.437   1.139  15.746 -0.1749  0.1849  0.7243
10686TIP3   OH253548   3.618   0.240  12.811  0.4287  0.5164  0.1328
10686TIP3    H153549   3.545   0.183  12.785 -0.1169  1.4065 -0.2937
10686TIP3    H253550   3.646   0.281  12.730 -0.6116  2.5269  0.7540
10687TIP3   OH253551   5.064   6.058   5.535 -0.1033 -0.6721 -0.7989
10687TIP3    H153552   4.986   6.114   5.541 -0.2212 -1.0008  1.0840
10687TIP3    H253553   5.053   6.010   5.453 -2.4062 -1.4575 -0.0604
10688TIP3   OH253554   2.450   1.752   3.033 -0.5909 -0.0654  0.2904
10688TIP3    H153555   2.398   1.674   3.016  1.2080 -1.3725  0.6822
10688TIP3    H253556   2.391   1.811   3.081 -1.9953 -1.1043 -0.1344
10689TIP3   OH253557   5.396   2.147  15.011  0.1582 -0.2326 -0.5073
10689TIP3    H153558   5.348   2.216  15.057 -2.3107 -1.4615 -1.0912
10689TIP3    H253559   5.403   2.178  14.921 -1.9877 -1.1775 -1.0429
10690TIP3   OH253560   4.530   3.716   2.749  0.3692 -0.0340 -0.2573
10690TIP3    H153561   4.522   3.790   2.809 -0.3384 -0.1292 -0.2260
10690TIP3    H253562   4.479   3.742   2.672  0.4947 -0.3014 -0.4329
10691TIP3   OH253563   4.812   2.212  12.871  0.0627  0.3697 -0.6131
10691TIP3    H153564   4.817   2.155  12.948  0.0544  0.0876 -0.8188
10691TIP3    H253565   4.723   2.201  12.838  0.4674 -0.5300 -1.4283
10692TIP3   OH253566   1.754   4.166  15.660  0.2568  0.7148 -0.1936
10692TIP3    H153567   1.842   4.202  15.660 -0.2039  1.8617 -0.5655
10692TIP3    H253568   1.711   4.206  15.736  0.3331 -0.5561  0.5388
10693TIP3   OH253569   4.149   1.770   3.358  0.1978 -0.3224  0.4246
10693TIP3    H153570   4.124   1.836   3.423 -0.7297 -1.8874  1.7156
10693TIP3    H253571   4.239   1.792   3.335 -0.7544  2.5841 -0.7010
10694TIP3   OH253572   4.533   1.130  11.994 -0.0320 -0.0958 -0.2690
10694TIP3    H153573   4.447   1.173  12.000  0.7159  1.9089 -2.9885
10694TIP3    H253574   4.581   1.162  12.070 -0.4231  1.7825 -0.7843
10695TIP3   OH253575   3.137   3.170  15.348  0.7689  0.2594 -0.2681
10695TIP3    H153576   3.160   3.105  15.281 -0.6674 -1.1407  0.5787
10695TIP3    H253577   3.102   3.244  15.298  1.0676 -0.1813 -1.1449
10696TIP3   OH253578   3.561   2.783   5.193  0.4423 -0.3477 -0.1136
10696TIP3    H153579   3.577   2.689   5.202 -0.6589 -0.4584  0.8489
10696TIP3    H253580   3.638   2.824   5.231  1.1765 -0.8626 -1.0363
10697TIP3   OH253581   3.897   4.561  13.678 -0.0065  0.0134 -0.1318
10697TIP3    H153582   3.892   4.483  13.623  1.4328  0.2063 -0.5521
10697TIP3    H253583   3.884   4.528  13.767 -0.2624 -0.5778 -0.3825
10698TIP3   OH253584   2.076   5.058  12.500  0.4954 -0.2473 -0.2518
10698TIP3    H153585   2.163   5.061  12.540  0.0070  0.7226  0.7754
10698TIP3    H253586   2.030   5.132  12.539 -0.3110  0.1567 -1.9153
10699TIP3   OH253587   5.265   0.737  15.990 -0.1953  0.1959 -0.6431
10699TIP3    H153588   5.209   0.807  15.956  0.8861  1.7845  0.7683
10699TIP3    H253589   5.209   0.687  16.049 -0.4603  1.0067 -0.2104
10700TIP3   OH253590   5.004   6.788  10.831  0.4141  0.1142  0.3567
10700TIP3    H153591   4.978   6.834  10.751 -0.8966 -0.0274  0.6971
10700TIP3    H253592   5.034   6.857  10.890  1.3564  0.2231 -0.2321
10701TIP3   OH253593   0.643   4.515   2.624  0.3150 -0.1905 -0.5062
10701TIP3    H153594   0.704   4.528   2.551 -0.0319  2.1893 -0.4263
10701TIP3    H253595   0.564   4.563   2.599 -0.4022 -0.6911  0.7313
10702TIP3   OH253596   1.225   4.607   4.343 -0.2674  0.0186  1.0423
10702TIP3    H153597   1.177   4.526   4.362  0.2098 -1.4026 -3.3282
10702TIP3    H253598   1.159   4.666   4.308  0.0751  0.1212  0.5596
10703TIP3   OH253599   1.252   1.727  16.021 -0.0206  0.5108 -0.3945
10703TIP3    H153600   1.162   1.739  16.050  0.6789  0.4939  1.8804
10703TIP3    H253601   1.302   1.792  16.071  1.5743 -1.2053  0.2860
10704TIP3   OH253602   4.558   6.282   4.687 -0.2226 -0.3491 -0.3265
10704TIP3    H153603   4.643   6.246   4.660 -0.4605 -1.1833  0.0130
10704TIP3    H253604   4.579   6.335   4.764 -0.2681 -2.0950  0.9131
10705TIP3   OH253605   6.071   4.734  15.322  0.5862  0.3691  1.0452
10705TIP3    H153606   6.054   4.728  15.228  1.5024  1.4151  0.8052
10705TIP3    H253607   6.049   4.647  15.356 -1.1148  0.4216  0.0930
10706TIP3   OH253608   2.461   5.190  15.191  0.0624  0.1451 -1.0335
10706TIP3    H153609   2.476   5.282  15.168 -2.4250  0.5313 -1.2520
10706TIP3    H253610   2.438   5.147  15.109 -0.1816 -0.3647 -0.7052
10707TIP3   OH253611   0.014   0.277  16.343  0.3580  0.2192 -0.8956
10707TIP3    H153612  -0.042   0.222  16.398  0.9857 -2.1739 -2.5773
10707TIP3    H253613  -0.039   0.354  16.324 -1.7131 -1.1957 -0.9987
10708TIP3   OH253614   3.569   1.355   5.374 -0.3108  0.1199  0.3919
10708TIP3    H153615   3.593   1.286   5.435 -0.3678  0.6130  0.9754
10708TIP3    H253616   3.651   1.378   5.330 -0.3285 -0.4500  0.0630
10709TIP3   OH253617   2.389   3.601   2.006 -0.3878  0.9418 -0.0991
10709TIP3    H153618   2.335   3.680   2.014 -0.3330  0.9393  0.3166
10709TIP3    H253619   2.404   3.573   2.097 -2.1851 -0.7560 -0.2981
10710TIP3   OH253620   3.590   5.046  12.783  0.2558 -0.1526 -0.8810
10710TIP3    H153621   3.554   5.083  12.702  0.8273  3.5683  0.4844
10710TIP3    H253622   3.685   5.051  12.771  0.3485 -1.0662 -0.5949
10711TIP3   OH253623   4.983   3.026  14.609  0.5271 -0.3832 -0.0537
10711TIP3    H153624   4.931   2.974  14.669 -1.7148  1.9170  0.0611
10711TIP3    H253625   4.970   2.984  14.523 -1.3527  0.0190  0.0167
10712TIP3   OH253626   0.181   0.192  12.681  0.6873  0.0631 -0.5425
10712TIP3    H153627   0.209   0.108  12.646 -0.1656  0.0887 -1.3020
10712TIP3    H253628   0.099   0.173  12.727  0.6144  0.4372 -0.5141
10713TIP3   OH253629   6.176   1.597   3.295 -0.4748  0.1568  0.3054
10713TIP3    H153630   6.124   1.617   3.372 -1.5518 -0.7870 -0.1596
10713TIP3    H253631   6.252   1.655   3.302 -1.3857  1.2902  1.1902
10714TIP3   OH253632   0.748   2.588   1.584 -0.3054  0.1870  0.0787
10714TIP3    H153633   0.841   2.604   1.601  0.0122 -0.9688 -0.5214
10714TIP3    H253634   0.742   2.576   1.490 -1.1954  1.0305  0.0193
10715TIP3   OH253635   2.751   5.754  15.473 -0.5935  0.1835 -0.0846
10715TIP3    H153636   2.774   5.673  15.519 -3.9897 -0.1347  1.2436
10715TIP3    H253637   2.724   5.726  15.386 -0.5319  0.0297 -0.0544
10716TIP3   OH253638   4.793   1.853  15.077 -0.2049  0.1436  0.1792
10716TIP3    H153639   4.769   1.816  14.992  3.8162 -0.5161 -0.7514
10716TIP3    H253640   4.795   1.947  15.062 -1.5507  0.1758  0.1309
10717TIP3   OH253641   4.380   5.450  13.563 -0.0025  0.0726  0.5264
10717TIP3    H153642   4.436   5.380  13.597  1.1666  0.7161 -0.0688
10717TIP3    H253643   4.435   5.498  13.502 -1.7784 -0.4231 -1.5187
10718TIP3   OH253644   3.745   5.801   5.545  0.2704 -0.1537  0.2268
10718TIP3    H153645   3.828   5.779   5.504 -0.2873 -1.4930 -0.2068
10718TIP3    H253646   3.718   5.882   5.501  1.1286  0.0515  0.0667
10719TIP3   OH253647   1.562   5.307  11.137 -0.0520  0.6397  0.6022
10719TIP3    H153648   1.482   5.253  11.142 -0.2199  0.5070 -2.2829
10719TIP3    H253649   1.531   5.391  11.104  0.8524  0.9626  0.5895
10720TIP3   OH253650   1.364   1.617   3.580 -0.0066  0.5916 -0.6961
10720TIP3    H153651   1.457   1.593   3.577  0.1083  0.9136  0.3772
10720TIP3    H253652   1.318   1.535   3.562  0.4967  0.6249 -2.2415
10721TIP3   OH253653   4.025   0.389   4.949  0.0182  0.5546  0.0236
10721TIP3    H153654   4.098   0.330   4.968 -1.7249 -1.4248  0.7658
10721TIP3    H253655   3.993   0.360   4.863 -0.4318  0.8546  0.0882
10722TIP3   OH253656   0.750   6.487  16.465  0.5696 -0.0247  0.1288
10722TIP3    H153657   0.668   6.438  16.464  0.3734  0.2207  1.7937
10722TIP3    H253658   0.808   6.439  16.407 -0.9233  0.1190 -1.5369
10723TIP3   OH253659   6.012   3.394  10.716  0.6492 -0.1530  0.1888
10723TIP3    H153660   6.020   3.485  10.747  0.8607 -0.7561  1.9773
10723TIP3    H253661   6.054   3.342  10.785  1.3599 -1.5419 -1.2688
10724TIP3   OH253662   5.049   6.160  17.201 -0.0382  0.4800  0.6187
10724TIP3    H153663   5.143   6.179  17.195 -0.3819  2.4279  0.8860
10724TIP3    H253664   5.021   6.202  17.283 -1.0539 -0.4797  0.7777
10725TIP3   OH253665   2.402   5.647  16.206  0.9196  0.4705  0.0822
10725TIP3    H153666   2.435   5.683  16.288  0.3303  1.6424 -0.1804
10725TIP3    H253667   2.477   5.601  16.168  1.3621  0.4349  0.9781
10726TIP3   OH253668   5.760   1.775   4.455  0.1829 -0.4178  0.5458
10726TIP3    H153669   5.754   1.867   4.432 -3.4078 -0.4647  1.0561
10726TIP3    H253670   5.732   1.771   4.547  0.3891 -2.0100  0.5579
10727TIP3   OH253671   6.527   3.901  13.455  0.0244  0.3513  0.3348
10727TIP3    H153672   6.432   3.912  13.463  0.2058  0.4847  2.6484
10727TIP3    H253673   6.560   3.989  13.436 -0.2948  0.3286 -0.3352
10728TIP3   OH253674   2.362   4.886  12.270  0.0771  0.1739  0.0416
10728TIP3    H153675   2.457   4.876  12.276  0.0330 -0.1320  0.2307
10728TIP3    H253676   2.347   4.980  12.281  0.2472  0.0480  1.5103
10729TIP3   OH253677   3.386   3.027   4.004 -0.0399 -0.1842  0.3416
10729TIP3    H153678   3.399   3.103   3.947  0.9317 -0.6357 -0.0511
10729TIP3    H253679   3.461   3.028   4.063  0.0905 -0.9463  0.2019
10730TIP3   OH253680   3.610   3.820  13.208  0.4111  0.4508 -0.0494
10730TIP3    H153681   3.533   3.762  13.208  1.5917 -1.1504  0.3259
10730TIP3    H253682   3.596   3.878  13.283 -0.3537  0.0522  0.1192
10731TIP3   OH253683   6.150   2.498   1.508 -0.2417 -0.1785 -0.1173
10731TIP3    H153684   6.141   2.460   1.595  0.6008 -1.7084 -0.6913
10731TIP3    H253685   6.205   2.437   1.460  0.5164  1.3856 -1.2899
10732TIP3   OH253686   2.379   5.271  16.792  0.3756 -0.1780 -0.2531
10732TIP3    H153687   2.418   5.288  16.706 -0.4886  2.9695 -0.0794
10732TIP3    H253688   2.377   5.356  16.835 -1.1470 -1.3427  2.1010
10733TIP3   OH253689   0.152   2.143   4.395 -0.0168  0.1877  0.6623
10733TIP3    H153690   0.190   2.071   4.344 -1.0548 -1.2871  1.9150
10733TIP3    H253691   0.098   2.191   4.332 -0.1254 -0.7374  0.0330
10734TIP3   OH253692   1.806   1.194  11.615  0.2569 -0.0451 -0.4296
10734TIP3    H153693   1.806   1.115  11.669 -0.0163 -0.3087 -0.8108
10734TIP3    H253694   1.898   1.221  11.610  0.3288 -0.2460 -0.1615
10735TIP3   OH253695   3.594   2.570  14.034 -0.0049 -0.2060  0.0754
10735TIP3    H153696   3.586   2.662  14.010 -2.0442 -0.3225  0.1860
10735TIP3    H253697   3.596   2.524  13.950 -0.6755 -0.1587  0.0267
10736TIP3   OH253698   6.135   0.049   3.775 -0.8709 -0.1723  0.2685
10736TIP3    H153699   6.194   0.001   3.716 -0.2031  0.9007  0.0420
10736TIP3    H253700   6.109  -0.015   3.841 -0.4203 -0.9837 -0.3355
10737TIP3   OH253701   1.949   3.904   4.164 -0.3015  0.1266 -0.4389
10737TIP3    H153702   1.926   3.957   4.240  0.1478 -0.8234  0.3782
10737TIP3    H253703   1.867   3.894   4.116 -0.8876 -0.4171  0.6622
10738TIP3   OH253704   5.914   3.678  15.487 -0.1481  0.1154  0.1466
10738TIP3    H153705   5.954   3.764  15.493 -0.8442  0.4073  0.6498
10738TIP3    H253706   5.891   3.655  15.577  2.2450 -1.6727  0.3635
10739TIP3   OH253707   1.005   5.622  13.781 -0.5240 -0.3155  0.2094
10739TIP3    H153708   0.921   5.667  13.771 -0.2756  0.1769  0.3169
10739TIP3    H253709   1.047   5.631  13.696  1.5716  3.8375  1.5375
10740TIP3   OH253710   6.795   2.163   0.123 -0.1055 -0.3780 -0.7263
10740TIP3    H153711   6.731   2.126   0.062 -1.6034  1.9154 -0.6475
10740TIP3    H253712   6.750   2.163   0.208  0.0632  0.9668 -0.6156
10741TIP3   OH253713   2.055   0.170  12.479 -0.3035  0.0716 -0.0336
10741TIP3    H153714   2.123   0.232  12.506  0.2445 -0.9272  0.9207
10741TIP3    H253715   2.011   0.147  12.561 -0.3596 -0.9534 -0.3498
10742TIP3   OH253716   6.750   0.326  12.558 -0.3054  0.3442  0.5558
10742TIP3    H153717   6.806   0.372  12.620 -1.0366  1.7894  0.1760
10742TIP3    H253718   6.726   0.245  12.602  0.3886  0.6809  1.5579
10743TIP3   OH253719   6.587   5.799   2.835 -0.2301  0.0611  0.1531
10743TIP3    H153720   6.523   5.870   2.842 -0.2196  0.0242  0.6210
10743TIP3    H253721   6.588   5.758   2.922 -0.5087 -0.7537 -0.2263
10744TIP3   OH253722   4.202   5.055  14.340 -0.5863  0.2951 -0.2026
10744TIP3    H153723   4.262   5.128  14.358 -0.1487  0.0199 -0.5324
10744TIP3    H253724   4.220   5.032  14.249 -1.7491  0.7183 -0.5503
10745TIP3   OH253725   6.526   1.284   4.971  0.1392 -0.7332  0.2513
10745TIP3    H153726   6.606   1.335   4.982  0.8410 -1.9270  0.7081
10745TIP3    H253727   6.554   1.205   4.926 -1.2010 -0.0541 -1.8182
10746TIP3   OH253728   1.766   2.501  17.232  0.0238 -0.6523 -0.3954
10746TIP3    H153729   1.675   2.504  17.204  0.1788  0.4108 -0.7819
10746TIP3    H253730   1.762   2.481  17.326 -0.5726 -1.4946 -0.5950
10747TIP3   OH253731   0.807   1.492   5.877 -0.4142  0.1318  0.1041
10747TIP3    H153732   0.853   1.419   5.919  0.1488  1.3751  1.7056
10747TIP3    H253733   0.801   1.559   5.946  0.8930  2.3904 -1.9019
10748TIP3   OH253734   6.510   6.084  12.777 -0.3836 -0.3360  0.0136
10748TIP3    H153735   6.585   6.038  12.815 -0.9756 -0.8292  0.5869
10748TIP3    H253736   6.529   6.177  12.791 -0.5165 -0.5013  1.3732
10749TIP3   OH253737   0.963   2.151   2.824  0.5090 -0.0675  0.2565
10749TIP3    H153738   1.046   2.180   2.786  0.9704 -1.6704 -0.0102
10749TIP3    H253739   0.899   2.167   2.755  0.8422 -0.1587 -0.0792
10750TIP3   OH253740   3.078   1.677  13.042 -0.3260 -0.1979  0.3537
10750TIP3    H153741   3.047   1.648  13.128  1.8236 -0.9521  0.9218
10750TIP3    H253742   3.111   1.766  13.058 -0.5521 -0.0782  0.1543
10751TIP3   OH253743   4.088   2.326   5.949  0.1227  0.3647  0.1601
10751TIP3    H153744   4.156   2.337   5.883  1.1586 -0.1425  1.1229
10751TIP3    H253745   4.053   2.238   5.933  0.7954 -0.0005  0.6560
10752TIP3   OH253746   3.454   4.293  14.625 -0.2697 -0.1443 -0.2243
10752TIP3    H153747   3.523   4.315  14.687  0.5010  1.0220 -1.4905
10752TIP3    H253748   3.424   4.206  14.653  1.3475 -0.4427  0.6464
10753TIP3   OH253749   4.285   0.045  14.085 -0.8082  0.4995  0.5829
10753TIP3    H153750   4.361   0.099  14.104 -1.9339  1.8313  1.3766
10753TIP3    H253751   4.321  -0.041  14.064  0.9185  1.1845  0.7088
10754TIP3   OH253752   3.041   2.654  16.731 -0.0540  0.1101 -0.4491
10754TIP3    H153753   3.026   2.745  16.708 -0.1223  0.1071 -0.4165
10754TIP3    H253754   3.092   2.619  16.658 -0.6456 -0.0131 -0.8126
10755TIP3   OH253755   1.057   4.312  11.857  0.7174 -1.0367  0.5613
10755TIP3    H153756   0.980   4.364  11.835  0.3266 -2.1112 -0.6794
10755TIP3    H253757   1.129   4.357  11.813  0.4661 -1.2309 -0.0593
10756TIP3   OH253758   3.129   1.941   6.508 -0.3818  0.1276 -0.2422
10756TIP3    H153759   3.140   2.030   6.542 -0.7202 -0.1237  0.5315
10756TIP3    H253760   3.038   1.919   6.526 -0.4810 -0.1344 -1.0298
10757TIP3   OH253761   4.103   0.282  11.097 -0.2663 -0.3374  0.3128
10757TIP3    H153762   4.146   0.336  11.031 -0.1888 -1.9540 -1.0070
10757TIP3    H253763   4.119   0.327  11.180 -0.3235  1.7136 -0.7567
10758TIP3   OH253764   4.226   1.314  11.425  0.5488 -0.0325  0.1689
10758TIP3    H153765   4.142   1.359  11.440  1.2331  0.6139  2.1860
10758TIP3    H253766   4.263   1.303  11.512  1.6186 -2.2134 -0.5248
10759TIP3   OH253767   5.323   1.770   3.392 -0.2489 -0.4563  0.4521
10759TIP3    H153768   5.414   1.798   3.406 -0.8201  1.0078  1.4083
10759TIP3    H253769   5.286   1.836   3.335 -0.5832 -1.3368 -0.3604
10760TIP3   OH253770   6.077   5.357  12.251 -0.5687  0.5061 -0.6063
10760TIP3    H153771   6.151   5.367  12.192  0.5733  2.5311  1.1233
10760TIP3    H253772   6.092   5.274  12.295  1.6040  1.7106  0.9831
10761TIP3   OH253773   6.401   4.127  17.214 -0.6348 -0.1876  0.0068
10761TIP3    H153774   6.455   4.111  17.291  1.0817  1.6065 -0.7917
10761TIP3    H253775   6.459   4.113  17.140 -1.3365  1.4177 -0.8752
10762TIP3   OH253776   1.451   0.556   0.276 -0.2817 -0.1447  0.1932
10762TIP3    H153777   1.414   0.578   0.191  1.8293 -1.5316 -1.1254
10762TIP3    H253778   1.425   0.465   0.291 -1.5725  0.4282  1.5590
10763TIP3   OH253779   3.652   2.434   5.893  0.3222 -0.3419 -0.4286
10763TIP3    H153780   3.727   2.464   5.842  0.8932 -0.1510  0.4931
10763TIP3    H253781   3.649   2.495   5.968  0.3262 -1.4212  0.4636
10764TIP3   OH253782   0.714   6.516  13.793 -0.3929  0.4594  0.1531
10764TIP3    H153783   0.728   6.524  13.887 -3.6526  0.7595  0.6856
10764TIP3    H253784   0.774   6.447  13.765 -1.0722 -1.3060  2.8928
10765TIP3   OH253785   6.338   5.515   1.466 -0.1450 -0.3288  0.0700
10765TIP3    H153786   6.271   5.490   1.530  0.0604 -0.1654  0.3480
10765TIP3    H253787   6.411   5.456   1.484  0.7534  1.1921  1.4363
10766TIP3   OH253788   0.598   2.684   6.020 -0.3053  0.1313  0.4203
10766TIP3    H153789   0.567   2.703   5.932 -0.7690 -0.9880  0.3352
10766TIP3    H253790   0.520   2.658   6.068  0.0842 -0.1576  0.9111
10767TIP3   OH253791   3.606   6.022   4.191  0.3875 -0.4669  0.2283
10767TIP3    H153792   3.557   5.940   4.200 -0.1231 -0.0852  0.9307
10767TIP3    H253793   3.626   6.047   4.281 -0.8667  1.0413  0.1009
10768TIP3   OH253794   0.671   4.719   0.979 -0.0036 -0.2306 -0.2726
10768TIP3    H153795   0.745   4.776   0.959  0.2053 -0.8806 -1.3810
10768TIP3    H253796   0.705   4.658   1.044  1.2130 -2.1249 -2.5989
10769TIP3   OH253797   4.820   2.197   0.029 -0.4732 -0.3828 -0.0202
10769TIP3    H153798   4.743   2.215  -0.024 -1.2464 -0.1615  1.1505
10769TIP3    H253799   4.845   2.108   0.007 -0.6417 -0.2113 -0.9218
10770TIP3   OH253800   3.825   0.024   4.228  0.6588  0.8246  0.1938
10770TIP3    H153801   3.839  -0.032   4.151  2.0653  0.6928  0.5408
10770TIP3    H253802   3.742  -0.008   4.265  1.6646 -1.3438  0.6436
10771TIP3   OH253803   2.213   1.422   2.729  0.0194 -0.2346 -0.2007
10771TIP3    H153804   2.204   1.511   2.698 -1.1348 -0.5941 -0.8966
10771TIP3    H253805   2.237   1.371   2.652  0.4926 -0.5627  0.1562
10772TIP3   OH253806   5.281   6.582  11.118  0.4696 -0.2988 -0.2858
10772TIP3    H153807   5.355   6.523  11.131 -0.4704 -1.1568  1.2997
10772TIP3    H253808   5.227   6.539  11.051  1.3071  0.2443 -1.3169
10773TIP3   OH253809   1.695   3.518   3.777  0.2554  0.1993  0.2110
10773TIP3    H153810   1.787   3.544   3.771  0.0342  1.2816  1.1670
10773TIP3    H253811   1.697   3.433   3.820  0.8667 -0.2616 -0.7246
10774TIP3   OH253812   2.900   3.616   1.656 -0.4989 -0.5015  0.0165
10774TIP3    H153813   2.812   3.585   1.676 -1.2673 -0.9824 -3.7699
10774TIP3    H253814   2.949   3.604   1.737 -3.7833 -0.6479  2.0505
10775TIP3   OH253815   4.883   1.363  16.031 -0.0191  0.3255  0.7366
10775TIP3    H153816   4.806   1.358  16.087 -0.8512  2.1679 -0.1739
10775TIP3    H253817   4.948   1.410  16.083  0.7481 -1.7899  1.7434
10776TIP3   OH253818   2.130   5.842   2.835 -1.0543 -0.0326  0.1321
10776TIP3    H153819   2.080   5.907   2.884 -1.6266 -1.2997  1.2434
10776TIP3    H253820   2.109   5.758   2.877  1.2299 -0.7038 -0.0064
10777TIP3   OH253821   4.125   6.247  15.737 -0.1155 -0.7906 -0.0452
10777TIP3    H153822   4.126   6.184  15.810  2.3345 -0.1887  0.4820
10777TIP3    H253823   4.180   6.319  15.767  0.1562 -0.0919 -2.1553
10778TIP3   OH253824   3.377   3.788   3.977 -0.2772  0.1481  0.5647
10778TIP3    H153825   3.324   3.721   3.933 -0.8610 -0.3017  1.9187
10778TIP3    H253826   3.384   3.757   4.067  1.0564  0.9669  0.7516
10779TIP3   OH253827   4.776   0.764  15.918  0.2789 -0.3499  0.0454
10779TIP3    H153828   4.809   0.825  15.984 -2.0238  1.6109 -0.5647
10779TIP3    H253829   4.759   0.683  15.966  1.5606  0.0594  1.2275
10780TIP3   OH253830   0.481   6.028  16.023 -0.7166  0.1485  0.2745
10780TIP3    H153831   0.455   6.038  15.932 -0.7715 -0.0463  0.2683
10780TIP3    H253832   0.577   6.032  16.021 -0.7594  1.5389  0.3788
10781TIP3   OH253833   3.705   6.769  16.826 -0.1261 -0.8429  0.4875
10781TIP3    H153834   3.667   6.823  16.895  0.2737 -1.1253  0.9350
10781TIP3    H253835   3.775   6.721  16.870  0.5668 -0.5275 -0.2732
10782TIP3   OH253836   0.513   3.211  15.120 -0.3818  0.3593 -0.1115
10782TIP3    H153837   0.529   3.150  15.191 -0.9979 -0.0580 -0.3303
10782TIP3    H253838   0.440   3.265  15.150 -0.4948  0.3308 -0.3282
10783TIP3   OH253839   0.381   4.345  15.785 -0.5050  0.2416 -0.2106
10783TIP3    H153840   0.459   4.292  15.771 -0.7423 -0.0064 -0.6020
10783TIP3    H253841   0.367   4.390  15.702  0.3700  1.8382  0.4855
10784TIP3   OH253842   3.184   5.401  12.626  0.0746  0.3920  0.3182
10784TIP3    H153843   3.145   5.351  12.697  0.7354 -1.3377 -0.5033
10784TIP3    H253844   3.267   5.432  12.662  0.6666 -0.9469  0.1579
10785TIP3   OH253845   3.846   1.617   2.420  0.0560 -0.1555  0.7107
10785TIP3    H153846   3.816   1.645   2.333 -1.3656  0.5853  1.4317
10785TIP3    H253847   3.772   1.569   2.456  0.9022 -1.0823  1.2546
10786TIP3   OH253848   5.948   1.427   3.298  0.3445 -0.2567  0.2708
10786TIP3    H153849   6.030   1.471   3.275  0.5010 -0.2610  0.8185
10786TIP3    H253850   5.894   1.497   3.335  0.8190 -0.6374  1.7147
10787TIP3   OH253851   0.260   5.827   5.209 -0.7053  0.0070  0.1046
10787TIP3    H153852   0.193   5.780   5.258  0.5218 -2.5552 -0.6239
10787TIP3    H253853   0.324   5.761   5.184  1.2199  2.0939 -0.7430
10788TIP3   OH253854   3.099   2.369  13.591 -0.0775 -0.0080  0.0190
10788TIP3    H153855   3.090   2.287  13.640  3.0456 -0.9988 -0.9463
10788TIP3    H253856   3.060   2.351  13.506  1.1750 -0.7238 -0.4131
10789TIP3   OH253857   0.230   5.838   1.517  0.5268  0.0840  0.1704
10789TIP3    H153858   0.272   5.867   1.436 -0.0115  0.9207  0.1809
10789TIP3    H253859   0.292   5.858   1.586 -0.1847  2.0758  0.2820
10790TIP3   OH253860   1.665   4.893  14.243  0.2569 -0.4169 -0.8958
10790TIP3    H153861   1.672   4.970  14.300  2.8556 -1.1085 -0.2066
10790TIP3    H253862   1.620   4.828  14.297  0.0192 -0.0929 -0.6965
10791TIP3   OH253863   5.155   1.698  15.689 -0.2296 -0.1567 -0.1112
10791TIP3    H153864   5.117   1.612  15.672 -1.9871  0.5033  0.3756
10791TIP3    H253865   5.174   1.733  15.602  0.2565 -0.9290 -0.3199
10792TIP3   OH253866   0.503   3.922   3.758 -0.8004 -0.3482 -0.5554
10792TIP3    H153867   0.474   3.845   3.806 -2.4964 -0.5286 -1.7939
10792TIP3    H253868   0.459   3.996   3.801  0.7882 -0.0647  0.6042
10793TIP3   OH253869   0.199   1.819   1.007 -1.2800  0.3755 -0.1257
10793TIP3    H153870   0.152   1.873   0.945 -0.5868  1.1828  0.0405
10793TIP3    H253871   0.238   1.750   0.954 -3.3458 -0.8096 -0.1514
10794TIP3   OH253872   2.926   5.116  13.772 -0.2149  0.7134 -0.2339
10794TIP3    H153873   2.980   5.183  13.814  1.4416  0.9135 -2.6195
10794TIP3    H253874   2.923   5.045  13.836  0.3751  1.9036  1.1598
10795TIP3   OH253875   6.472   1.392   3.698  0.8090 -0.3133  0.1772
10795TIP3    H153876   6.412   1.335   3.746  1.0747  0.1416  1.0519
10795TIP3    H253877   6.544   1.408   3.758  0.0688  2.0973  0.4946
10796TIP3   OH253878   4.640   2.485   2.678  0.6074  0.1744 -0.2325
10796TIP3    H153879   4.606   2.524   2.597  1.3010  0.0698 -0.5766
10796TIP3    H253880   4.619   2.549   2.746  0.5092  0.5195 -0.5831
10797TIP3   OH253881   2.058   4.314  13.343 -0.2913  0.0102  0.6477
10797TIP3    H153882   1.974   4.269  13.335 -0.2577 -0.3467  2.0467
10797TIP3    H253883   2.039   4.405  13.324 -0.3334 -0.5761 -2.4229
10798TIP3   OH253884   2.633   5.175  14.949 -0.1015 -0.4804  0.4060
10798TIP3    H153885   2.708   5.126  14.983  0.1436 -0.5917 -0.3026
10798TIP3    H253886   2.671   5.251  14.905 -0.4103 -0.5538  0.0162
10799TIP3   OH253887   2.362   6.164  17.090  0.2029  0.5105  0.3358
10799TIP3    H153888   2.330   6.077  17.065  1.5307 -0.4462  1.8311
10799TIP3    H253889   2.395   6.152  17.179 -1.2065  2.9875  1.2336
10800TIP3   OH253890   6.297   0.528  15.677  0.0767  0.0979  0.1630
10800TIP3    H153891   6.339   0.598  15.727  0.3043  0.4080 -0.4487
10800TIP3    H253892   6.358   0.510  15.606 -0.8512  0.6264 -0.8024
10801TIP3   OH253893   0.287   5.603   3.407  0.1633 -0.1474 -0.1867
10801TIP3    H153894   0.359   5.577   3.464 -0.4536 -0.5267  0.4266
10801TIP3    H253895   0.208   5.588   3.459 -0.4683 -1.4643 -1.4918
10802TIP3   OH253896   0.093   5.267  12.118 -0.5900 -0.3190 -0.7717
10802TIP3    H153897   0.007   5.257  12.161 -0.4419  1.2662 -0.0836
10802TIP3    H253898   0.090   5.354  12.080  1.7321  0.8503  1.5985
10803TIP3   OH253899   6.661   2.149   0.375  0.1472  0.4906  0.3650
10803TIP3    H153900   6.732   2.185   0.428 -0.6436  0.5362  1.4139
10803TIP3    H253901   6.592   2.128   0.439  0.0692 -1.6080 -0.3815
10804TIP3   OH253902   4.684   5.777   2.048 -0.1944  0.2514  0.9354
10804TIP3    H153903   4.617   5.720   2.086  1.5001 -1.6419  1.1839
10804TIP3    H253904   4.716   5.829   2.122 -1.3970  1.2042  0.8050
10805TIP3   OH253905   4.128   5.893   3.640 -0.5992 -0.3736  0.1237
10805TIP3    H153906   4.107   5.987   3.634  1.3047  0.1159  0.8218
10805TIP3    H253907   4.080   5.853   3.568  0.0614  1.4182 -1.3342
10806TIP3   OH253908   4.259   2.203  13.132  0.2796  0.3154  0.2085
10806TIP3    H153909   4.178   2.202  13.081  1.6968 -1.1003 -2.1096
10806TIP3    H253910   4.279   2.296  13.142 -1.9346  0.7154  1.3836
10807TIP3   OH253911   5.762   4.469   5.994  0.1289  0.2932 -0.0959
10807TIP3    H153912   5.775   4.391   6.048 -1.6872 -1.3943 -1.9923
10807TIP3    H253913   5.703   4.525   6.045 -0.7963 -0.8435  0.0995
10808TIP3   OH253914   6.127   5.927   1.910  0.8731  0.7956 -0.4020
10808TIP3    H153915   6.199   5.973   1.866 -0.0251  3.7678  1.1046
10808TIP3    H253916   6.166   5.896   1.993  1.6762 -1.9620 -1.7243
10809TIP3   OH253917   1.082   2.596  15.043  0.4258 -0.2971 -0.1280
10809TIP3    H153918   1.023   2.669  15.028 -1.4115 -1.5648  0.6653
10809TIP3    H253919   1.169   2.635  15.049 -0.4995  1.7729  0.0610
10810TIP3   OH253920   6.083   0.819   4.075 -0.0854 -0.1683  0.2031
10810TIP3    H153921   6.120   0.769   4.002 -0.9259  0.8297 -0.9066
10810TIP3    H253922   6.005   0.769   4.101 -1.3192  0.9040 -1.3599
10811TIP3   OH253923   0.781   4.018  15.290 -0.7512  0.6779  0.2136
10811TIP3    H153924   0.715   4.069  15.243 -1.4345 -1.2401 -0.9669
10811TIP3    H253925   0.841   3.989  15.222  0.9545  1.8122  1.1952
10812TIP3   OH253926   0.919   2.116   4.488 -0.1558  0.3391  0.0653
10812TIP3    H153927   0.852   2.179   4.512 -2.2558 -1.3322 -1.2134
10812TIP3    H253928   0.907   2.044   4.550  0.1020 -0.2107 -0.5196
10813TIP3   OH253929   1.487   3.618   5.968 -0.2219 -0.4387 -0.8502
10813TIP3    H153930   1.522   3.568   6.042 -1.3377 -2.0080 -1.3867
10813TIP3    H253931   1.565   3.649   5.922  0.4771 -1.1757 -0.1828
10814TIP3   OH253932   5.904   3.297  11.298  0.0294  0.5119 -0.1749
10814TIP3    H153933   5.994   3.267  11.285 -0.1156 -1.0692  2.1199
10814TIP3    H253934   5.853   3.247  11.234  0.7170  1.2461 -1.3255
10815TIP3   OH253935   6.591   4.983   1.199 -0.3624 -0.1076  0.1556
10815TIP3    H153936   6.638   5.058   1.236 -2.0635  0.2729  1.5557
10815TIP3    H253937   6.585   5.003   1.105  1.7770  0.0855  0.0193
10816TIP3   OH253938   1.818   3.493   4.409  0.1279 -0.6027 -0.2012
10816TIP3    H153939   1.748   3.490   4.475 -0.2725  1.2025 -0.5305
10816TIP3    H253940   1.859   3.406   4.414  0.5914 -0.2614  2.9514
10817TIP3   OH253941   3.705   6.238  17.130  0.4799 -0.5381  0.5927
10817TIP3    H153942   3.768   6.196  17.071 -0.3603 -1.0820  0.0640
10817TIP3    H253943   3.636   6.173  17.141 -0.0379  0.0905  1.0782
10818TIP3   OH253944   2.521   2.707  15.727 -0.0024  0.0026  0.0552
10818TIP3    H153945   2.476   2.782  15.767  1.8554  0.9388  0.4327
10818TIP3    H253946   2.545   2.652  15.801 -1.5589 -1.1233 -0.2354
10819TIP3   OH253947   5.154   0.375   2.705  0.2757  0.1592  0.4086
10819TIP3    H153948   5.168   0.315   2.631 -0.5134  0.3971  0.0673
10819TIP3    H253949   5.187   0.459   2.673  1.3433 -0.0742  0.8733
10820TIP3   OH253950   1.798   4.701  13.399  0.2364 -0.1571 -0.0393
10820TIP3    H153951   1.743   4.752  13.459 -1.7367 -0.6333 -1.3945
10820TIP3    H253952   1.825   4.764  13.332  0.8478 -0.0714  0.2820
10821TIP3   OH253953   4.452   5.661   2.160  1.1679 -0.3804 -0.8787
10821TIP3    H153954   4.466   5.571   2.129 -2.2532 -0.8616 -1.1880
10821TIP3    H253955   4.474   5.658   2.253  0.3850 -1.7215 -0.7312
10822TIP3   OH253956   0.226   3.621   2.256 -0.8317  0.1317  0.5819
10822TIP3    H153957   0.179   3.587   2.180  1.3438 -1.5300 -0.0478
10822TIP3    H253958   0.303   3.565   2.264  0.2415  1.8311  2.5379
10823TIP3   OH253959   0.013   5.939  14.028 -0.0728 -0.2912 -0.2439
10823TIP3    H153960   0.041   5.988  14.106 -1.2018 -0.2350  0.1459
10823TIP3    H253961   0.088   5.885  14.005  0.2221 -0.4209  0.9841
10824TIP3   OH253962   1.982   6.115  17.161  0.3156 -0.2382 -0.1161
10824TIP3    H153963   2.025   6.158  17.234  0.7634 -0.8752 -0.0053
10824TIP3    H253964   1.893   6.097  17.192  0.4674 -0.3948  0.2319
10825TIP3   OH253965   4.422   5.523  11.008 -0.3594  0.2043  0.5557
10825TIP3    H153966   4.333   5.487  11.014 -0.4928  0.2772 -0.7514
10825TIP3    H253967   4.410   5.618  11.017 -0.2423  0.0960  1.8905
10826TIP3   OH253968   3.501   1.347   4.587  0.5695 -0.6692  0.1068
10826TIP3    H153969   3.584   1.391   4.570 -0.5135  1.8538  1.0012
10826TIP3    H253970   3.494   1.344   4.682 -0.8188  0.0658  0.0408
10827TIP3   OH253971   0.513   5.879   5.961 -0.0074 -0.4654  0.7942
10827TIP3    H153972   0.428   5.904   5.997  0.1631 -1.2899  1.8197
10827TIP3    H253973   0.515   5.917   5.874 -0.6444  1.1936  1.4800
10828TIP3   OH253974   5.498   1.770   1.366 -0.4421 -0.4144  0.5143
10828TIP3    H153975   5.429   1.770   1.432 -0.8014 -0.0395  0.1405
10828TIP3    H253976   5.453   1.749   1.284 -0.1027 -0.2249  0.2802
10829TIP3   OH253977   4.923   1.882  17.168  0.1425 -0.0421  0.3771
10829TIP3    H153978   4.833   1.856  17.188  0.6028 -1.8513  0.1952
10829TIP3    H253979   4.976   1.838  17.235  0.9698  0.2564 -0.0778
10830TIP3   OH253980   5.020   4.513   0.435  0.7438  0.4442  0.1324
10830TIP3    H153981   4.947   4.465   0.397  0.9650  0.8921 -0.8783
10830TIP3    H253982   4.980   4.565   0.506  0.3295 -0.3799  0.5039
10831TIP3   OH253983   0.560   2.925   5.278 -0.5731 -0.3655 -0.4835
10831TIP3    H153984   0.470   2.939   5.251 -0.8912  0.1699  0.8177
10831TIP3    H253985   0.555   2.857   5.345  0.0852 -0.9539 -1.0260
10832TIP3   OH253986   1.060   2.362  14.577 -0.2907 -0.3487  0.2493
10832TIP3    H153987   1.088   2.337  14.665  2.2658 -1.2994 -0.7874
10832TIP3    H253988   1.067   2.457  14.575  0.2289 -0.3704  0.8856
10833TIP3   OH253989   6.703   0.226  15.292 -0.5071  0.1891 -0.5982
10833TIP3    H153990   6.638   0.256  15.355  0.7861 -0.0313  0.8834
10833TIP3    H253991   6.691   0.131  15.289  0.2633  0.0512  0.3012
10834TIP3   OH253992   4.129   5.750  11.473 -0.2615  0.4670 -0.3875
10834TIP3    H153993   4.046   5.762  11.518  0.6314 -0.6300  1.6352
10834TIP3    H253994   4.172   5.835  11.477 -0.4998  0.5620  0.2189
10835TIP3   OH253995   4.687   1.828  11.984  0.4574  0.5241 -0.1100
10835TIP3    H153996   4.650   1.790  11.905 -1.6211  1.5760  0.3148
10835TIP3    H253997   4.629   1.799  12.054  1.9682  0.0416  0.9655
10836TIP3   OH253998   2.459   0.464  14.572 -0.1353  0.6191 -0.4967
10836TIP3    H153999   2.426   0.387  14.525 -1.7477  1.3153 -0.5301
10836TIP3    H254000   2.521   0.428  14.636  0.1452 -0.5737 -1.4107
10837TIP3   OH254001   1.425   1.000   0.966  0.7303  0.0878  0.2120
10837TIP3    H154002   1.330   0.999   0.965  0.7328 -0.9411  0.0934
10837TIP3    H254003   1.449   0.971   1.054  0.9357  0.1630  0.1820
10838TIP3   OH254004   3.344   1.474  13.307 -0.3925  0.0733  0.8951
10838TIP3    H154005   3.372   1.508  13.222  1.2698 -3.1527  0.0762
10838TIP3    H254006   3.249   1.476  13.303 -0.3407  1.2543 -0.4727
10839TIP3   OH254007   5.963   6.401  17.231  0.1418 -0.1583 -0.0988
10839TIP3    H154008   6.036   6.462  17.236 -0.1964  0.2521 -0.0952
10839TIP3    H254009   5.915   6.427  17.152  0.1258 -0.5701 -0.2244
10840TIP3   OH254010   3.009   4.590  11.143 -0.3847 -0.6629  0.4391
10840TIP3    H154011   2.956   4.541  11.206 -1.6702 -0.5459 -0.5372
10840TIP3    H254012   2.947   4.619  11.076  0.9844 -0.9560 -0.9885
10841TIP3   OH254013   1.909   2.051  13.087 -0.8191  0.6883  0.2827
10841TIP3    H154014   1.852   2.123  13.060  0.3170  1.5759  0.1783
10841TIP3    H254015   1.985   2.095  13.127  0.8764 -0.3148 -1.6803
10842TIP3   OH254016   0.160   1.597   0.033 -0.4661 -0.3370 -0.3002
10842TIP3    H154017   0.183   1.593   0.126 -0.2866  0.2344 -0.3189
10842TIP3    H254018   0.244   1.594  -0.013 -0.5702 -0.8874 -0.4521
10843TIP3   OH254019   1.578   3.975  14.250  0.0384  0.0293 -0.4387
10843TIP3    H154020   1.492   4.015  14.241  0.2477  1.1239  1.9303
10843TIP3    H254021   1.639   4.039  14.214  0.0116  0.0695 -0.4114
10844TIP3   OH254022   2.803   3.388   4.515 -0.1377 -0.1248  0.4814
10844TIP3    H154023   2.841   3.411   4.600 -1.5404  1.6090  0.6602
10844TIP3    H254024   2.837   3.454   4.455  0.9974 -1.4611 -0.3589
10845TIP3   OH254025   5.677   4.431   5.437 -0.0421  0.1022  0.6794
10845TIP3    H154026   5.743   4.363   5.452 -1.5126 -0.7477  3.8852
10845TIP3    H254027   5.712   4.509   5.480 -0.9818 -0.2950  2.2099
10846TIP3   OH254028   4.357   6.653   0.545  0.3758 -0.9913 -1.0622
10846TIP3    H154029   4.338   6.746   0.532  1.7732 -0.4906  0.3608
10846TIP3    H254030   4.306   6.609   0.477 -0.3661  0.8033 -1.7063
10847TIP3   OH254031   4.620   4.998   4.304 -0.8158  0.4093  0.3827
10847TIP3    H154032   4.568   4.936   4.356 -1.3586  1.1339  0.7203
10847TIP3    H254033   4.711   4.978   4.327 -1.0141  0.1101  0.9135
10848TIP3   OH254034   6.768   5.034  11.840 -0.0474 -0.0886  0.1004
10848TIP3    H154035   6.737   5.023  11.929  1.2345 -1.6982  0.3812
10848TIP3    H254036   6.760   5.128  11.822 -1.6458  0.0323  1.3849
10849TIP3   OH254037   2.988   4.131   1.575  0.4961 -0.1919  0.3254
10849TIP3    H154038   2.903   4.174   1.561  0.9612 -0.0251 -2.2591
10849TIP3    H254039   2.971   4.039   1.556  0.7017 -0.2874  0.6134
10850TIP3   OH254040   2.010   3.033  13.393  0.1071  0.4196 -0.2937
10850TIP3    H154041   1.996   3.127  13.384 -0.4492  0.4039  0.3873
10850TIP3    H254042   2.033   3.021  13.485 -0.9994 -0.2538 -0.0964
10851TIP3   OH254043   4.603   5.743  16.176  0.0666 -0.1883 -0.0280
10851TIP3    H154044   4.527   5.800  16.189  0.5337  0.0106  2.0138
10851TIP3    H254045   4.567   5.654  16.184 -0.1362 -0.1166 -0.1215
10852TIP3   OH254046   5.634   0.299  13.053 -0.4629 -0.3782  0.0926
10852TIP3    H154047   5.654   0.215  13.012 -0.9210  0.1338 -1.1985
10852TIP3    H254048   5.720   0.335  13.076 -0.0848 -0.0024 -1.8003
10853TIP3   OH254049   2.891   2.821   3.295  0.4200 -0.1422 -0.4126
10853TIP3    H154050   2.980   2.850   3.311  0.3156 -0.4687  0.8043
10853TIP3    H254051   2.837   2.897   3.316  0.2010 -0.9424  1.9891
10854TIP3   OH254052   3.083   1.402  16.480  0.3024 -0.5004  0.0458
10854TIP3    H154053   3.085   1.368  16.569  1.0079 -0.8422 -0.0982
10854TIP3    H254054   3.175   1.403  16.452  0.1674  0.3335 -0.3991
10855TIP3   OH254055   3.659   0.586  15.115  0.1750  0.2701  0.0959
10855TIP3    H154056   3.574   0.624  15.136 -0.1360 -0.4482  0.1479
10855TIP3    H254057   3.642   0.492  15.106  0.7913  0.2317 -0.7874
10856TIP3   OH254058   0.176   0.309  13.572  0.1235  0.3235  0.1291
10856TIP3    H154059   0.090   0.349  13.562 -0.9624 -1.6795  1.2308
10856TIP3    H254060   0.183   0.245  13.501  0.8442  0.6897 -0.1423
10857TIP3   OH254061   1.907   6.413   5.639 -0.1282 -0.8257 -0.1278
10857TIP3    H154062   1.839   6.473   5.608  0.8152  1.5127  2.1134
10857TIP3    H254063   1.924   6.356   5.565 -2.6921  0.2216 -1.5915
10858TIP3   OH254064   3.231   0.048   4.515 -0.2336  0.4922 -0.0055
10858TIP3    H154065   3.241   0.087   4.429  1.8635 -1.5326 -0.7292
10858TIP3    H254066   3.219  -0.045   4.498  1.6084 -0.1383  1.8940
10859TIP3   OH254067   3.202   0.679  13.172  0.2063 -0.6020 -0.6244
10859TIP3    H154068   3.133   0.625  13.209  0.8081 -0.0980  1.2615
10859TIP3    H254069   3.197   0.663  13.078 -3.4592  0.5851 -0.7149
10860TIP3   OH254070   5.608   3.327  12.557  0.0399 -0.0221 -0.8360
10860TIP3    H154071   5.594   3.422  12.551 -0.0132  0.0189 -0.1170
10860TIP3    H254072   5.637   3.313  12.647 -0.7339 -0.7924 -0.6986
10861TIP3   OH254073   5.112   2.114  12.997 -0.3200  0.0204 -0.2780
10861TIP3    H154074   5.183   2.079  12.944  0.5121 -0.4632  1.1450
10861TIP3    H254075   5.121   2.209  12.989  0.2827 -0.0429 -0.3696
10862TIP3   OH254076   4.499   0.537   4.916 -0.0700  0.2391  0.1939
10862TIP3    H154077   4.536   0.529   5.004 -0.3350 -0.2518  0.2659
10862TIP3    H254078   4.480   0.447   4.890 -1.3896  0.4825  0.2383
10863TIP3   OH254079   4.139   6.535   1.867  0.4097 -0.2581 -0.6769
10863TIP3    H154080   4.113   6.514   1.957  0.5014 -0.6343 -0.7404
10863TIP3    H254081   4.201   6.466   1.842  0.2829 -0.2302 -1.0768
10864TIP3   OH254082   1.364   0.391   3.331 -0.8378 -0.0993 -0.1580
10864TIP3    H154083   1.313   0.323   3.376  2.2437 -1.2588  1.6890
10864TIP3    H254084   1.367   0.463   3.395 -2.0714  0.8962 -1.1851
10865TIP3   OH254085   2.137   4.879   1.439  0.7824  0.3709 -0.0815
10865TIP3    H154086   2.129   4.897   1.533 -1.3976 -0.5275 -0.0771
10865TIP3    H254087   2.084   4.801   1.425  2.5023 -0.5209 -1.7666
10866TIP3   OH254088   1.653   1.247   5.395 -0.6099 -0.4753  0.4739
10866TIP3    H154089   1.727   1.281   5.344 -1.7779  2.7060  0.7482
10866TIP3    H254090   1.692   1.206   5.472  0.9422 -0.4366 -0.2906
10867TIP3   OH254091   0.634   6.265   4.578 -0.1137 -0.2533  0.3363
10867TIP3    H154092   0.634   6.171   4.596 -2.3799 -1.0625 -3.3267
10867TIP3    H254093   0.562   6.300   4.630  1.4170 -0.3082  2.5501
10868TIP3   OH254094   3.439   2.217   2.110 -0.1371  0.0726  0.5037
10868TIP3    H154095   3.437   2.136   2.162 -0.1943 -0.1454  0.1631
10868TIP3    H254096   3.528   2.250   2.121 -0.0833 -0.0910  0.5583
10869TIP3   OH254097   2.403   2.351   1.372  0.2837  0.4439  0.0046
10869TIP3    H154098   2.343   2.353   1.446  0.7203  0.4480  0.3649
10869TIP3    H254099   2.409   2.258   1.347 -2.0169  0.7350 -1.8234
10870TIP3   OH254100   1.366   6.606   0.704  0.8978 -0.1995  0.3125
10870TIP3    H154101   1.445   6.634   0.750  1.9335 -2.5778  0.0921
10870TIP3    H254102   1.394   6.594   0.614  0.0572 -0.1275  0.0399
10871TIP3   OH254103   1.123   4.471  12.216 -0.2790 -0.1736  0.3228
10871TIP3    H154104   1.056   4.402  12.213 -0.7737  0.2838  0.7239
10871TIP3    H254105   1.095   4.529  12.287 -0.5468  1.1463 -0.8309
10872TIP3   OH254106   2.237   1.238  17.205 -0.5680 -0.7644  0.1745
10872TIP3    H154107   2.243   1.294  17.282 -0.9872  1.2565 -1.2338
10872TIP3    H254108   2.309   1.176  17.215  0.8937  1.0192  0.9562
10873TIP3   OH254109   0.919   6.418   1.266  0.5020  0.2629 -0.7097
10873TIP3    H154110   0.878   6.383   1.187  0.8264  0.1163 -0.8135
10873TIP3    H254111   0.974   6.490   1.235  0.6652  0.1763 -0.6230
10874TIP3   OH254112   4.740   5.625  11.114  0.1669  0.5123 -0.2539
10874TIP3    H154113   4.689   5.601  11.191 -1.5879  2.4788 -0.7706
10874TIP3    H254114   4.677   5.627  11.042  1.0225  2.4934 -1.0012
10875TIP3   OH254115   2.804   5.501  14.144 -0.1398  0.5326 -0.1214
10875TIP3    H154116   2.750   5.494  14.065 -0.5158 -0.8426  0.2457
10875TIP3    H254117   2.887   5.459  14.120 -0.7677 -1.2268  0.6433
10876TIP3   OH254118   5.935   1.822  16.230 -0.3761  0.0490  0.7041
10876TIP3    H154119   5.932   1.918  16.226  1.8087  0.0648 -3.5067
10876TIP3    H254120   5.861   1.793  16.177  0.2618 -0.5255  0.1087
10877TIP3   OH254121   0.042   0.073   5.493 -0.3723  0.1648 -0.0457
10877TIP3    H154122  -0.012   0.110   5.563  0.0784  0.1228  0.3249
10877TIP3    H254123   0.021   0.126   5.416  0.4032  1.3204  0.5215
10878TIP3   OH254124   2.224   1.789   3.897 -0.0838 -0.3390  0.7857
10878TIP3    H154125   2.203   1.713   3.844 -0.0292  0.9713 -1.1543
10878TIP3    H254126   2.316   1.806   3.879  0.0291 -0.0964  1.5850
10879TIP3   OH254127   5.604   3.918   0.745 -0.1057  0.0886  0.0740
10879TIP3    H154128   5.677   3.897   0.687  0.3601  0.2670  0.5827
10879TIP3    H254129   5.645   3.932   0.831 -0.9298 -1.7334  0.8024
10880TIP3   OH254130   3.503   4.908   3.729  0.2891  0.3196 -0.0662
10880TIP3    H154131   3.466   4.978   3.783  0.1581 -0.2080  0.5409
10880TIP3    H254132   3.595   4.933   3.718  0.3048  0.4657  0.3617
10881TIP3   OH254133   2.720   6.705  15.779 -0.2195 -0.1565 -0.2023
10881TIP3    H154134   2.680   6.645  15.842  3.1757 -1.8306  0.4888
10881TIP3    H254135   2.736   6.651  15.701  1.6770  0.1338 -0.0393
10882TIP3   OH254136   4.381   3.008  15.064  0.3589 -0.7854  0.1438
10882TIP3    H154137   4.414   2.972  15.146  1.0468 -1.9493 -0.6246
10882TIP3    H254138   4.447   3.072  15.038  1.9514 -2.9005 -1.2409
10883TIP3   OH254139   4.405   6.191  13.988  0.9561  0.3093 -0.6631
10883TIP3    H154140   4.411   6.262  13.924  0.2005 -1.2047 -2.4753
10883TIP3    H254141   4.327   6.141  13.962  0.7283 -0.4453  1.3519
10884TIP3   OH254142   0.506   3.160   1.926  0.0743  0.1536  0.1132
10884TIP3    H154143   0.576   3.215   1.892 -0.8079  1.4901  0.4355
10884TIP3    H254144   0.441   3.221   1.960 -0.8917 -1.0839  0.5463
10885TIP3   OH254145   3.795   0.743  10.576  0.1167  0.1809 -0.1449
10885TIP3    H154146   3.881   0.700  10.576 -0.4056 -0.9152 -1.2615
10885TIP3    H254147   3.748   0.704  10.649 -0.5312 -1.5785 -1.4546
10886TIP3   OH254148   6.815   0.412  12.852  0.3401 -0.3237 -0.1559
10886TIP3    H154149   6.744   0.353  12.880 -0.4329 -0.6849 -2.7179
10886TIP3    H254150   6.769   0.486  12.812  1.3961  0.1366 -0.5166
10887TIP3   OH254151   2.130   6.577  17.222 -0.9393 -0.3692  0.3972
10887TIP3    H154152   2.117   6.517  17.296  1.0587 -2.2058 -0.6827
10887TIP3    H254153   2.117   6.523  17.144 -4.2458  1.8314 -0.6612
10888TIP3   OH254154   4.256   4.939  17.020  0.1864 -0.2308 -0.2685
10888TIP3    H154155   4.261   4.868  16.956  0.2980  0.1294 -0.6639
10888TIP3    H254156   4.345   4.945  17.056 -0.3388 -1.7687  1.3998
10889TIP3   OH254157   1.282   6.056   2.206 -0.1968  0.2803 -0.9769
10889TIP3    H154158   1.268   6.130   2.147 -2.2930 -0.0075 -0.8785
10889TIP3    H254159   1.342   6.089   2.273  0.7876  1.1430 -2.2660
10890TIP3   OH254160   3.382   0.501   1.565  0.0831  0.5452  0.0123
10890TIP3    H154161   3.426   0.450   1.498  0.9932 -0.3569  1.2690
10890TIP3    H254162   3.290   0.474   1.561  0.2425  0.0947 -0.4901
10891TIP3   OH254163   5.943   2.959   3.058  0.2644 -0.0420 -0.1470
10891TIP3    H154164   5.890   2.882   3.035  2.3297 -1.9218  1.1197
10891TIP3    H254165   6.023   2.949   3.005  0.6453  1.1308  0.1939
10892TIP3   OH254166   3.663   6.124   5.377  0.3263 -0.1664  0.0439
10892TIP3    H154167   3.626   6.148   5.462 -1.2655 -0.6123 -0.5142
10892TIP3    H254168   3.719   6.049   5.395 -1.0675 -1.1153  0.4963
10893TIP3   OH254169   6.723   1.689   5.618  0.0590  0.4324 -0.1389
10893TIP3    H154170   6.719   1.731   5.532 -0.6341  0.1426 -0.2461
10893TIP3    H254171   6.814   1.658   5.625  0.3514  1.2228 -0.3975
10894TIP3   OH254172   3.732   2.254  12.524 -0.0427  0.2407 -0.1499
10894TIP3    H154173   3.807   2.313  12.514  0.5477 -0.4065  0.4370
10894TIP3    H254174   3.769   2.166  12.520 -0.5594 -0.0821  1.6317
10895TIP3   OH254175   6.524   5.198  12.590 -0.2273 -0.8508  0.0551
10895TIP3    H154176   6.468   5.121  12.580  0.9543 -1.6212 -0.6986
10895TIP3    H254177   6.532   5.234  12.502 -0.6185  0.0340  0.3730
10896TIP3   OH254178   4.156   2.323   0.642  0.2805 -0.1083 -0.2580
10896TIP3    H154179   4.119   2.383   0.707  0.0663  0.2157 -0.6755
10896TIP3    H254180   4.248   2.346   0.638 -0.2480  1.7983 -2.1291
10897TIP3   OH254181   3.233   5.027  13.231 -0.0328  0.1115  0.1721
10897TIP3    H154182   3.318   5.045  13.272  0.0926  2.3627 -1.0170
10897TIP3    H254183   3.248   4.945  13.183  1.1192 -0.1434  0.9232
10898TIP3   OH254184   4.035   6.340  14.521 -0.5164  0.0049 -0.3859
10898TIP3    H154185   4.069   6.358  14.433 -0.1233 -0.3498 -0.3095
10898TIP3    H254186   3.961   6.400  14.531 -0.6441 -0.0439 -1.0102
10899TIP3   OH254187   1.284   5.880   2.417 -0.0402 -0.3436 -0.4097
10899TIP3    H154188   1.265   5.951   2.478 -0.3837  0.3355 -1.2904
10899TIP3    H254189   1.274   5.920   2.331  2.8859 -0.6025 -0.9196
10900TIP3   OH254190   0.382   3.993  12.885 -0.1609  0.4287  0.9201
10900TIP3    H154191   0.330   3.937  12.827  0.4650  0.6180  0.1556
10900TIP3    H254192   0.321   4.058  12.917 -1.0045 -0.9557  2.1736
10901TIP3   OH254193   5.095   4.602  10.560  0.0448  0.2810 -0.6565
10901TIP3    H154194   5.064   4.515  10.585 -0.5653  1.0010  1.2589
10901TIP3    H254195   5.026   4.637  10.503 -0.7398  0.3040  0.2914
10902TIP3   OH254196   1.259   0.183   3.611  0.3145  0.3165 -0.2421
10902TIP3    H154197   1.234   0.171   3.520 -1.6179 -0.9890  0.4181
10902TIP3    H254198   1.223   0.269   3.635 -0.7767 -0.1471 -0.2023
10903TIP3   OH254199   1.399   5.646  12.096  0.0608 -0.0480 -0.7971
10903TIP3    H154200   1.394   5.727  12.044 -0.9708  0.6099  0.2996
10903TIP3    H254201   1.416   5.676  12.185 -1.0108 -0.9835 -0.2563
10904TIP3   OH254202   4.505   1.584   5.841 -0.1032  0.1213 -0.3268
10904TIP3    H154203   4.484   1.556   5.752  2.1603 -0.2919 -0.7685
10904TIP3    H254204   4.512   1.680   5.834 -1.2307  0.2158 -0.2850
10905TIP3   OH254205   5.798   3.018   3.956 -0.0502 -0.1852  0.2667
10905TIP3    H154206   5.817   2.964   4.033 -0.3280  0.7461  0.9898
10905TIP3    H254207   5.857   3.092   3.963  0.0858 -0.2068 -0.5507
10906TIP3   OH254208   4.446   5.156  11.810 -0.3428  0.6428  0.3278
10906TIP3    H154209   4.432   5.105  11.730  2.0594  1.6842 -0.8044
10906TIP3    H254210   4.369   5.211  11.818 -1.2760 -0.5267 -0.4451
10907TIP3   OH254211   1.069   2.996  14.348 -0.0327  0.0928 -0.5379
10907TIP3    H154212   1.137   3.020  14.411 -0.0654  1.6508 -1.0725
10907TIP3    H254213   1.041   2.908  14.375  1.1601  0.0408  0.5674
10908TIP3   OH254214   6.669   0.229  11.750  0.2812  0.3824 -0.1392
10908TIP3    H154215   6.703   0.314  11.724  0.5564  0.6350  1.0234
10908TIP3    H254216   6.575   0.244  11.764  0.1120  0.2218 -1.0581
10909TIP3   OH254217   6.015   1.851   6.379 -0.2483  0.0345 -0.0618
10909TIP3    H154218   5.938   1.902   6.407  1.3500  2.4464  0.0674
10909TIP3    H254219   6.020   1.866   6.285  0.3990  0.3779  0.0249
10910TIP3   OH254220   0.161   0.052  16.354 -0.1520 -0.1944  0.5713
10910TIP3    H154221   0.119   0.136  16.336 -1.5487 -0.5980  1.9350
10910TIP3    H254222   0.161   0.044  16.449  2.3158 -0.5724  0.5733
10911TIP3   OH254223   5.668   0.412   0.280  0.1808  0.0417  0.2548
10911TIP3    H154224   5.643   0.491   0.327 -1.2856 -0.5035  0.4311
10911TIP3    H254225   5.673   0.439   0.188 -2.8959 -0.1806 -0.0468
10912TIP3   OH254226   0.690   5.470   0.960 -0.5076  0.2081 -0.2095
10912TIP3    H154227   0.717   5.561   0.946  1.2644  0.2908  3.2866
10912TIP3    H254228   0.757   5.418   0.915  1.1236  0.5903  1.6943
10913TIP3   OH254229   5.880   0.360  16.442 -0.1189  0.1302 -0.1285
10913TIP3    H154230   5.842   0.408  16.369  2.6743  1.2248 -0.9396
10913TIP3    H254231   5.922   0.284  16.402  0.1115 -0.0851  0.5054
10914TIP3   OH254232   6.794   5.358   6.535 -0.4219 -0.4715 -0.4291
10914TIP3    H154233   6.822   5.402   6.455  1.1764  0.9135  0.8384
10914TIP3    H254234   6.715   5.404   6.562 -1.6308 -1.6949 -1.8014
10915TIP3   OH254235   4.216   0.484   3.301  0.0146 -0.3450  0.0680
10915TIP3    H154236   4.298   0.467   3.255 -0.5993 -1.0547 -0.7807
10915TIP3    H254237   4.185   0.398   3.328 -0.6678 -0.1270  0.0026
10916TIP3   OH254238   4.409   4.958   3.872 -0.6806 -0.2240  0.1747
10916TIP3    H154239   4.409   4.993   3.783  0.5303 -0.1188  0.2012
10916TIP3    H254240   4.465   5.018   3.922 -0.5572 -0.8186  0.7743
10917TIP3   OH254241   1.225   3.306   0.157 -0.6186 -0.0933 -0.2823
10917TIP3    H154242   1.283   3.285   0.230  1.3104  0.5481 -1.5952
10917TIP3    H254243   1.185   3.223   0.133  3.4395 -1.5713 -2.4437
10918TIP3   OH254244   4.965   4.110   0.012  0.4475 -0.1153  0.6782
10918TIP3    H154245   5.031   4.167   0.053  0.5552  0.9884 -0.9753
10918TIP3    H254246   4.882   4.155   0.028  0.3507 -0.3200  0.7555
10919TIP3   OH254247   5.905   0.029  13.673  0.2728  0.5758 -0.0618
10919TIP3    H154248   5.856   0.003  13.595 -3.1929 -1.2641  2.6490
10919TIP3    H254249   5.953  -0.049  13.698  1.4976  1.2133 -0.3404
10920TIP3   OH254250   2.057   2.369   4.706 -0.4172 -0.0694  0.6150
10920TIP3    H154251   2.132   2.311   4.694 -2.1463 -2.3780  0.5873
10920TIP3    H254252   2.006   2.359   4.625 -1.2537  0.7189  1.0327
10921TIP3   OH254253   5.091   6.199  15.427 -0.1454  0.1482 -0.2996
10921TIP3    H154254   4.999   6.185  15.401  0.1193  2.1659 -2.5541
10921TIP3    H254255   5.133   6.115  15.409 -1.1122 -0.1281 -1.3648
10922TIP3   OH254256   3.025   6.072   2.028  0.2940  0.0050  0.3128
10922TIP3    H154257   3.036   6.060   2.123 -1.1487 -1.1929  0.3589
10922TIP3    H254258   2.934   6.101   2.019  0.8314  1.4258 -0.6116
10923TIP3   OH254259   5.352   1.705   2.478  0.6076 -0.0711 -0.1134
10923TIP3    H154260   5.339   1.710   2.572 -0.7680  0.0272 -0.2972
10923TIP3    H254261   5.382   1.616   2.462 -0.1840 -0.4200  0.3145
10924TIP3   OH254262   3.299   3.213  14.184 -0.0729  0.3674  0.1701
10924TIP3    H154263   3.344   3.166  14.114  2.0027  2.2294  0.1903
10924TIP3    H254264   3.324   3.167  14.264  0.7720  0.6307  0.0577
10925TIP3   OH254265   1.654   3.387   0.827 -0.0120  0.4665  0.2305
10925TIP3    H154266   1.719   3.377   0.756  0.0886  0.8178  0.2713
10925TIP3    H254267   1.594   3.454   0.794  1.2123  2.1538  1.3258
10926TIP3   OH254268   6.216   3.062  14.090 -0.2028  0.4858  0.0702
10926TIP3    H154269   6.174   3.046  14.006  0.4969  0.8452 -0.3549
10926TIP3    H254270   6.309   3.043  14.074 -0.0222  0.8387  0.6851
10927TIP3   OH254271   0.938   5.562   6.362  0.6347  0.1752  0.4258
10927TIP3    H154272   1.033   5.556   6.369  0.7886  3.4451  2.0724
10927TIP3    H254273   0.923   5.600   6.275  0.8685  0.0513  0.3307
10928TIP3   OH254274   3.853   0.142   1.666  0.3872  0.1444  0.0219
10928TIP3    H154275   3.903   0.068   1.701  0.3089  0.0378 -0.0924
10928TIP3    H254276   3.796   0.103   1.600 -1.3529 -0.0813  1.5976
10929TIP3   OH254277   4.271   1.954   1.684  0.3022  0.3280  0.2733
10929TIP3    H154278   4.296   1.868   1.719  1.7613  0.7388  0.3025
10929TIP3    H254279   4.343   2.012   1.711  0.3586  1.1222 -1.5266
10930TIP3   OH254280   6.436   6.365  11.718  0.6896  0.1608  0.1695
10930TIP3    H154281   6.446   6.348  11.624 -0.3087 -1.9295  0.4150
10930TIP3    H254282   6.504   6.312  11.759  0.5388  0.3720  0.6938
10931TIP3   OH254283   6.665   1.238   1.252 -0.3045  0.0990 -0.3099
10931TIP3    H154284   6.575   1.243   1.220 -1.2499 -1.4638  1.9913
10931TIP3    H254285   6.711   1.184   1.188 -1.6033 -1.0767 -0.2727
10932TIP3   OH254286   5.145   3.951   4.406  0.3166 -0.6002 -0.0886
10932TIP3    H154287   5.077   4.012   4.376  0.3231 -0.5816 -0.0654
10932TIP3    H254288   5.167   3.981   4.494 -0.6553 -1.4586  0.4546
10933TIP3   OH254289   5.811   1.845   2.265 -0.1179 -0.1591 -0.1211
10933TIP3    H154290   5.777   1.908   2.329 -0.3635  0.3012 -0.6949
10933TIP3    H254291   5.737   1.789   2.245  0.2692 -1.0359  0.8635
10934TIP3   OH254292   6.512   6.428   1.943 -0.0179 -0.4705 -0.1016
10934TIP3    H154293   6.436   6.459   1.894 -0.9894 -2.3621  0.1867
10934TIP3    H254294   6.579   6.414   1.877 -0.8398 -1.5504 -0.7154
10935TIP3   OH254295   0.531   2.677  11.523  0.7459  0.4874  0.1872
10935TIP3    H154296   0.436   2.686  11.532  0.8804  1.7191  0.4604
10935TIP3    H254297   0.546   2.682  11.429  0.5225  0.0729  0.1266
10936TIP3   OH254298   5.672   5.711   5.401 -0.0757  0.2859 -0.2241
10936TIP3    H154299   5.625   5.727   5.482  0.4195 -0.3383  0.1926
10936TIP3    H254300   5.721   5.631   5.417  1.4518  1.1502 -0.5135
10937TIP3   OH254301   4.964   2.010  16.214 -0.0563  0.7113 -0.5466
10937TIP3    H154302   5.023   2.084  16.205  1.5175 -0.7595 -2.5897
10937TIP3    H254303   5.019   1.933  16.202 -1.6095 -0.8419  1.8185
10938TIP3   OH254304   5.215   3.242  15.791 -0.0853  0.4881  0.1924
10938TIP3    H154305   5.269   3.190  15.731  0.4656 -0.0545  1.1450
10938TIP3    H254306   5.276   3.269  15.860 -1.4143 -1.8357  2.3755
10939TIP3   OH254307   2.751   3.888   2.125  0.4208 -0.3010 -0.3632
10939TIP3    H154308   2.695   3.860   2.197  0.5504  1.4234  0.4443
10939TIP3    H254309   2.779   3.807   2.083 -0.9748 -1.2568  0.5235
10940TIP3   OH254310   4.921   4.952  17.285 -0.1805  0.2193 -0.2142
10940TIP3    H154311   4.881   4.891  17.347 -0.4369  1.8453  1.2566
10940TIP3    H254312   5.013   4.955  17.311 -0.4815  1.6437  0.7234
10941TIP3   OH254313   3.475   1.646   5.357  0.1634 -0.0176  0.3552
10941TIP3    H154314   3.476   1.552   5.339 -0.0921  0.4256 -2.1535
10941TIP3    H254315   3.447   1.653   5.448  0.2194 -2.3615  0.5769
10942TIP3   OH254316   6.053   0.754  14.574  0.1614 -0.3165 -0.2906
10942TIP3    H154317   6.004   0.753  14.657 -0.8322  3.5714 -0.7184
10942TIP3    H254318   6.141   0.783  14.598 -0.1621  0.9324 -0.5916
10943TIP3   OH254319   0.440   4.968   0.940 -0.3687 -0.0449 -0.2855
10943TIP3    H154320   0.489   5.035   0.893  1.2584 -0.2371  1.0903
10943TIP3    H254321   0.484   4.886   0.920 -0.2739 -0.2542  0.7239
10944TIP3   OH254322   2.186   6.682   2.420  0.0749 -1.0563 -0.4618
10944TIP3    H154323   2.111   6.675   2.360  0.0236  0.3063 -0.5764
10944TIP3    H254324   2.151   6.658   2.505 -0.6595  0.1989 -0.4021
10945TIP3   OH254325   0.575   1.294   2.312  0.6379 -0.2545 -0.1672
10945TIP3    H154326   0.663   1.266   2.335  0.3157  0.4070  1.9799
10945TIP3    H254327   0.519   1.222   2.343  0.1297  0.9953  1.8965
10946TIP3   OH254328   6.562   5.429   1.725  0.1908  0.3184 -0.1668
10946TIP3    H154329   6.522   5.381   1.652 -0.5277  1.4375 -0.5204
10946TIP3    H254330   6.524   5.389   1.804 -0.2645  0.1905 -0.4511
10947TIP3   OH254331   5.086   2.758   3.412 -0.2728 -0.1055  0.1719
10947TIP3    H154332   5.102   2.707   3.492 -2.2160 -0.6886  0.2023
10947TIP3    H254333   5.152   2.828   3.416  1.5212 -1.7711  0.8248
10948TIP3   OH254334   3.006   2.033  10.288  0.0486  0.2664  0.5745
10948TIP3    H154335   2.953   2.043  10.367 -1.0087  1.1365 -0.2316
10948TIP3    H254336   3.081   1.979  10.316 -0.8682 -0.3474  1.8959
10949TIP3   OH254337   0.235   0.167   5.698 -0.4587  0.2897  0.0665
10949TIP3    H154338   0.295   0.195   5.630 -0.7741 -0.5226 -0.5520
10949TIP3    H254339   0.161   0.229   5.691 -0.2432  0.5445  0.0358
10950TIP3   OH254340   2.179   5.134   1.058  0.2603 -0.7603 -0.2468
10950TIP3    H154341   2.239   5.099   0.992  1.7052  0.5965  0.3269
10950TIP3    H254342   2.119   5.061   1.076  0.2198 -1.3482 -2.5846
10951TIP3   OH254343   0.744   5.879  14.114 -0.1505  0.3622 -0.2530
10951TIP3    H154344   0.821   5.865  14.169  0.3592 -1.8761 -1.4992
10951TIP3    H254345   0.679   5.919  14.173  2.3032  3.4214  0.5332
10952TIP3   OH254346   2.434   0.041  14.846 -0.2013  0.2480 -0.3935
10952TIP3    H154347   2.430   0.072  14.756 -1.2757  2.1262  0.2801
10952TIP3    H254348   2.342   0.036  14.873  0.0139 -2.1458  0.0043
10953TIP3   OH254349   4.180   3.086  14.691 -0.6105 -0.7619  0.3848
10953TIP3    H154350   4.201   3.112  14.781  1.6919 -1.5032  0.0873
10953TIP3    H254351   4.211   2.996  14.685 -1.1377 -0.8515 -1.0450
10954TIP3   OH254352   0.355   0.516  15.636 -0.2054 -0.3870  0.0865
10954TIP3    H154353   0.315   0.557  15.713  0.1367 -0.1636  0.1473
10954TIP3    H254354   0.418   0.581  15.605  1.0979 -1.2888  0.7954
10955TIP3   OH254355   3.393   4.456  17.243  0.2994  0.1299 -0.4076
10955TIP3    H154356   3.326   4.389  17.231  0.8033 -0.1364 -1.8557
10955TIP3    H254357   3.365   4.528  17.186 -0.7972  1.5872  1.9272
10956TIP3   OH254358   4.984   6.574   1.215  0.0424  0.0850  0.5478
10956TIP3    H154359   4.979   6.668   1.194 -0.3415 -0.0630 -0.0563
10956TIP3    H254360   4.917   6.534   1.159 -0.3970 -0.4389  1.4558
10957TIP3   OH254361   4.762   1.355   3.539  0.0480  0.0644  0.3327
10957TIP3    H154362   4.775   1.413   3.614 -0.6760  0.0156  0.4977
10957TIP3    H254363   4.842   1.302   3.536 -0.1997 -0.3875  1.4739
10958TIP3   OH254364   3.586   3.905  15.155 -0.0286  0.3764  0.2401
10958TIP3    H154365   3.528   3.866  15.221 -1.3444 -0.6326 -1.4490
10958TIP3    H254366   3.559   3.864  15.072  2.8889  0.1412 -0.6582
10959TIP3   OH254367   1.312   0.418  11.515  0.0527 -0.1990  0.6262
10959TIP3    H154368   1.224   0.381  11.506  0.0289 -0.2369  1.0057
10959TIP3    H254369   1.299   0.513  11.510  0.5488 -0.2825 -4.2398
10960TIP3   OH254370   2.128   2.081  15.794 -0.4843  0.0439 -0.8379
10960TIP3    H154371   2.196   2.068  15.860 -0.9524  3.3228  0.3705
10960TIP3    H254372   2.176   2.080  15.711  0.8022  0.6798 -0.1139
10961TIP3   OH254373   5.455   4.018   0.529  0.2730 -0.2354 -0.1770
10961TIP3    H154374   5.471   3.953   0.461 -1.3210 -0.4474 -0.3712
10961TIP3    H254375   5.494   3.980   0.608  1.5717 -0.2754 -0.8381
10962TIP3   OH254376   4.475   5.637  11.863  0.2534  0.1693 -0.1190
10962TIP3    H154377   4.539   5.585  11.912 -3.2848 -2.5469  1.8509
10962TIP3    H254378   4.458   5.587  11.784  0.0192  0.5500 -0.3117
10963TIP3   OH254379   4.201   0.535   2.180 -0.2821 -0.0789  0.1131
10963TIP3    H154380   4.201   0.444   2.149 -1.0350 -0.5091  1.3293
10963TIP3    H254381   4.215   0.587   2.101  1.1951 -1.2909 -0.4611
10964TIP3   OH254382   1.467   0.263   3.085  0.4341  0.0839  0.0438
10964TIP3    H154383   1.416   0.308   3.152  0.5695 -1.7966  1.4401
10964TIP3    H254384   1.552   0.248   3.126  0.2871 -1.7146 -0.2881
10965TIP3   OH254385   1.813   0.813  11.625  0.0629 -0.6189 -0.1337
10965TIP3    H154386   1.834   0.721  11.612 -0.4269 -0.5791 -1.2897
10965TIP3    H254387   1.747   0.832  11.559 -3.0326 -0.5266  2.8428
10966TIP3   OH254388   0.790   4.955   1.174  0.1768 -0.4000 -0.1870
10966TIP3    H154389   0.808   5.049   1.169 -0.6640 -0.2481 -0.2889
10966TIP3    H254390   0.712   4.943   1.120 -0.4390 -0.9768  0.8259
10967TIP3   OH254391   0.761   5.960  16.952 -0.4356 -0.0727  0.0080
10967TIP3    H154392   0.840   5.905  16.956 -0.9859 -1.0303 -1.8800
10967TIP3    H254393   0.791   6.042  16.912  0.5220  1.3587  3.3926
10968TIP3   OH254394   4.178   4.202  11.215 -0.1567  0.1920 -0.4242
10968TIP3    H154395   4.097   4.239  11.180 -0.4001  0.9252  0.8954
10968TIP3    H254396   4.188   4.243  11.301  0.5455 -1.4204  0.2737
10969TIP3   OH254397   3.722   3.333  11.305 -0.2192  0.4161  0.6950
10969TIP3    H154398   3.773   3.321  11.225 -1.0327 -0.1702  0.2611
10969TIP3    H254399   3.633   3.310  11.281 -0.2400 -1.1145  2.1207
10970TIP3   OH254400   4.081   4.140  16.342 -0.1196  0.3307  0.1642
10970TIP3    H154401   4.136   4.210  16.307  1.0611 -0.4880  0.3500
10970TIP3    H254402   4.025   4.114  16.268  1.4064 -0.4583 -0.7412
10971TIP3   OH254403   2.985   6.635   1.250 -0.0388  0.6000  0.1618
10971TIP3    H154404   2.919   6.662   1.314 -0.0911  0.5572  0.1259
10971TIP3    H254405   3.068   6.644   1.296 -0.0094  1.4010 -0.0468
10972TIP3   OH254406   5.798   3.469   1.148 -0.0950 -0.1462 -0.2425
10972TIP3    H154407   5.780   3.395   1.205  1.8742 -0.5624 -0.1377
10972TIP3    H254408   5.827   3.429   1.066  0.7897  0.4977 -0.2479
10973TIP3   OH254409   2.177   3.005  16.062 -0.4296 -0.1155  0.4257
10973TIP3    H154410   2.088   2.999  16.095 -0.3344  1.1217  0.9418
10973TIP3    H254411   2.177   3.082  16.004 -0.0378 -0.9259 -0.6643
10974TIP3   OH254412   2.775   1.571   3.596 -0.1952  0.5060 -0.1135
10974TIP3    H154413   2.731   1.541   3.516 -0.8314 -0.7944  0.7238
10974TIP3    H254414   2.845   1.628   3.564 -1.5358  1.4008 -1.5285
10975TIP3   OH254415   3.398   5.749  15.674  0.2438 -0.0644 -0.3123
10975TIP3    H154416   3.431   5.754  15.584  0.6010 -1.0538 -0.2357
10975TIP3    H254417   3.341   5.826  15.682 -0.0798 -0.1644 -1.4999
10976TIP3   OH254418   2.194   6.015   4.535 -0.4299 -0.0469 -0.1005
10976TIP3    H154419   2.216   5.922   4.539 -0.4454 -0.1127 -1.2110
10976TIP3    H254420   2.232   6.053   4.615 -1.5968 -1.2374  1.0331
10977TIP3   OH254421   6.695   1.412   4.118 -0.2892  0.2075 -0.1750
10977TIP3    H154422   6.607   1.384   4.092 -0.5207  1.7272 -1.0904
10977TIP3    H254423   6.703   1.386   4.209 -1.3785 -0.6891 -0.3268
10978TIP3   OH254424   4.924   3.533  13.532 -0.1674  0.2464  0.0828
10978TIP3    H154425   4.940   3.443  13.559 -2.6547 -0.1925  0.2030
10978TIP3    H254426   4.956   3.586  13.605  0.0860 -0.5984  0.5892
10979TIP3   OH254427   2.960   3.361  12.504  0.5170  0.0276  0.1118
10979TIP3    H154428   2.940   3.291  12.567 -0.2491 -0.0818 -0.2369
10979TIP3    H254429   2.927   3.440  12.546 -0.5766 -0.1333 -0.4035
10980TIP3   OH254430   0.933   3.194   0.673  0.3992  0.3321 -0.4775
10980TIP3    H154431   0.858   3.196   0.613 -1.3781 -1.8947  1.5867
10980TIP3    H254432   0.920   3.270   0.730 -1.1280 -0.8603  0.8067
10981TIP3   OH254433   0.340   6.243   2.298  0.9168  0.0848 -0.0733
10981TIP3    H154434   0.283   6.217   2.226  1.1609 -1.1286  0.1652
10981TIP3    H254435   0.306   6.328   2.326  0.1697  0.0763 -0.9217
10982TIP3   OH254436   5.762   4.823   3.273  0.4496 -0.4988 -0.2173
10982TIP3    H154437   5.853   4.849   3.284  0.3325 -0.0808 -0.2026
10982TIP3    H254438   5.753   4.741   3.321  0.4474  0.2304  1.0297
10983TIP3   OH254439   6.354   6.642   3.225 -0.0486  0.1473  0.4960
10983TIP3    H154440   6.374   6.729   3.259 -0.8365  0.5364 -0.0310
10983TIP3    H254441   6.399   6.638   3.141  0.1020 -0.0087  0.5835
10984TIP3   OH254442   4.103   5.888  11.172 -0.0993 -0.1991  0.4239
10984TIP3    H154443   4.164   5.849  11.110 -3.4841  0.6400 -3.6413
10984TIP3    H254444   4.122   5.982  11.169 -1.4249  0.0465 -0.7301
10985TIP3   OH254445   0.255   5.160  13.379  0.0155  0.1374  0.1575
10985TIP3    H154446   0.216   5.145  13.293 -1.5427 -0.5962  0.9730
10985TIP3    H254447   0.350   5.155  13.364 -0.2718 -1.0917 -1.3052
10986TIP3   OH254448   2.182   3.749  13.808  0.6673  0.6033  0.4277
10986TIP3    H154449   2.120   3.695  13.858  0.3883  1.6410  1.2098
10986TIP3    H254450   2.217   3.689  13.741  1.0573 -0.8072  1.8560
10987TIP3   OH254451   5.623   1.176   6.494 -0.7305  0.0483 -0.0478
10987TIP3    H154452   5.590   1.233   6.425  0.1354  0.9517  0.2590
10987TIP3    H254453   5.594   1.217   6.575 -0.6360 -0.2879  0.1569
10988TIP3   OH254454   0.944   3.122   3.338  0.8672  0.5343 -0.5522
10988TIP3    H154455   0.967   3.116   3.246 -1.1383 -2.9345 -0.8861
10988TIP3    H254456   0.984   3.044   3.378 -0.3318  0.7104  1.0448
10989TIP3   OH254457   2.251   2.964  11.302 -0.0311  0.0043  0.0893
10989TIP3    H154458   2.237   3.028  11.372  0.1125  1.2926 -1.0272
10989TIP3    H254459   2.304   3.010  11.237 -0.3062 -1.0978 -0.9542
10990TIP3   OH254460   3.507   6.693  17.191 -0.1898  0.1080  0.4091
10990TIP3    H154461   3.534   6.768  17.139  0.9621 -1.1300 -0.8400
10990TIP3    H254462   3.572   6.625  17.171 -0.8214 -1.0143  2.0003
10991TIP3   OH254463   3.921   0.575   1.556  0.2714 -0.1265  0.5860
10991TIP3    H154464   3.851   0.607   1.499 -0.2679 -2.0838  0.1105
10991TIP3    H254465   3.983   0.647   1.561 -0.5046  0.6810 -1.1121
10992TIP3   OH254466   6.072   3.875  15.224 -0.2758 -0.7355  0.1627
10992TIP3    H154467   6.085   3.780  15.219 -1.4314 -0.8547 -0.9708
10992TIP3    H254468   5.978   3.887  15.208 -0.0104  0.6445 -0.4454
10993TIP3   OH254469   0.993   3.601  16.551 -0.2166 -0.6327  0.2854
10993TIP3    H154470   1.077   3.566  16.522 -0.1604 -0.5334  0.3234
10993TIP3    H254471   0.979   3.678  16.495 -1.4036 -1.9640 -1.3111
10994TIP3   OH254472   3.324   2.870   5.494  0.3112 -0.2307  0.3241
10994TIP3    H154473   3.412   2.874   5.532  0.0217  1.0572  0.8658
10994TIP3    H254474   3.280   2.948   5.526 -0.9072 -0.6566 -0.2820
10995TIP3   OH254475   6.001   5.746  14.645  0.1215 -0.0793  0.0140
10995TIP3    H154476   6.056   5.817  14.615  0.2763  0.0975  0.6943
10995TIP3    H254477   6.007   5.679  14.577  1.0573  0.0007  0.0151
10996TIP3   OH254478   2.533   0.070  11.020 -0.2197  0.6583 -0.6976
10996TIP3    H154479   2.458   0.017  11.046  0.6739 -0.3738 -0.1689
10996TIP3    H254480   2.517   0.090  10.927 -0.0287 -1.5116 -1.2191
10997TIP3   OH254481   2.621   3.968  15.591 -0.1738 -0.4466 -0.2102
10997TIP3    H154482   2.583   3.974  15.503  0.2380 -0.9363 -0.4258
10997TIP3    H254483   2.563   3.908  15.638  1.3074 -2.6177 -1.0770
10998TIP3   OH254484   6.158   3.035  13.056 -0.0324 -0.6117 -0.3674
10998TIP3    H154485   6.135   2.968  13.121 -2.4496 -0.9991 -1.5830
10998TIP3    H254486   6.160   2.988  12.973  0.0537  0.4727 -0.9862
10999TIP3   OH254487   5.025   2.856   2.048  0.5129 -0.7784  0.9355
10999TIP3    H154488   5.096   2.921   2.037  0.0429 -0.6087 -1.5550
10999TIP3    H254489   4.948   2.908   2.071  0.5445 -0.6287  0.7088
11000TIP3   OH254490   4.949   3.047   4.350 -0.0305  0.5688  0.0743
11000TIP3    H154491   4.894   3.092   4.415  1.6408  0.5915  1.5186
11000TIP3    H254492   5.023   3.013   4.401 -0.1168 -1.8907 -1.3688
11001TIP3   OH254493   1.924   1.066   4.918 -0.3045 -0.1836  0.4008
11001TIP3    H154494   1.838   1.049   4.880  0.1905 -0.4944 -0.6078
11001TIP3    H254495   1.925   1.160   4.936 -0.6467 -0.0832 -0.1143
11002TIP3   OH254496   2.542   4.770   2.598  0.1007  0.1379  0.0484
11002TIP3    H154497   2.555   4.714   2.520  2.1471 -0.9777  1.1262
11002TIP3    H254498   2.513   4.709   2.666 -1.9102  1.1551  0.1168
11003TIP3   OH254499   0.527   3.751  11.550  0.5328  0.2737 -0.0995
11003TIP3    H154500   0.540   3.840  11.583 -0.1299  0.1036  0.6243
11003TIP3    H254501   0.561   3.754  11.460  0.1093  1.3628 -0.2326
11004TIP3   OH254502   2.802   6.684  16.825  0.0940  0.2420 -0.4836
11004TIP3    H154503   2.785   6.680  16.731  0.5906  0.6966 -0.5975
11004TIP3    H254504   2.865   6.755  16.834 -0.5806  0.7511  0.2856
11005TIP3   OH254505   5.896   5.897  11.621  0.4450  0.9015  0.4939
11005TIP3    H154506   5.814   5.947  11.622 -1.2669 -1.8253  1.5045
11005TIP3    H254507   5.923   5.897  11.529 -1.6790  0.2473 -0.1442
11006TIP3   OH254508   6.357   3.290   1.969 -0.5298 -0.2899  0.5225
11006TIP3    H154509   6.452   3.284   1.972 -0.5643 -0.8380  0.5842
11006TIP3    H254510   6.329   3.208   1.926 -1.0049 -0.4079  1.0505
11007TIP3   OH254511   0.627   3.639   1.344 -0.6420  0.7104  0.0080
11007TIP3    H154512   0.647   3.562   1.290  0.1320  0.3097  0.8463
11007TIP3    H254513   0.538   3.664   1.318 -0.5468  0.0924 -0.9363
11008TIP3   OH254514   2.863   6.695  17.146  0.1108 -0.3340 -0.2778
11008TIP3    H154515   2.877   6.697  17.052 -0.6224  0.1973 -0.3827
11008TIP3    H254516   2.949   6.676  17.183  0.1859 -1.6008 -1.0927
11009TIP3   OH254517   2.264   1.142  16.422 -0.2415  0.0399 -0.6009
11009TIP3    H154518   2.208   1.126  16.498  0.5930  1.9202  0.4426
11009TIP3    H254519   2.219   1.210  16.372  0.6448  0.9244 -0.2194
11010TIP3   OH254520   1.375   2.843  14.440 -0.1037 -0.7038 -0.1828
11010TIP3    H154521   1.398   2.867  14.351 -1.4487 -1.5706 -0.7869
11010TIP3    H254522   1.289   2.801  14.432 -0.3165 -0.6357  1.5354
11011TIP3   OH254523   6.231   6.383  15.243 -0.0547 -0.3219  0.2151
11011TIP3    H154524   6.326   6.373  15.243 -0.1954 -1.7289  0.4495
11011TIP3    H254525   6.212   6.445  15.173  1.0226 -0.1583  0.0736
11012TIP3   OH254526   4.803   0.545  11.758  0.6064 -0.1123 -0.2620
11012TIP3    H154527   4.720   0.590  11.746  0.8688  0.2801 -0.6215
11012TIP3    H254528   4.780   0.464  11.804  0.0370  0.0169 -0.3135
11013TIP3   OH254529   4.884   2.710   0.947  0.1859 -0.6590 -0.1437
11013TIP3    H154530   4.832   2.771   0.999  1.2650 -0.9767  1.3319
11013TIP3    H254531   4.914   2.761   0.872 -0.8247 -0.0208 -0.1184
11014TIP3   OH254532   5.905   0.622  12.546  0.2577 -0.1188 -0.6802
11014TIP3    H154533   5.849   0.689  12.586  0.6581 -0.4389  0.4037
11014TIP3    H254534   5.964   0.594  12.615  2.1088  0.5510 -1.9427
11015TIP3   OH254535   3.248   4.474   3.747 -0.1604 -0.1268  0.0513
11015TIP3    H154536   3.290   4.481   3.832 -1.8725 -1.9466  1.0622
11015TIP3    H254537   3.285   4.396   3.707 -2.7766 -1.9699  1.1076
11016TIP3   OH254538   3.243   2.235   4.493 -0.5504 -0.1761 -0.3038
11016TIP3    H154539   3.328   2.259   4.530 -0.8576  0.2813  0.1223
11016TIP3    H254540   3.237   2.284   4.412 -0.8741  0.6508  0.2149
11017TIP3   OH254541   3.210   1.723  11.489 -0.4157 -0.1830  0.1967
11017TIP3    H154542   3.226   1.708  11.583 -1.3850 -2.3244  0.0330
11017TIP3    H254543   3.136   1.784  11.488 -2.4214 -2.5647  0.8202
11018TIP3   OH254544   6.318   5.116  14.694 -0.3344 -0.0672  0.6017
11018TIP3    H154545   6.316   5.194  14.638  0.3982 -1.2555 -1.1021
11018TIP3    H254546   6.264   5.141  14.770  2.2381  3.1344  1.4957
11019TIP3   OH254547   2.061   5.132  11.888 -0.0402 -0.5551  0.1443
11019TIP3    H154548   2.154   5.120  11.870 -0.2313 -0.0272 -1.2126
11019TIP3    H254549   2.037   5.057  11.943  0.8145 -1.5447 -0.8159
11020TIP3   OH254550   3.216   4.671   5.062  0.9074 -0.0854 -0.0380
11020TIP3    H154551   3.256   4.666   4.975 -0.2220  0.0830 -0.5762
11020TIP3    H254552   3.277   4.724   5.113 -0.3474  3.2900 -1.8563
11021TIP3   OH254553   0.287   2.533  14.486  0.4294  0.3769 -0.0435
11021TIP3    H154554   0.329   2.501  14.566 -0.5959 -0.8525  0.0159
11021TIP3    H254555   0.202   2.567  14.515  0.5184  0.9695 -0.4590
11022TIP3   OH254556   4.500   3.452   0.264 -0.6114 -0.2690  0.1626
11022TIP3    H154557   4.512   3.442   0.358 -0.1074  2.8262  0.4527
11022TIP3    H254558   4.519   3.544   0.246 -1.0754 -0.7112 -2.9117
11023TIP3   OH254559   5.284   0.297  13.819  0.5905  0.2851 -0.2666
11023TIP3    H154560   5.224   0.338  13.881  0.5969  0.1351 -0.1601
11023TIP3    H254561   5.347   0.251  13.874  0.5703  0.1154 -0.3831
11024TIP3   OH254562   4.333   5.134   1.439 -0.0261 -0.4747 -0.1645
11024TIP3    H154563   4.238   5.118   1.440  0.2056 -1.9685 -1.1678
11024TIP3    H254564   4.345   5.209   1.497 -1.5338 -1.8846  2.0215
11025TIP3   OH254565   6.434   6.395  14.637 -0.5304 -0.2552 -0.2460
11025TIP3    H154566   6.528   6.388  14.621 -0.3586 -0.1841  0.7200
11025TIP3    H254567   6.395   6.393  14.550  0.5270  1.9773 -0.8021
11026TIP3   OH254568   3.473   0.604   2.724  0.0294 -0.0321 -0.2208
11026TIP3    H154569   3.555   0.609   2.675 -0.0728 -0.9017 -0.4966
11026TIP3    H254570   3.465   0.689   2.768  0.8970  0.1820 -0.4772
11027TIP3   OH254571   3.616   0.277  11.968  0.2727  0.1881  0.0057
11027TIP3    H154572   3.633   0.369  11.946  2.5213 -0.1552  0.1513
11027TIP3    H254573   3.650   0.268  12.057 -2.4673 -0.1289  1.0547
11028TIP3   OH254574   0.622   4.823  15.759 -0.3177 -0.0836 -0.1176
11028TIP3    H154575   0.679   4.774  15.819 -0.5776  0.3324  0.4732
11028TIP3    H254576   0.553   4.760  15.736 -0.5339 -0.0696  0.4759
11029TIP3   OH254577   4.853   1.965   3.222 -0.5071  0.2506  0.4629
11029TIP3    H154578   4.850   1.947   3.128  1.4781 -0.3214  0.5082
11029TIP3    H254579   4.929   2.022   3.233 -0.9128  0.5589  1.6922
11030TIP3   OH254580   2.393   2.519   5.552  0.4428 -0.9286  0.3251
11030TIP3    H154581   2.425   2.431   5.569 -2.2041 -1.9593  0.2376
11030TIP3    H254582   2.407   2.567   5.634  0.7499 -1.7913  0.7730
11031TIP3   OH254583   3.956   3.631   0.240  0.3529  0.0576  0.2172
11031TIP3    H154584   4.048   3.613   0.220  0.5275  1.8447 -0.7059
11031TIP3    H254585   3.959   3.699   0.307 -0.2759  0.8613 -0.5492
11032TIP3   OH254586   1.372   4.788  12.791 -0.0105  0.4179 -0.8359
11032TIP3    H154587   1.412   4.815  12.708  1.5215 -0.6120 -0.4482
11032TIP3    H254588   1.446   4.765  12.847 -1.0069  1.4530  0.9519
11033TIP3   OH254589   3.905   5.666   5.057  0.2306  0.0176 -0.5426
11033TIP3    H154590   3.932   5.663   4.965 -1.5974 -1.0681 -1.0693
11033TIP3    H254591   3.956   5.596   5.099 -0.1749 -0.6123 -1.0870
11034TIP3   OH254592   6.663   1.611   1.034  0.1845 -0.0218 -0.1615
11034TIP3    H154593   6.578   1.592   1.074  0.7340  0.1613  1.1260
11034TIP3    H254594   6.684   1.534   0.982 -0.2472 -0.5390  0.4303
11035TIP3   OH254595   1.912   6.215  11.601 -0.2059 -0.0315  0.5492
11035TIP3    H154596   1.860   6.279  11.649 -2.1469 -1.3730  0.3142
11035TIP3    H254597   1.907   6.135  11.654  0.5101 -0.5440 -0.1376
11036TIP3   OH254598   5.375   0.255  16.936  0.3499  0.0671  0.1337
11036TIP3    H154599   5.293   0.205  16.940 -0.2161  1.1047  2.6915
11036TIP3    H254600   5.391   0.281  17.027  1.4721  3.1585 -0.8914
11037TIP3   OH254601   0.164   0.469   4.385 -0.1523  0.5026 -0.0163
11037TIP3    H154602   0.098   0.405   4.356 -1.0653  0.7176  1.5398
11037TIP3    H254603   0.117   0.552   4.386  0.8798  1.1220 -1.4630
11038TIP3   OH254604   5.220   3.938  14.810 -0.2440  0.1310 -0.8831
11038TIP3    H154605   5.213   3.842  14.808 -0.3040  0.1059  0.4490
11038TIP3    H254606   5.314   3.955  14.800  0.1727 -0.1886  2.0424
11039TIP3   OH254607   6.779   3.100   4.098 -0.3640  0.1122 -0.0188
11039TIP3    H154608   6.869   3.066   4.094 -0.2394  0.5080 -0.7011
11039TIP3    H254609   6.725   3.024   4.118  0.1303 -0.1268  0.3976
11040TIP3   OH254610   1.369   3.743  11.680  0.0505  0.2978  0.1821
11040TIP3    H154611   1.282   3.747  11.720  0.4630 -0.3652  1.1942
11040TIP3    H254612   1.363   3.799  11.603 -1.0347  0.9150  0.6931
11041TIP3   OH254613   3.314   6.318  13.630 -0.2001  0.3470  0.3352
11041TIP3    H154614   3.331   6.240  13.683 -1.2362  0.1992  0.4547
11041TIP3    H254615   3.374   6.384  13.665 -0.0774 -0.0819  0.9390
11042TIP3   OH254616   5.732   4.319   1.370 -0.2569  0.3910 -0.0168
11042TIP3    H154617   5.757   4.267   1.446  1.1704  1.6382  0.4017
11042TIP3    H254618   5.787   4.397   1.375 -1.0210  1.0719 -1.6571
11043TIP3   OH254619   5.287   1.772   2.767 -0.3814 -0.3760 -0.0712
11043TIP3    H154620   5.233   1.829   2.822  2.1727  0.8770  1.2278
11043TIP3    H254621   5.353   1.737   2.827  0.2847 -1.8534 -1.6228
11044TIP3   OH254622   3.092   6.585  11.920 -0.0634 -0.3881  1.0360
11044TIP3    H154623   3.070   6.674  11.891 -0.9424 -1.3086 -1.2320
11044TIP3    H254624   3.107   6.594  12.014 -0.9997  2.0117  1.0012
11045TIP3   OH254625   5.877   3.443  14.939 -0.1450  0.4171  0.1388
11045TIP3    H154626   5.953   3.502  14.937  0.5431 -0.4198  1.0953
11045TIP3    H254627   5.886   3.395  15.021 -2.6679  1.5223  1.1297
11046TIP3   OH254628   2.016   3.224   2.093 -0.1705 -0.1178  0.3119
11046TIP3    H154629   1.981   3.311   2.112 -1.1979 -0.8039  1.6518
11046TIP3    H254630   2.074   3.237   2.018 -0.7854  1.6105  0.1177
11047TIP3   OH254631   4.471   3.571   0.716  0.4017 -0.3057  0.0646
11047TIP3    H154632   4.379   3.577   0.742  0.1350  0.2536 -0.9994
11047TIP3    H254633   4.508   3.655   0.743  0.8309 -0.8901  1.3428
11048TIP3   OH254634   4.321   6.349   0.772  0.1559 -0.0296  0.2037
11048TIP3    H154635   4.409   6.330   0.739 -0.4482  0.7735 -1.9376
11048TIP3    H254636   4.326   6.439   0.803 -0.0655  0.2392 -0.5235
11049TIP3   OH254637   2.962   3.889  15.042  0.1103 -0.7090  0.9720
11049TIP3    H154638   2.931   3.845  15.120  0.6406 -1.5633  0.7093
11049TIP3    H254639   2.934   3.980  15.053 -0.6181 -1.0138  1.7139
11050TIP3   OH254640   1.581   5.965   4.632  0.6342  0.0049  0.1749
11050TIP3    H154641   1.632   5.909   4.573  1.9322 -0.6053  1.8492
11050TIP3    H254642   1.585   6.051   4.591  1.7908 -0.3379 -0.4746
11051TIP3   OH254643   0.075   2.531  12.271 -0.0679 -0.4367  0.6187
11051TIP3    H154644   0.171   2.526  12.268 -0.1100 -1.6483  0.9471
11051TIP3    H254645   0.057   2.612  12.318  0.8382 -1.7726  3.4097
11052TIP3   OH254646   6.103   5.594  16.137  0.3477  0.4353 -0.3411
11052TIP3    H154647   6.131   5.567  16.049 -0.8233 -0.2381 -0.5231
11052TIP3    H254648   6.152   5.674  16.154  1.7724 -0.2839 -0.9683
11053TIP3   OH254649   3.801   1.308  15.558 -0.5286  0.2727  0.6495
11053TIP3    H154650   3.834   1.273  15.641 -0.4159 -1.1864  0.0170
11053TIP3    H254651   3.879   1.338  15.512 -0.5404  0.6572  0.8783
11054TIP3   OH254652   1.596   0.602   4.838  0.3525  0.1703  0.4218
11054TIP3    H154653   1.637   0.658   4.772 -0.2307 -2.1487 -2.0186
11054TIP3    H254654   1.504   0.629   4.839  0.0807 -0.6808 -0.7191
11055TIP3   OH254655   5.785   0.977  14.866 -0.0834  0.3998  0.5882
11055TIP3    H154656   5.719   0.947  14.803  0.2872 -1.5580  1.1009
11055TIP3    H254657   5.735   1.025  14.931 -0.6327  1.3898 -0.5484
11056TIP3   OH254658   4.614   2.939   5.680  0.2225  0.1600 -0.4754
11056TIP3    H154659   4.632   2.845   5.674  0.0610 -0.0611  1.7732
11056TIP3    H254660   4.541   2.954   5.620 -0.0125 -1.2485 -0.5539
11057TIP3   OH254661   5.140   0.214  15.640 -0.4104 -0.4149  0.0935
11057TIP3    H154662   5.049   0.232  15.615 -0.4988 -1.5574 -0.4190
11057TIP3    H254663   5.162   0.133  15.594  0.9224 -0.0625  0.0908
11058TIP3   OH254664   1.572   5.130  11.645  0.1826  0.0344 -0.4297
11058TIP3    H154665   1.491   5.136  11.696  1.4962  0.5987  1.6711
11058TIP3    H254666   1.552   5.177  11.564 -1.1863  1.3381  0.6168
11059TIP3   OH254667   6.577   2.838   0.920 -0.0514  0.2690 -0.1120
11059TIP3    H154668   6.496   2.888   0.906  0.1863  0.4427 -0.8819
11059TIP3    H254669   6.562   2.791   1.002 -0.3478  1.4508  0.5136
11060TIP3   OH254670   3.889   0.716  13.687  0.0798  0.3242 -0.4598
11060TIP3    H154671   3.806   0.705  13.641 -1.4635 -0.4636  2.3298
11060TIP3    H254672   3.899   0.811  13.696 -0.5585  0.4227 -0.7605
11061TIP3   OH254673   2.371   3.328  17.167 -0.1344 -0.5910 -0.1090
11061TIP3    H154674   2.439   3.364  17.109  1.7351 -1.6884  1.3499
11061TIP3    H254675   2.347   3.402  17.223 -0.0740 -0.2197 -0.5651
11062TIP3   OH254676   2.465   0.658   2.479 -0.1038 -0.2154 -0.6015
11062TIP3    H154677   2.397   0.613   2.529  0.9401 -0.4186  0.6623
11062TIP3    H254678   2.510   0.712   2.544  0.0788  0.9434 -1.6852
11063TIP3   OH254679   3.640   4.536  16.560 -0.1200 -0.2885 -0.0556
11063TIP3    H154680   3.641   4.469  16.629  0.1348 -1.5935 -1.3184
11063TIP3    H254681   3.693   4.499  16.490  0.1308  1.3031 -0.7209
11064TIP3   OH254682   6.252   3.720  12.553  0.4256  0.3432 -0.1664
11064TIP3    H154683   6.240   3.643  12.608  1.8409  0.8382  0.8348
11064TIP3    H254684   6.329   3.700  12.499  1.1096  1.2719  0.4654
11065TIP3   OH254685   6.097   1.650   3.607 -0.6046  0.3417 -0.4728
11065TIP3    H154686   6.113   1.557   3.628  0.4245  1.0984  2.3248
11065TIP3    H254687   6.166   1.697   3.654 -1.9895  2.6503 -0.6874
11066TIP3   OH254688   5.162   2.250   3.928  0.3689  0.0496  0.2671
11066TIP3    H154689   5.215   2.206   3.994  1.0361 -0.2623 -0.4697
11066TIP3    H254690   5.225   2.299   3.875 -0.1229 -0.0153 -0.3845
11067TIP3   OH254691   3.113   3.435  13.095 -0.0186  0.3977 -0.1031
11067TIP3    H154692   3.208   3.429  13.083  0.2109  1.9068  0.8282
11067TIP3    H254693   3.096   3.388  13.177  0.2845  2.3371  1.1047
11068TIP3   OH254694   5.202   6.179   1.019 -0.0696  0.0560  0.6794
11068TIP3    H154695   5.166   6.090   1.026 -0.9910  0.3036 -0.6491
11068TIP3    H254696   5.134   6.228   0.972  0.6193  1.3575  1.0261
11069TIP3   OH254697   1.848   2.118   0.609 -0.0957 -0.1230  0.0426
11069TIP3    H154698   1.908   2.183   0.648  1.0431  0.1168 -2.0502
11069TIP3    H254699   1.903   2.069   0.548 -1.9317 -0.2625 -1.5124
11070TIP3   OH254700   4.134   3.143  14.986 -0.3976  0.0989 -0.2803
11070TIP3    H154701   4.135   3.183  15.073 -0.1696 -0.1322 -0.1730
11070TIP3    H254702   4.206   3.080  14.989  0.3879  0.9400 -1.0335
11071TIP3   OH254703   3.092   0.226   5.084 -0.1258 -0.1390  0.6812
11071TIP3    H154704   3.092   0.146   5.136  0.1830 -0.9363 -0.5173
11071TIP3    H254705   3.022   0.213   5.020 -0.3235  0.7163  0.7091
11072TIP3   OH254706   4.859   0.050   1.070  0.2335 -0.1983 -0.1897
11072TIP3    H154707   4.797   0.061   1.142  0.6481 -0.1072  0.1542
11072TIP3    H254708   4.942   0.082   1.104 -0.0815  2.0960 -1.5008
11073TIP3   OH254709   2.487   1.257  12.973  0.5899 -0.1047  0.1872
11073TIP3    H154710   2.570   1.305  12.973  1.0337 -0.8675 -1.1995
11073TIP3    H254711   2.490   1.202  12.895 -0.8135 -0.8593  0.6423
11074TIP3   OH254712   6.590   1.921  15.909  0.0135  0.0576  0.1943
11074TIP3    H154713   6.646   1.849  15.937 -0.7463 -0.5610  0.1604
11074TIP3    H254714   6.550   1.889  15.828 -0.0114  0.6800 -0.0400
11075TIP3   OH254715   3.230   3.988   5.573 -0.1391  0.6289 -0.2468
11075TIP3    H154716   3.153   3.974   5.629  0.0575 -1.4350 -0.4807
11075TIP3    H254717   3.304   3.981   5.633 -0.0295  0.5637 -0.3927
11076TIP3   OH254718   2.990   3.089   2.256 -0.4558 -0.2344 -0.0235
11076TIP3    H154719   3.038   3.030   2.198  0.7859  0.9782 -0.2761
11076TIP3    H254720   2.983   3.171   2.207  0.1451  0.6424  1.2990
11077TIP3   OH254721   0.606   3.381   2.569  0.1813 -0.1372  0.6827
11077TIP3    H154722   0.558   3.300   2.554  0.1058  0.0430 -0.0501
11077TIP3    H254723   0.542   3.450   2.554 -0.2429  0.0393  3.0479
11078TIP3   OH254724   6.071   1.051   3.944 -0.1721  0.2522  0.2428
11078TIP3    H154725   6.072   1.137   3.985  1.7708  0.2087  0.3087
11078TIP3    H254726   6.070   0.989   4.017 -0.0217  0.2113  0.2115
11079TIP3   OH254727   0.690   2.224  17.285  0.3050 -0.1724  0.1970
11079TIP3    H154728   0.672   2.261  17.198  3.1955 -0.9722 -0.7818
11079TIP3    H254729   0.636   2.145  17.288 -2.5300  1.6955  0.5763
11080TIP3   OH254730   4.344   2.075  15.256  0.0062  0.2980 -0.4344
11080TIP3    H154731   4.403   2.127  15.312 -0.0867 -0.8869  0.8039
11080TIP3    H254732   4.258   2.115  15.268 -0.0238  0.0149  0.3277
11081TIP3   OH254733   1.988   6.606   3.368  0.0052  0.0668 -0.0628
11081TIP3    H154734   2.034   6.650   3.440 -0.2502 -0.3769  0.3719
11081TIP3    H254735   2.056   6.593   3.302  0.4858 -0.4909  0.5352
11082TIP3   OH254736   0.523   3.063   4.482 -0.7286  0.3893 -0.2327
11082TIP3    H154737   0.470   2.986   4.459 -2.7022  0.9944  2.1533
11082TIP3    H254738   0.572   3.036   4.559 -0.0049  0.9370 -0.4967
11083TIP3   OH254739   1.837   0.377  14.513 -0.5055  0.2392 -0.8086
11083TIP3    H154740   1.932   0.385  14.499 -0.2403 -2.0647 -0.6325
11083TIP3    H254741   1.812   0.457  14.558  1.1018  1.5392 -2.1492
11084TIP3   OH254742   4.964   0.331  16.674 -0.5741 -0.3051 -0.2032
11084TIP3    H154743   5.055   0.304  16.660 -0.1794  1.1102 -0.4687
11084TIP3    H254744   4.913   0.254  16.652  0.4192 -0.3103 -2.7096
11085TIP3   OH254745   3.372   1.872  14.623 -0.4098 -0.2917  0.0235
11085TIP3    H154746   3.366   1.927  14.545 -1.2677  0.6563  0.7471
11085TIP3    H254747   3.460   1.889  14.657 -1.4500  2.3314  1.4710
11086TIP3   OH254748   6.330   3.004   3.566 -0.3568  0.2749  0.8824
11086TIP3    H154749   6.339   3.037   3.477 -1.3580  0.5689  0.8813
11086TIP3    H254750   6.237   3.014   3.586 -0.1946 -0.0694  1.8503
11087TIP3   OH254751   0.110   2.011  12.659 -0.2802  0.0405  0.1381
11087TIP3    H154752   0.168   1.968  12.722 -1.4464  0.9116  1.8446
11087TIP3    H254753   0.169   2.062  12.603  0.8203 -1.2092  0.1403
11088TIP3   OH254754   4.054   0.137   4.351 -0.6719 -0.0043 -0.4115
11088TIP3    H154755   4.099   0.055   4.371 -1.7458  0.1248  2.9878
11088TIP3    H254756   3.985   0.114   4.289 -0.6237 -1.5950  0.1162
11089TIP3   OH254757   0.332   5.292  16.872  0.0995 -1.1432 -0.2653
11089TIP3    H154758   0.398   5.341  16.920  0.0347 -1.6018  0.3018
11089TIP3    H254759   0.298   5.229  16.936 -2.9099  0.9527  0.3438
11090TIP3   OH254760   1.478   5.036   3.972  0.2785 -0.5418  0.0062
11090TIP3    H154761   1.554   5.059   3.918  0.5587  1.2639  1.1334
11090TIP3    H254762   1.516   4.995   4.049 -0.0960 -2.6579 -0.8997
11091TIP3   OH254763   5.912   2.909   1.306  0.2663 -0.0924  0.3513
11091TIP3    H154764   5.889   2.912   1.213  2.3102 -2.6141 -0.2834
11091TIP3    H254765   6.001   2.945   1.310 -0.5962  2.0244  1.6748
11092TIP3   OH254766   6.462   0.556   6.204 -0.0212 -0.4337  0.1111
11092TIP3    H154767   6.421   0.495   6.143 -0.7572  1.2490 -1.1266
11092TIP3    H254768   6.388   0.603   6.244  0.5372 -0.2162  0.9077
11093TIP3   OH254769   4.671   5.177  14.336  0.1971  0.3823 -0.5814
11093TIP3    H154770   4.654   5.141  14.249 -1.0594 -0.4527  0.0111
11093TIP3    H254771   4.733   5.116  14.375 -1.1126 -0.5850  0.0184
11094TIP3   OH254772   6.340   0.990  13.193 -0.7278  0.0857  0.9483
11094TIP3    H154773   6.434   0.976  13.184 -0.5240  0.5100  2.3676
11094TIP3    H254774   6.312   1.020  13.106  0.7597  1.7549  1.0101
11095TIP3   OH254775   6.785   5.246  14.667 -0.1895  0.0251 -0.6190
11095TIP3    H154776   6.747   5.207  14.588  0.4743  0.3919 -1.1174
11095TIP3    H254777   6.755   5.337  14.665  0.3714  0.2045 -0.7891
11096TIP3   OH254778   1.297   6.721  17.091 -0.1943  0.1168 -0.1797
11096TIP3    H154779   1.368   6.695  17.151 -0.5852 -0.5461  0.0032
11096TIP3    H254780   1.271   6.639  17.049 -1.4969  0.2022  0.4451
11097TIP3   OH254781   5.615   2.622  17.256  0.2852  0.5211  0.2986
11097TIP3    H154782   5.662   2.700  17.226  0.3567  0.0191 -0.9095
11097TIP3    H254783   5.589   2.577  17.176 -2.7250  1.0460  0.9300
11098TIP3   OH254784   3.820   0.783  12.615 -0.5160 -0.4221  0.4277
11098TIP3    H154785   3.891   0.817  12.671 -2.5678 -1.4299  3.7686
11098TIP3    H254786   3.843   0.691  12.600 -1.7071 -1.0821  2.5444
11099TIP3   OH254787   6.745   4.308   5.393 -0.4924 -0.0407 -0.2960
11099TIP3    H154788   6.657   4.324   5.360 -0.2807 -2.5550 -2.1369
11099TIP3    H254789   6.803   4.321   5.318  0.5632 -0.0813  0.4813
11100TIP3   OH254790   4.520   1.933  12.675 -0.8482 -0.0734 -0.3140
11100TIP3    H154791   4.537   2.026  12.683 -2.5947  0.3837 -1.6230
11100TIP3    H254792   4.486   1.907  12.761  1.0155  0.1832  0.5056
11101TIP3   OH254793   5.732   1.376  11.284  0.3358 -0.4639 -0.1035
11101TIP3    H154794   5.735   1.320  11.206  1.6936 -0.6899  0.1047
11101TIP3    H254795   5.687   1.323  11.350  2.5145 -1.7444  0.4101
11102TIP3   OH254796   6.055   6.331   1.679  0.2843 -0.1113 -0.4894
11102TIP3    H154797   5.976   6.309   1.728  1.1484 -0.1285  0.9393
11102TIP3    H254798   6.024   6.351   1.591 -1.3132 -0.0128  0.0769
11103TIP3   OH254799   2.238   6.435   2.899  0.3021 -0.2519  0.4479
11103TIP3    H154800   2.186   6.486   2.837 -0.8773 -0.7541  1.0182
11103TIP3    H254801   2.318   6.412   2.850 -0.1964  0.1598 -0.5674
11104TIP3   OH254802   5.894   3.296   5.360 -0.0290  0.3359 -0.7000
11104TIP3    H154803   5.979   3.255   5.342 -0.0598 -0.2174  0.3468
11104TIP3    H254804   5.831   3.225   5.350 -0.1503  0.2568  0.5012
11105TIP3   OH254805   1.258   5.506  13.878  0.0277  0.4786 -0.1443
11105TIP3    H154806   1.185   5.566  13.866 -0.0099  0.3388 -0.6570
11105TIP3    H254807   1.303   5.537  13.956 -0.1442  1.0191 -0.2585
11106TIP3   OH254808   3.082   5.973   0.195 -0.0653  0.2197 -0.4660
11106TIP3    H154809   3.133   5.949   0.273 -1.2374 -4.4115 -1.0177
11106TIP3    H254810   3.001   6.011   0.230  0.6849  0.9807  0.4884
11107TIP3   OH254811   5.046   2.931  15.200  0.3505  0.0362 -0.0362
11107TIP3    H154812   4.985   3.005  15.202  0.8284  0.7428 -4.9034
11107TIP3    H254813   4.992   2.856  15.174  0.6704 -0.3927  0.5307
11108TIP3   OH254814   0.521   6.202  17.277  0.2486  0.0584 -0.7255
11108TIP3    H154815   0.485   6.265  17.339 -0.8209 -1.1462 -0.1032
11108TIP3    H254816   0.450   6.187  17.214  0.0891 -1.3889 -0.2129
11109TIP3   OH254817   0.963   3.017   3.767  0.0513  0.0473 -0.3849
11109TIP3    H154818   0.900   2.990   3.833 -1.5472  0.7092 -1.5753
11109TIP3    H254819   0.918   3.087   3.719  1.3984  0.0081 -1.7565
11110TIP3   OH254820   1.845   0.367   5.569  0.1665  0.4669  0.2543
11110TIP3    H154821   1.914   0.433   5.559 -0.4542  1.0540 -0.2227
11110TIP3    H254822   1.801   0.366   5.484  0.8166 -1.3170 -0.0801
11111TIP3   OH254823   2.247   6.038   3.574  0.2318 -1.0420  0.0750
11111TIP3    H154824   2.252   5.987   3.655 -1.0846 -0.7912  0.3153
11111TIP3    H254825   2.221   6.126   3.602  3.1413 -0.0174 -0.2629
11112TIP3   OH254826   4.972   4.604   1.860  0.2160  0.3663 -0.5677
11112TIP3    H154827   5.009   4.634   1.943  1.5564 -0.1990 -0.9445
11112TIP3    H254828   5.048   4.593   1.803 -0.5458 -0.7385 -1.3882
11113TIP3   OH254829   1.534   0.344  13.790  0.2371  0.0178  0.2726
11113TIP3    H154830   1.443   0.367  13.806  0.0132 -0.3458 -0.4757
11113TIP3    H254831   1.534   0.304  13.704  1.0841 -0.1213  0.3339
11114TIP3   OH254832   6.775   4.908  14.818 -0.1710  0.5810  0.7227
11114TIP3    H154833   6.682   4.932  14.811 -0.2212  0.0099 -0.7063
11114TIP3    H254834   6.778   4.816  14.791  1.2703  1.5306 -2.5686
11115TIP3   OH254835   4.174   2.790   3.361  0.0976 -0.1275  0.2323
11115TIP3    H154836   4.134   2.865   3.404  0.5454  0.6762 -0.7391
11115TIP3    H254837   4.100   2.740   3.325 -0.3136 -1.0823  2.3456
11116TIP3   OH254838   1.314   5.710  13.256 -0.1496  0.1132  0.3168
11116TIP3    H154839   1.333   5.617  13.267 -0.6872 -0.2130 -1.3930
11116TIP3    H254840   1.224   5.720  13.287 -0.8254 -0.3439 -1.4804
11117TIP3   OH254841   3.958   2.428   1.670 -0.4809  0.1581  0.0566
11117TIP3    H154842   4.048   2.397   1.672 -0.4321  0.1889 -1.3843
11117TIP3    H254843   3.910   2.365   1.725  0.3397 -0.0857  0.5006
11118TIP3   OH254844   0.116   6.266   3.554  0.0763  0.3950  0.1912
11118TIP3    H154845   0.051   6.270   3.484 -0.8670 -1.0268  0.9581
11118TIP3    H254846   0.200   6.259   3.509 -0.5710 -1.2760 -0.8079
11119TIP3   OH254847   6.035   1.194  12.601 -0.2707 -0.1381  0.3090
11119TIP3    H154848   6.057   1.214  12.510 -1.1731 -1.1092 -0.1342
11119TIP3    H254849   6.019   1.099  12.601  1.1200 -0.3981  1.7706
11120TIP3   OH254850   1.551   5.608  14.583 -0.7253  0.7442  0.7908
11120TIP3    H154851   1.587   5.533  14.535 -2.3469  0.9902 -0.8395
11120TIP3    H254852   1.616   5.677  14.572 -0.0202  0.0959  0.8624
11121TIP3   OH254853   4.828   0.807   2.778 -0.4754  0.0897 -0.1375
11121TIP3    H154854   4.851   0.729   2.828 -1.7388 -0.3114 -0.1678
11121TIP3    H254855   4.745   0.836   2.815  0.1613  1.6416  0.1171
11122TIP3   OH254856   0.584   6.182   2.161 -0.4123  0.8185  0.1419
11122TIP3    H154857   0.633   6.226   2.231  0.8878 -1.8804  0.9893
11122TIP3    H254858   0.492   6.198   2.183 -0.0200  0.2046  2.3915
11123TIP3   OH254859   3.377   5.665   0.504  0.5181  0.5670  0.0287
11123TIP3    H154860   3.318   5.738   0.486 -0.6103 -0.4697 -0.5691
11123TIP3    H254861   3.390   5.623   0.420 -0.1280 -0.8717  0.6305
11124TIP3   OH254862   6.757   3.727   4.688  0.1582  0.9150  0.2280
11124TIP3    H154863   6.834   3.783   4.685  0.0495  0.9910 -3.7799
11124TIP3    H254864   6.792   3.639   4.703  0.8177  1.2573  0.7262
11125TIP3   OH254865   2.704   4.402  16.446 -0.0926  0.0344 -0.1727
11125TIP3    H154866   2.700   4.335  16.515  0.7147  0.4696  0.3036
11125TIP3    H254867   2.785   4.450  16.464 -1.5210  2.2542  0.5337
11126TIP3   OH254868   5.266   3.395  17.171  0.0868 -0.4643  0.3962
11126TIP3    H154869   5.278   3.489  17.180 -1.9849 -0.1521  0.2268
11126TIP3    H254870   5.300   3.374  17.084  0.7453  0.0822  0.5206
11127TIP3   OH254871   0.914   0.650   2.200 -0.3314  0.0852  0.0721
11127TIP3    H154872   0.965   0.585   2.247 -0.0115  1.6448  1.9300
11127TIP3    H254873   0.870   0.600   2.131  0.4056 -1.9737  1.0492
11128TIP3   OH254874   6.540   1.541  13.981  0.3649 -0.2101 -0.2032
11128TIP3    H154875   6.505   1.558  14.068  0.5175 -1.2134  0.0649
11128TIP3    H254876   6.497   1.460  13.953  1.2395 -0.5721 -0.5447
11129TIP3   OH254877   4.963   3.949  12.032  0.2152 -0.1585 -0.0153
11129TIP3    H154878   4.914   3.904  11.963  2.3844 -0.1714 -1.5936
11129TIP3    H254879   4.896   3.997  12.081 -1.5650 -1.4493 -1.1043
11130TIP3   OH254880   4.127   3.332   3.032 -0.0121 -0.2388 -0.4343
11130TIP3    H154881   4.214   3.341   3.070 -0.1567  0.5050 -0.2734
11130TIP3    H254882   4.140   3.344   2.938 -0.0495  0.5980 -0.3312
11131TIP3   OH254883   5.113   3.368   2.879  0.4532 -0.3377 -0.1128
11131TIP3    H154884   5.180   3.374   2.948  0.2518 -0.8974  0.1364
11131TIP3    H254885   5.160   3.335   2.803  0.4597 -0.7196  0.0585
11132TIP3   OH254886   3.610   1.173  12.930 -0.1216  0.2974 -0.7062
11132TIP3    H154887   3.667   1.250  12.939  1.3588 -0.8505 -0.0566
11132TIP3    H254888   3.525   1.209  12.905  1.1072  1.9910 -2.6398
11133TIP3   OH254889   0.697   3.212  14.635  0.0455  0.1094  0.7676
11133TIP3    H154890   0.645   3.184  14.560 -0.3780  1.2900  0.6039
11133TIP3    H254891   0.678   3.306  14.644  1.3263  0.3288  1.3557
11134TIP3   OH254892   4.951   2.679  13.968  0.5136  0.5194  0.2275
11134TIP3    H154893   5.023   2.741  13.965  1.2555 -0.2724  1.0888
11134TIP3    H254894   4.993   2.594  13.983 -0.5183 -0.1055 -0.3636
11135TIP3   OH254895   3.072   2.917   5.836  0.1169 -0.0369  0.0688
11135TIP3    H154896   3.104   2.915   5.926 -1.4468  1.4809  0.6724
11135TIP3    H254897   3.044   3.008   5.822  0.7206 -0.1507 -2.0861
11136TIP3   OH254898   2.295   0.341   2.864 -0.1965  0.3270 -0.5484
11136TIP3    H154899   2.209   0.312   2.834 -0.1203 -0.9259  0.4177
11136TIP3    H254900   2.354   0.315   2.794 -0.3963 -0.1549 -0.5403
11137TIP3   OH254901   0.576   4.072  13.687  0.3523  0.3290 -0.2758
11137TIP3    H154902   0.493   4.113  13.712  0.2128  0.4293 -0.8846
11137TIP3    H254903   0.580   3.992  13.739 -0.5780 -0.1551 -0.9185
11138TIP3   OH254904   2.847   6.272   9.942 -0.2663 -0.0040 -0.4230
11138TIP3    H154905   2.864   6.363   9.966  1.7536 -0.3138 -0.5701
11138TIP3    H254906   2.904   6.257   9.866  0.6641 -1.8640  0.6136
11139TIP3   OH254907   0.687   5.626   3.388  0.6030 -0.0006 -0.5685
11139TIP3    H154908   0.744   5.687   3.341 -0.6834  1.1757 -0.6535
11139TIP3    H254909   0.724   5.622   3.476  1.1602  0.2859 -0.7833
11140TIP3   OH254910   4.558   4.586  16.242  0.9283  0.0055 -0.0719
11140TIP3    H154911   4.478   4.633  16.268 -0.1572 -1.8472  0.0006
11140TIP3    H254912   4.604   4.571  16.325  1.0486  0.5164 -0.0420
11141TIP3   OH254913   5.822   4.413  13.309  0.0629  0.6084  0.1511
11141TIP3    H154914   5.794   4.495  13.352  1.0896  0.2883  1.4801
11141TIP3    H254915   5.823   4.349  13.380 -1.1195 -0.6610 -0.9740
11142TIP3   OH254916   3.818   4.597   0.589  0.0181  0.0155 -0.1889
11142TIP3    H154917   3.870   4.676   0.575 -0.2690 -0.1709 -2.4463
11142TIP3    H254918   3.729   4.628   0.602 -0.2484  0.0573 -1.9466
11143TIP3   OH254919   4.735   2.898  11.389 -0.4014  0.7193  0.7808
11143TIP3    H154920   4.779   2.835  11.332  1.3704  2.1920  0.4449
11143TIP3    H254921   4.682   2.845  11.448  1.9538 -1.1550  1.2771
11144TIP3   OH254922   2.544   2.504   0.362 -0.3194  0.3519  0.4927
11144TIP3    H154923   2.462   2.553   0.370  0.6927  2.0788  0.4953
11144TIP3    H254924   2.552   2.486   0.268 -0.3816  0.7760  0.4027
11145TIP3   OH254925   1.350   1.530   5.365 -0.0555 -0.2427  0.0358
11145TIP3    H154926   1.256   1.512   5.374 -0.5276  2.0157 -0.1668
11145TIP3    H254927   1.390   1.485   5.439 -1.1075 -2.5649 -0.7588
11146TIP3   OH254928   0.315   4.218   2.144  0.1106  0.1234 -0.7867
11146TIP3    H154929   0.230   4.195   2.106 -0.7583 -0.4514  1.4096
11146TIP3    H254930   0.343   4.138   2.188  1.0036  0.7985 -0.1189
11147TIP3   OH254931   2.534   0.673  17.099  0.0241  0.1819  0.0018
11147TIP3    H154932   2.600   0.604  17.090  0.6468  0.8768 -0.7688
11147TIP3    H254933   2.474   0.659  17.027  0.8653  1.2170 -0.9095
11148TIP3   OH254934   2.494   5.764   4.305  0.9273 -0.2765  0.2577
11148TIP3    H154935   2.531   5.718   4.380 -0.5017 -2.7876 -0.5025
11148TIP3    H254936   2.403   5.779   4.329 -0.0076 -2.6104 -1.5402
11149TIP3   OH254937   4.324   3.116   0.631 -0.0286  0.0417  0.6366
11149TIP3    H154938   4.231   3.124   0.649 -0.2293  1.2346 -0.8175
11149TIP3    H254939   4.329   3.097   0.537  1.2275  0.8046  0.5342
11150TIP3   OH254940   6.562   6.105   2.063 -0.3803  0.1965  0.3434
11150TIP3    H154941   6.615   6.026   2.053 -1.0824 -0.3351  0.7303
11150TIP3    H254942   6.553   6.140   1.974  2.8604  1.7984  0.6003
11151TIP3   OH254943   4.201   5.709   5.242  0.3056 -0.3832  0.0375
11151TIP3    H154944   4.246   5.629   5.214  0.0646 -0.7495  0.6738
11151TIP3    H254945   4.163   5.745   5.162 -0.3316 -1.3871 -0.1290
11152TIP3   OH254946   0.345   1.642   4.024 -0.1581  0.0682  0.2804
11152TIP3    H154947   0.426   1.620   4.069 -0.2341  0.6813  0.7222
11152TIP3    H254948   0.294   1.561   4.023 -0.4756  0.2342  1.9657
11153TIP3   OH254949   1.972   3.603  16.650 -0.2125  0.1565  0.3529
11153TIP3    H154950   2.024   3.526  16.673  0.3064 -0.0685 -1.5413
11153TIP3    H254951   1.883   3.571  16.638  0.2819 -0.4071 -1.8826
11154TIP3   OH254952   4.117   0.710  15.385 -0.0456  0.0701  0.6202
11154TIP3    H154953   4.175   0.646  15.344 -0.0036  1.1879 -1.0838
11154TIP3    H254954   4.060   0.741  15.315 -0.9386  0.9502  1.7035
11155TIP3   OH254955   1.223   1.026  16.010 -0.1076 -0.0306  0.1925
11155TIP3    H154956   1.234   1.061  15.922 -1.4385  1.4541  0.6089
11155TIP3    H254957   1.144   0.972  16.005  0.4896 -0.9139  0.1910
11156TIP3   OH254958   3.943   3.064   5.136  0.0918  0.2860  0.3718
11156TIP3    H154959   3.929   3.082   5.229 -0.7945 -0.5100  0.3993
11156TIP3    H254960   3.930   3.149   5.093 -1.2489  0.3016  0.7926
11157TIP3   OH254961   2.074   3.112  15.595 -0.2195  0.2443  0.4541
11157TIP3    H154962   2.097   3.024  15.624 -0.4280  0.5843  1.6586
11157TIP3    H254963   2.145   3.167  15.626 -0.0633  0.4948 -0.3471
11158TIP3   OH254964   1.674   2.206   0.879  0.1273 -0.0418 -0.0005
11158TIP3    H154965   1.742   2.138   0.887  0.8848  0.5697 -1.0706
11158TIP3    H254966   1.723   2.286   0.860 -0.8066  0.6973  0.6705
11159TIP3   OH254967   5.981   3.460  14.131 -0.3523  0.3669 -0.3964
11159TIP3    H154968   5.890   3.455  14.100 -0.2112 -0.1866 -0.7225
11159TIP3    H254969   5.974   3.500  14.217 -0.8967  0.4570 -0.4756
11160TIP3   OH254970   6.624   0.490   5.640 -0.1446  0.7719 -0.3750
11160TIP3    H154971   6.589   0.576   5.662  0.0716  0.6660  0.3840
11160TIP3    H254972   6.549   0.441   5.607 -0.6384  0.6654  0.9055
11161TIP3   OH254973   6.471   3.598  16.180  0.5188 -0.1716 -0.0841
11161TIP3    H154974   6.514   3.514  16.163  0.8831  0.6271 -3.3944
11161TIP3    H254975   6.379   3.575  16.195  0.8569 -1.2739  0.4004
11162TIP3   OH254976   6.657   3.384  11.518 -0.5510 -0.0436 -0.4984
11162TIP3    H154977   6.709   3.415  11.444  1.6490 -1.6555  0.3204
11162TIP3    H254978   6.588   3.449  11.527 -0.2649  0.7225 -3.3074
11163TIP3   OH254979   4.791   3.824   2.181  0.2128  0.2535  0.0194
11163TIP3    H154980   4.850   3.867   2.242  2.1524 -2.9828  0.5245
11163TIP3    H254981   4.711   3.807   2.231 -0.1351  2.1295  0.1362
11164TIP3   OH254982   1.632   2.882   0.421  0.2643 -0.4419 -0.2456
11164TIP3    H154983   1.560   2.940   0.443  1.4032  1.1975 -0.7246
11164TIP3    H254984   1.616   2.803   0.473 -1.5446  0.1267  0.0823
11165TIP3   OH254985   1.169   1.529  13.539 -0.2446  0.7102  0.4051
11165TIP3    H154986   1.256   1.555  13.509 -0.0163 -0.5302 -0.0375
11165TIP3    H254987   1.112   1.541  13.463 -0.0671 -0.3967  0.0836
11166TIP3   OH254988   2.192   4.197  12.154 -0.5045  0.0399 -0.6785
11166TIP3    H154989   2.208   4.243  12.072  2.0137 -2.0804 -1.4738
11166TIP3    H254990   2.116   4.141  12.136 -0.4807  0.2011 -1.2874
11167TIP3   OH254991   2.824   3.811   1.298  0.3345  0.2526  0.3288
11167TIP3    H154992   2.835   3.882   1.234 -2.4169  0.4023 -0.0100
11167TIP3    H254993   2.866   3.845   1.377  0.5194  1.5835 -0.3189
11168TIP3   OH254994   1.611   1.196  17.186  0.0969 -0.0671 -0.1378
11168TIP3    H154995   1.532   1.163  17.229 -0.0425  1.8407  1.1305
11168TIP3    H254996   1.682   1.174  17.247  0.2698  0.1025 -0.2776
11169TIP3   OH254997   0.638   0.713  12.304 -0.0548 -0.2157 -0.3895
11169TIP3    H154998   0.636   0.688  12.397  0.0225  1.6211  0.1324
11169TIP3    H254999   0.691   0.646  12.262  0.9828 -0.3765  1.1222
11170TIP3   OH255000   0.246   3.020  15.578  0.2500 -0.3747 -0.4784
11170TIP3    H155001   0.270   2.963  15.651  0.4724 -0.6495 -0.7593
11170TIP3    H255002   0.189   2.965  15.523 -0.9819  0.2625  0.1613
11171TIP3   OH255003   5.962   4.762  15.053 -0.5161  0.1470  0.2309
11171TIP3    H155004   5.941   4.669  15.045 -0.8082  0.0361  2.1359
11171TIP3    H255005   6.028   4.777  14.985  0.7045 -1.8198  0.9427
11172TIP3   OH255006   0.734   4.495  15.824  0.1196  0.6434 -0.0502
11172TIP3    H155007   0.728   4.403  15.799  1.6635  1.1077 -2.1666
11172TIP3    H255008   0.796   4.533  15.763 -0.4975  3.1101  0.8118
11173TIP3   OH255009   5.148   5.532   1.575 -0.5232  0.1632  0.3631
11173TIP3    H155010   5.150   5.590   1.650 -1.4631  0.3830  0.2294
11173TIP3    H255011   5.205   5.459   1.599  0.7008  1.1527  0.5046
11174TIP3   OH255012   0.979   4.703   2.035  0.0028  0.2300  0.0194
11174TIP3    H155013   0.929   4.760   2.093 -0.5903 -1.7774  1.5641
11174TIP3    H255014   1.062   4.689   2.080  0.1923 -0.0131 -0.3969
11175TIP3   OH255015   5.147   1.951   2.912 -0.1775 -0.1803 -0.6612
11175TIP3    H155016   5.210   2.023   2.915  0.0725 -0.4316  0.4155
11175TIP3    H255017   5.064   1.992   2.890 -0.1403  0.5078  0.4842
11176TIP3   OH255018   4.043   0.350   1.792 -0.5052 -0.5017 -0.0948
11176TIP3    H155019   4.040   0.301   1.874 -0.5117 -1.6455 -0.7671
11176TIP3    H255020   4.127   0.325   1.753 -0.7073 -0.3091 -0.6501
11177TIP3   OH255021   5.627   1.720  14.143  0.2004 -0.4400  0.4454
11177TIP3    H155022   5.705   1.738  14.197  0.6783 -0.3179 -0.2846
11177TIP3    H255023   5.650   1.751  14.056 -0.4961 -0.8436  0.1137
11178TIP3   OH255024   2.029   4.753  17.105 -0.1895  0.1081  0.0557
11178TIP3    H155025   2.061   4.692  17.038  1.8552  2.4897 -1.2386
11178TIP3    H255026   1.939   4.726  17.121 -0.0774 -1.7918 -2.1733
11179TIP3   OH255027   3.966   6.819  14.441 -0.5539 -0.0264  0.4289
11179TIP3    H155028   3.986   6.804  14.349 -1.0260 -3.9542  0.8464
11179TIP3    H255029   4.031   6.767  14.488 -0.3447  1.9031  2.3408
11180TIP3   OH255030   1.858   0.155  13.913  0.3633  0.8677 -0.5099
11180TIP3    H155031   1.806   0.075  13.918  1.2927  0.3283  0.9435
11180TIP3    H255032   1.941   0.127  13.873  0.8012  1.0354  0.2735
11181TIP3   OH255033   6.437   0.878  12.016  0.8776  0.2578  0.3728
11181TIP3    H155034   6.401   0.790  12.023 -1.0070  0.8371 -1.3762
11181TIP3    H255035   6.378   0.933  12.068 -0.1017  1.0105 -1.4554
11182TIP3   OH255036   1.472   3.596  15.236  0.1272 -0.2591 -0.2141
11182TIP3    H155037   1.460   3.577  15.329 -0.7250 -0.3549 -0.3409
11182TIP3    H255038   1.437   3.685  15.225  2.1936  0.6067 -0.0306
11183TIP3   OH255039   2.758   5.739  16.520 -0.3952  0.7584 -0.2319
11183TIP3    H155040   2.784   5.825  16.486 -2.0856  0.1385 -3.3276
11183TIP3    H255041   2.793   5.677  16.456 -0.8049 -0.7456  0.9851
11184TIP3   OH255042   3.077   5.492   3.278  0.0184  0.7097 -0.1228
11184TIP3    H155043   3.043   5.500   3.368 -0.3346 -0.3395 -0.1523
11184TIP3    H255044   3.010   5.533   3.224 -0.3791  0.2171 -0.0136
11185TIP3   OH255045   6.425   1.591   2.074  0.3958 -0.1852  0.0319
11185TIP3    H155046   6.482   1.665   2.053 -0.2441 -0.1780 -1.7620
11185TIP3    H255047   6.486   1.518   2.088  0.9610  0.3834  0.5790
11186TIP3   OH255048   5.027   2.663   1.864 -0.0430  0.3578  0.0897
11186TIP3    H155049   5.101   2.674   1.805  0.9501 -1.1565  1.0498
11186TIP3    H255050   5.042   2.727   1.934  1.1816 -1.0045  1.0943
11187TIP3   OH255051   2.849   0.087   4.373  0.0510 -0.1679  0.3260
11187TIP3    H155052   2.917   0.021   4.358  0.8509  0.7547 -0.2569
11187TIP3    H255053   2.817   0.069   4.461 -0.1333 -1.6687 -0.0339
11188TIP3   OH255054   0.582   5.711   1.395  0.5793 -0.2080 -0.3743
11188TIP3    H155055   0.504   5.738   1.346 -0.0406 -1.9556 -0.3979
11188TIP3    H255056   0.547   5.671   1.475  1.5334  0.9575  0.6448
11189TIP3   OH255057   1.066   0.550   2.685  0.8854 -0.4068 -0.1536
11189TIP3    H155058   0.996   0.488   2.664  0.6234  0.8057 -3.0674
11189TIP3    H255059   1.023   0.620   2.733  0.4478 -0.6325 -0.2168
11190TIP3   OH255060   1.772   3.632   5.314  0.5649  0.0800 -0.5172
11190TIP3    H155061   1.826   3.636   5.235 -0.6315 -1.2213 -1.4135
11190TIP3    H255062   1.713   3.707   5.306 -1.4197 -1.6052 -2.2696
11191TIP3   OH255063   6.368   2.590  13.422  0.7506 -0.7004  0.0866
11191TIP3    H155064   6.425   2.665  13.406 -0.2275 -0.0922 -0.6458
11191TIP3    H255065   6.360   2.548  13.336  1.4360 -1.7578  0.5243
11192TIP3   OH255066   0.455   1.521  12.282 -0.7500  0.0710  0.2959
11192TIP3    H155067   0.473   1.512  12.188 -2.7529 -0.6382 -0.0458
11192TIP3    H255068   0.361   1.503  12.290 -0.5230 -0.2234  2.4902
11193TIP3   OH255069   0.708   2.854  15.240 -0.1522 -0.3758 -0.6219
11193TIP3    H155070   0.620   2.816  15.235  0.2325 -1.5621  0.9026
11193TIP3    H255071   0.696   2.937  15.286 -0.1012 -2.0535  2.5792
11194TIP3   OH255072   4.388   2.343  11.395 -0.3922  0.0464 -0.4017
11194TIP3    H155073   4.473   2.333  11.438 -0.8589  2.1457  1.0838
11194TIP3    H255074   4.349   2.255  11.397  1.3570 -0.7380 -0.3118
11195TIP3   OH255075   1.556   3.459  11.641  0.3447 -0.1287 -0.3740
11195TIP3    H155076   1.545   3.538  11.587 -2.1137 -0.3866 -0.3028
11195TIP3    H255077   1.472   3.448  11.685  0.8117 -2.5379 -0.0229
11196TIP3   OH255078   1.642   2.686   5.203  0.5254 -0.3492  0.0067
11196TIP3    H155079   1.685   2.609   5.165  1.6991  0.4036 -0.2136
11196TIP3    H255080   1.676   2.760   5.152 -0.5682  0.3242  0.2390
11197TIP3   OH255081   3.472   3.808  14.617  0.7570  0.1356 -0.5445
11197TIP3    H155082   3.547   3.847  14.572  1.7872 -0.4714  0.6454
11197TIP3    H255083   3.420   3.769  14.546  1.3282  0.9146 -1.4133
11198TIP3   OH255084   0.798   0.621   0.187 -0.4339 -0.2010 -0.0397
11198TIP3    H155085   0.886   0.618   0.225 -0.3319 -0.6608 -0.3131
11198TIP3    H255086   0.747   0.558   0.239 -0.9785  1.1144  1.0627
11199TIP3   OH255087   2.451   5.545  13.114  0.4151  0.2124 -0.6018
11199TIP3    H155088   2.409   5.459  13.116  3.1856 -1.2447 -2.2216
11199TIP3    H255089   2.462   5.569  13.206 -1.9464 -0.3514 -0.1448
11200TIP3   OH255090   4.204   3.403  13.279 -0.2859 -0.5650  0.2434
11200TIP3    H155091   4.184   3.458  13.355  0.9408 -0.0707  0.2140
11200TIP3    H255092   4.161   3.447  13.206  3.6634  2.4152 -0.4369
11201TIP3   OH255093   5.805   0.342  12.642 -0.4249  0.4454  0.2348
11201TIP3    H155094   5.787   0.401  12.569  1.0181  1.9335  1.0525
11201TIP3    H255095   5.770   0.258  12.614 -2.5209  1.6824 -0.9514
11202TIP3   OH255096   0.009   2.566  15.965 -0.2642 -0.7023  0.0516
11202TIP3    H155097  -0.006   2.621  15.888  2.3170  1.9853  1.3675
11202TIP3    H255098   0.075   2.502  15.936  0.4503  0.0818 -0.0540
11203TIP3   OH255099   4.293   4.607   0.228 -0.1503  0.1730 -0.4716
11203TIP3    H155100   4.249   4.527   0.255 -0.4960  0.6022  0.2821
11203TIP3    H255101   4.303   4.599   0.133  0.0539 -0.8675 -0.3674
11204TIP3   OH255102   4.035   2.229   0.433 -0.0118 -0.2804  0.7660
11204TIP3    H155103   3.984   2.308   0.415  1.2670  0.0612 -1.5820
11204TIP3    H255104   4.093   2.253   0.506 -0.0268  0.7681  0.4352
11205TIP3   OH255105   1.023   0.308   6.048 -0.3202 -0.5232 -0.6619
11205TIP3    H155106   1.070   0.301   6.131 -0.3682 -1.0352 -0.6726
11205TIP3    H255107   1.032   0.221   6.008 -0.0387 -0.1959 -1.3316
11206TIP3   OH255108   0.819   1.384   0.327 -0.2600 -0.0615 -0.4894
11206TIP3    H155109   0.815   1.471   0.288  1.1750 -0.7360 -2.2310
11206TIP3    H255110   0.906   1.352   0.304 -0.5383 -1.7163  0.6648
11207TIP3   OH255111   6.095   4.964  14.449 -0.7176 -0.7189 -0.0958
11207TIP3    H155112   6.002   4.987  14.452 -0.5398  0.3082 -1.8609
11207TIP3    H255113   6.101   4.899  14.379  0.0442 -0.0760 -0.6293
11208TIP3   OH255114   2.779   0.742   2.543 -0.7141 -0.3157  0.1108
11208TIP3    H155115   2.773   0.748   2.447  1.6943  0.2930 -0.0307
11208TIP3    H255116   2.818   0.656   2.559 -1.8610 -0.7569  0.6065
11209TIP3   OH255117   5.998   1.242  15.877  0.0191  0.1031  0.5774
11209TIP3    H155118   5.983   1.154  15.844  2.8182 -0.0682 -0.3310
11209TIP3    H255119   5.912   1.285  15.870 -0.9570 -1.9895 -0.6571
11210TIP3   OH255120   3.178   4.541  11.785 -0.1524 -0.4046 -0.6157
11210TIP3    H155121   3.094   4.574  11.755 -0.0248  1.0094  0.5442
11210TIP3    H255122   3.243   4.596  11.742  0.1133 -0.2173  0.0188
11211TIP3   OH255123   6.530   0.611   4.068 -0.0251 -0.0161  0.5104
11211TIP3    H155124   6.592   0.579   4.133 -0.9860 -0.9567  0.9794
11211TIP3    H255125   6.451   0.559   4.082  0.0968 -0.9712 -2.0993
11212TIP3   OH255126   4.768   3.614   0.079 -0.0006  0.3313 -0.3770
11212TIP3    H155127   4.810   3.700   0.075  0.8593 -0.0147  0.8718
11212TIP3    H255128   4.765   3.594   0.173 -0.3682 -0.9264 -0.6571
11213TIP3   OH255129   5.906   2.315   3.504  0.4143  0.6430  0.5938
11213TIP3    H155130   5.831   2.259   3.484  0.6493  0.9097 -1.1768
11213TIP3    H255131   5.925   2.359   3.421  2.6322  0.4488  0.9673
11214TIP3   OH255132   2.089   2.345   3.761  0.2168  0.2250 -0.7759
11214TIP3    H155133   2.079   2.351   3.856 -0.0510 -0.1505 -0.7811
11214TIP3    H255134   2.132   2.261   3.747 -1.8033 -0.7934 -1.1288
11215TIP3   OH255135   3.864   4.067  17.207  1.2920 -0.1126 -0.0767
11215TIP3    H155136   3.859   3.979  17.244 -0.9345 -0.7415 -1.8053
11215TIP3    H255137   3.791   4.113  17.247  2.0277  0.7664  0.2804
11216TIP3   OH255138   5.674   3.471  14.136  0.0873  0.6548  0.0783
11216TIP3    H155139   5.700   3.558  14.165  1.7784  0.7068 -1.4939
11216TIP3    H255140   5.648   3.484  14.044  1.1434 -0.6374 -0.4118
11217TIP3   OH255141   1.991   2.859   1.887  0.7252 -0.0254 -0.4926
11217TIP3    H155142   2.060   2.923   1.907  0.9708 -0.4097 -0.0965
11217TIP3    H255143   1.916   2.886   1.939  0.2704  0.9268 -1.6150
11218TIP3   OH255144   4.379   1.692  13.926  0.1652  0.1566  0.5957
11218TIP3    H155145   4.339   1.758  13.982  3.7556  2.1785  0.9178
11218TIP3    H255146   4.461   1.669  13.971  0.6869 -1.8826 -1.3269
11219TIP3   OH255147   3.158   3.346  12.019 -0.1085 -0.6079 -0.6299
11219TIP3    H155148   3.114   3.355  11.935 -1.0855 -2.0418 -0.2863
11219TIP3    H255149   3.113   3.408  12.076  0.4312  0.2313 -1.1006
11220TIP3   OH255150   1.620   4.509   2.251  0.0424 -0.3007 -0.1777
11220TIP3    H155151   1.643   4.512   2.344  0.3418 -1.8717 -0.1895
11220TIP3    H255152   1.704   4.513   2.205 -0.1774  1.7966 -0.4255
11221TIP3   OH255153   0.486   0.982   0.244 -0.0638 -0.3698  0.0171
11221TIP3    H155154   0.570   0.976   0.290  0.4866  0.1368 -0.8981
11221TIP3    H255155   0.497   0.927   0.166 -0.0235  0.9078 -0.9086
11222TIP3   OH255156   4.540   5.369   2.724 -0.3912  0.1510  0.0230
11222TIP3    H155157   4.505   5.330   2.644  0.4798 -2.2813  0.7651
11222TIP3    H255158   4.550   5.294   2.784 -1.3436  1.9422  2.5205
11223TIP3   OH255159   3.116   4.739   1.639 -0.2678  0.2252  0.0845
11223TIP3    H155160   3.151   4.772   1.556  1.2500 -2.4449 -0.4194
11223TIP3    H255161   3.114   4.644   1.627 -3.8973  0.0462  1.6615
11224TIP3   OH255162   6.388   2.495   0.045  0.4880 -0.4135 -0.4435
11224TIP3    H155163   6.460   2.494   0.107  1.7581  1.8847 -1.8502
11224TIP3    H255164   6.329   2.563   0.077  1.1819  0.8311 -1.7517
11225TIP3   OH255165   4.314   6.229  12.960  0.0552 -0.3812  0.3893
11225TIP3    H155166   4.243   6.168  12.981  0.6154 -1.1528  0.0629
11225TIP3    H255167   4.271   6.313  12.946 -0.6395 -0.4810  1.7835
11226TIP3   OH255168   1.917   3.064   0.286 -0.4998 -0.6001  0.0627
11226TIP3    H155169   1.872   3.004   0.226 -1.0402  0.4089 -0.5708
11226TIP3    H255170   1.893   3.034   0.373 -1.6640 -0.6291 -0.2651
11227TIP3   OH255171   6.761   1.034   4.263  0.9072 -0.1287 -0.3805
11227TIP3    H155172   6.696   0.970   4.291  1.1361 -0.3758 -0.4133
11227TIP3    H255173   6.739   1.052   4.172  0.2439  0.5734 -0.0840
11228TIP3   OH255174   1.630   6.007   3.437 -0.3886 -0.4386 -0.9155
11228TIP3    H155175   1.647   5.913   3.433 -1.2381 -0.5882 -0.9486
11228TIP3    H255176   1.545   6.019   3.395 -0.6690  0.2426 -0.1831
11229TIP3   OH255177   0.943   5.260  15.912  0.1976  0.0132  0.2488
11229TIP3    H155178   0.925   5.194  15.846  1.1640 -1.0612  1.0521
11229TIP3    H255179   0.929   5.343  15.867 -2.7485 -0.7060 -0.3051
11230TIP3   OH255180   1.191   6.615   5.349 -0.3785  0.6210  0.8923
11230TIP3    H155181   1.274   6.628   5.303 -0.5029  0.8586  0.7352
11230TIP3    H255182   1.143   6.552   5.295 -0.1934  0.2840  1.1195
11231TIP3   OH255183   0.950   0.457  16.200  0.2881 -0.2984 -0.3254
11231TIP3    H155184   0.921   0.544  16.170 -0.6533  0.6069  3.0259
11231TIP3    H255185   0.869   0.407  16.208  0.4734 -0.3488  1.2029
11232TIP3   OH255186   0.803   4.578   6.526 -0.6351  0.2253 -0.1755
11232TIP3    H155187   0.820   4.501   6.472 -0.3995  0.2340 -0.1176
11232TIP3    H255188   0.888   4.622   6.531 -0.0946 -0.9484  2.0439
11233TIP3   OH255189   2.284   6.568  13.969 -0.2970 -0.1580 -0.5954
11233TIP3    H155190   2.309   6.660  13.970  0.6617 -0.4154  1.1089
11233TIP3    H255191   2.313   6.534  14.054  1.1630 -2.4954 -1.9613
11234TIP3   OH255192   6.492   3.411  14.703 -0.0022  0.1553  0.3433
11234TIP3    H155193   6.543   3.332  14.723  1.7052  1.5994  1.9262
11234TIP3    H255194   6.416   3.406  14.762 -1.0062 -1.3015 -1.0252
11235TIP3   OH255195   2.968   3.148   4.359 -0.4300 -0.0767 -0.4500
11235TIP3    H155196   2.880   3.112   4.365 -0.7688  0.5537 -1.4643
11235TIP3    H255197   3.012   3.094   4.294  0.5411 -1.5769  1.4213
11236TIP3   OH255198   5.943   2.786   2.269  0.0435 -0.1306  0.1250
11236TIP3    H155199   6.003   2.723   2.230 -1.4612 -1.8892  0.6177
11236TIP3    H255200   5.860   2.740   2.275 -1.1195  1.9307  0.4148
11237TIP3   OH255201   5.147   1.810   5.114 -0.0074 -0.2379  0.0529
11237TIP3    H155202   5.115   1.774   5.196  1.5623 -1.1319  0.3025
11237TIP3    H255203   5.069   1.833   5.064 -0.9790 -1.2258  1.1184
11238TIP3   OH255204   3.812   0.781  10.975 -0.0147  0.3411 -0.6636
11238TIP3    H155205   3.763   0.716  10.924  0.9428 -1.3916  0.5703
11238TIP3    H255206   3.745   0.839  11.010 -1.1979 -1.7128  0.5934
11239TIP3   OH255207   2.130   1.631   6.238 -0.2292 -0.3975  0.5185
11239TIP3    H155208   2.199   1.663   6.179 -0.9021  2.5314  1.2112
11239TIP3    H255209   2.153   1.667   6.323 -1.4992 -1.1066  1.1699
11240TIP3   OH255210   0.114   3.062  17.292  0.3371 -0.4591  0.5612
11240TIP3    H155211   0.086   3.034  17.205 -1.2556 -1.6801  1.4193
11240TIP3    H255212   0.202   3.025  17.302  0.6899  0.0310 -0.6749
11241TIP3   OH255213   3.710   0.336  14.655 -0.0730  0.1635  0.1158
11241TIP3    H155214   3.648   0.405  14.676  0.5665  0.8655 -0.3150
11241TIP3    H255215   3.793   0.381  14.639  0.3562 -0.6967 -0.1288
11242TIP3   OH255216   0.097   4.987  12.094  0.0231  0.4147 -0.5634
11242TIP3    H155217   0.037   5.005  12.167 -0.6792  0.2402 -1.0878
11242TIP3    H255218   0.104   5.071  12.049  0.3145  0.4778 -0.4005
11243TIP3   OH255219   1.222   6.209  14.079 -0.0474 -0.2383 -0.4649
11243TIP3    H155220   1.298   6.217  14.021 -0.3096 -0.9423 -0.9174
11243TIP3    H255221   1.216   6.115  14.098 -0.1327 -0.0456  0.4798
11244TIP3   OH255222   2.002   4.641   0.860 -0.6789  1.0629 -0.2127
11244TIP3    H155223   2.013   4.684   0.945  0.3026  0.6291 -0.1054
11244TIP3    H255224   2.077   4.671   0.808 -1.4463  1.5700 -1.0382
11245TIP3   OH255225   4.204   6.563  14.817 -0.0319 -0.2557 -0.4323
11245TIP3    H155226   4.259   6.525  14.748  0.3306 -1.0493  0.2799
11245TIP3    H255227   4.131   6.502  14.826 -0.4859  0.2550 -0.6592
11246TIP3   OH255228   1.734   2.112   3.602 -0.1463  0.2426 -0.1326
11246TIP3    H155229   1.725   2.138   3.510  0.1877  0.2222 -0.1743
11246TIP3    H255230   1.809   2.051   3.601 -0.8576 -0.6425 -0.0292
11247TIP3   OH255231   2.696   4.135   4.270  0.1806 -0.0027 -0.1527
11247TIP3    H155232   2.622   4.098   4.319  0.7106  2.2468  2.5454
11247TIP3    H255233   2.773   4.094   4.308  0.5677  1.3377  0.5650
11248TIP3   OH255234   1.724   5.184  16.114  0.1694 -0.5722  0.5534
11248TIP3    H155235   1.644   5.201  16.064 -1.1661  0.2735  2.9172
11248TIP3    H255236   1.719   5.091  16.136  0.3635 -0.7576 -0.1487
11249TIP3   OH255237   1.406   2.189   5.350 -0.0670  0.3925  0.4048
11249TIP3    H155238   1.453   2.155   5.426 -0.7095  0.2952  0.7649
11249TIP3    H255239   1.323   2.141   5.349 -0.7775  1.5791  0.6431
11250TIP3   OH255240   5.468   6.158   5.522  0.1450 -0.5377  0.1027
11250TIP3    H155241   5.426   6.075   5.499 -0.0174 -0.1217 -1.1715
11250TIP3    H255242   5.555   6.134   5.553 -0.2627 -1.2511  0.7141
11251TIP3   OH255243   3.006   2.152   3.906  0.5756  0.2921 -0.6787
11251TIP3    H155244   2.949   2.216   3.949 -0.3781 -1.5531  0.8470
11251TIP3    H255245   2.949   2.108   3.843  0.6711 -0.5482 -0.1855
11252TIP3   OH255246   1.108   3.443   4.898 -0.1010 -0.3337 -0.1044
11252TIP3    H155247   1.033   3.431   4.956 -0.9792 -0.4559 -1.2484
11252TIP3    H255248   1.153   3.358   4.900 -0.7344 -0.6860 -0.4248
11253TIP3   OH255249   3.677   2.123   0.064  0.1240  0.1989  0.4704
11253TIP3    H155250   3.651   2.041   0.107  1.9672 -1.3960 -1.3359
11253TIP3    H255251   3.629   2.124  -0.018  0.4299  0.7313  0.2940
11254TIP3   OH255252   5.955   3.676   3.457  0.1872 -1.1440 -0.4004
11254TIP3    H155253   6.019   3.714   3.397  0.6521  1.1165  1.4424
11254TIP3    H255254   6.007   3.624   3.518  0.2418  0.2550  0.7715
11255TIP3   OH255255   5.391   4.225   3.989 -0.5178  0.6358 -0.3189
11255TIP3    H155256   5.446   4.221   3.912 -2.4197  0.4720 -1.7108
11255TIP3    H255257   5.311   4.178   3.964 -1.0284  0.2781  1.8564
11256TIP3   OH255258   2.804   6.384   1.106 -0.0604  0.0690  0.2173
11256TIP3    H155259   2.759   6.462   1.137  1.5621  0.8317  0.6819
11256TIP3    H255260   2.831   6.405   1.017  0.9494  0.2744  0.5738
11257TIP3   OH255261   2.367   4.514  13.760 -0.1652  0.2852 -0.2420
11257TIP3    H155262   2.370   4.584  13.695 -1.0047  0.2756 -0.3006
11257TIP3    H255263   2.427   4.448  13.727  1.0492  1.2101  0.0884
11258TIP3   OH255264   2.089   6.325  14.807 -0.3723  0.2288 -0.4151
11258TIP3    H155265   2.040   6.251  14.771  0.3150 -0.3128 -0.2409
11258TIP3    H255266   2.175   6.320  14.766 -0.7730  1.7672 -1.4670
11259TIP3   OH255267   4.773   4.023  13.302  0.6569 -0.1595 -0.7538
11259TIP3    H155268   4.799   3.943  13.347  0.8558  0.3084 -0.0437
11259TIP3    H255269   4.685   4.042  13.336  0.3964 -0.3575 -1.3046
11260TIP3   OH255270   1.472   5.808  16.851 -0.0802 -1.2418 -0.0112
11260TIP3    H155271   1.533   5.754  16.801 -0.4223 -1.4522 -0.2025
11260TIP3    H255272   1.420   5.745  16.900  0.3172 -1.0322  0.6896
11261TIP3   OH255273   4.197   1.466  11.046 -0.3236 -0.0830  0.5828
11261TIP3    H155274   4.208   1.510  10.961 -0.5573 -0.1904  0.4946
11261TIP3    H255275   4.147   1.529  11.098 -1.4883 -0.6163  0.1444
11262TIP3   OH255276   0.983   2.716   6.305 -0.2085  0.4847 -0.2965
11262TIP3    H155277   1.032   2.634   6.304 -1.9378 -0.6094  1.5422
11262TIP3    H255278   1.045   2.781   6.338  0.3166 -0.6995  1.0960
11263TIP3   OH255279   0.233   3.050  15.120 -0.6328 -0.2298 -0.3801
11263TIP3    H155280   0.249   2.986  15.051  0.5940  1.1293 -1.3678
11263TIP3    H255281   0.204   3.129  15.074 -0.6126  0.4315  0.7135
11264TIP3   OH255282   4.073   3.994  12.438  0.5930 -0.2630 -0.2274
11264TIP3    H155283   4.064   4.061  12.369  0.5393 -0.1486 -0.1084
11264TIP3    H255284   4.041   4.037  12.517 -2.2345 -1.3870 -0.7182
11265TIP3   OH255285   1.445   5.592   5.475  0.1939  0.0483  0.1007
11265TIP3    H155286   1.388   5.547   5.412  2.6534  0.6277 -2.6424
11265TIP3    H255287   1.384   5.639   5.532 -2.2102 -2.4622 -0.2776
11266TIP3   OH255288   1.288   4.978   5.344  0.4467 -0.1359  0.1642
11266TIP3    H155289   1.324   4.978   5.256  1.0633 -2.5076  0.3860
11266TIP3    H255290   1.319   5.060   5.383  1.7029  0.0542 -1.1996
11267TIP3   OH255291   2.277   1.133   0.215  0.2458  0.5088  0.1690
11267TIP3    H155292   2.213   1.162   0.281 -0.4121  0.6691 -0.5307
11267TIP3    H255293   2.296   1.212   0.164 -1.0323 -0.1278 -1.3144
11268TIP3   OH255294   0.876   5.442   4.770  0.1833  0.0228  0.1909
11268TIP3    H155295   0.950   5.490   4.732 -0.4643  0.7115 -0.2018
11268TIP3    H255296   0.905   5.419   4.858  0.5548  1.0047  0.3273
11269TIP3   OH255297   2.084   3.394   0.744  0.1794  0.2119 -0.1672
11269TIP3    H155298   2.101   3.386   0.651  0.1052 -0.8261 -0.0953
11269TIP3    H255299   2.165   3.367   0.786 -0.0008  0.0541  0.0805
11270TIP3   OH255300   1.689   0.509   3.564 -0.2163  0.5573 -0.2555
11270TIP3    H155301   1.704   0.414   3.568  1.2243  0.7368 -1.0023
11270TIP3    H255302   1.731   0.544   3.642  1.2833  0.8229 -1.1761
11271TIP3   OH255303   2.195   6.581   3.644  0.5617  0.1133 -0.4896
11271TIP3    H155304   2.276   6.554   3.602  0.3909 -1.6026  0.2165
11271TIP3    H255305   2.157   6.499   3.677  0.3990  1.3089  2.4273
11272TIP3   OH255306   1.754   4.239  11.637 -0.3787  0.3406  0.3044
11272TIP3    H155307   1.824   4.175  11.627 -2.3934 -2.1671  1.7446
11272TIP3    H255308   1.712   4.245  11.551  1.3384  1.6126 -0.4746
11273TIP3   OH255309   3.790   4.949  11.137 -0.4216  0.2443 -0.4355
11273TIP3    H155310   3.780   5.031  11.089 -0.1129  1.1161  0.9595
11273TIP3    H255311   3.702   4.911  11.138 -0.2957 -0.1730 -2.3170
11274TIP3   OH255312   1.049   0.710   4.792  0.1830 -0.2107  0.2189
11274TIP3    H155313   1.102   0.763   4.851  1.0042 -0.1749 -0.5503
11274TIP3    H255314   1.028   0.769   4.719 -0.0561 -0.5301  0.0281
11275TIP3   OH255315   2.813   1.429  15.439  0.1307  0.4252 -0.0859
11275TIP3    H155316   2.886   1.490  15.425  1.6385 -0.8481  1.9262
11275TIP3    H255317   2.779   1.453  15.525 -0.3289 -0.4916 -0.0120
11276TIP3   OH255318   6.706   2.514  14.788 -0.8001 -0.0912 -0.0369
11276TIP3    H155319   6.624   2.478  14.820  0.9853 -2.2702  2.3143
11276TIP3    H255320   6.763   2.438  14.777  1.2525  1.4593 -0.5729
11277TIP3   OH255321   4.855   2.049  13.115 -0.6775 -0.4332 -0.2779
11277TIP3    H155322   4.847   2.114  13.185 -0.2571 -2.0429  1.2992
11277TIP3    H255323   4.943   2.062  13.081 -0.8026  0.2148 -0.3629
11278TIP3   OH255324   4.433   1.910  16.551 -0.0624 -0.1503  0.0313
11278TIP3    H155325   4.529   1.912  16.547 -0.0727  1.9428  0.0666
11278TIP3    H255326   4.413   1.936  16.640 -0.6853  1.5005 -0.5729
11279TIP3   OH255327   3.349   5.861  11.414  0.1695 -0.7626 -0.1061
11279TIP3    H155328   3.312   5.872  11.502 -0.0760 -2.7259  0.0577
11279TIP3    H255329   3.444   5.853  11.429  0.6138  3.1060 -0.4249
11280TIP3   OH255330   1.720   5.957  16.625 -0.3274  0.3441 -0.2699
11280TIP3    H155331   1.716   5.954  16.720 -1.0124 -1.9262 -0.3550
11280TIP3    H255332   1.811   5.977  16.605  0.2338 -1.1024  0.8283
11281TIP3   OH255333   0.084   5.071   1.953  0.1150  0.2419 -0.0630
11281TIP3    H155334   0.169   5.083   1.996  0.7273  0.7702 -1.4020
11281TIP3    H255335   0.058   5.159   1.926 -1.6443  0.3041  1.7719
11282TIP3   OH255336   0.857   2.270  15.862  0.8673 -0.9363  0.3112
11282TIP3    H155337   0.844   2.209  15.789 -1.2210 -0.6606  0.4242
11282TIP3    H255338   0.823   2.223  15.938 -0.6585  0.3329  0.4136
11283TIP3   OH255339   1.120   5.502  15.565 -0.0820 -0.5907 -0.3739
11283TIP3    H155340   1.135   5.482  15.657 -0.8743 -0.5908 -0.2402
11283TIP3    H255341   1.208   5.518  15.529  0.2502 -0.8484  0.3162
11284TIP3   OH255342   1.242   3.926  13.499 -0.0349 -0.5388 -0.1621
11284TIP3    H155343   1.217   3.956  13.587  0.2456  0.4656 -0.4127
11284TIP3    H255344   1.161   3.935  13.447  0.2542  0.6176 -0.4392
11285TIP3   OH255345   5.966   6.232   0.170 -0.1778 -0.3744  0.4739
11285TIP3    H155346   5.910   6.280   0.109 -1.4388 -1.0306  1.0828
11285TIP3    H255347   5.944   6.267   0.256  1.8062  0.7486  0.5496
11286TIP3   OH255348   5.310   2.532  15.906  0.2069  0.2426  0.3504
11286TIP3    H155349   5.216   2.547  15.892 -0.3962 -0.0591  3.7009
11286TIP3    H255350   5.336   2.475  15.833 -1.6152  2.3455 -2.0375
11287TIP3   OH255351   4.009   5.605  10.901  0.2511  0.2367  0.3290
11287TIP3    H155352   3.929   5.638  10.941 -0.3490 -0.0098 -0.6637
11287TIP3    H255353   3.980   5.539  10.839  1.2314  0.0515  0.0534
11288TIP3   OH255354   5.381   3.333   0.981  0.5085 -0.5050  0.3296
11288TIP3    H155355   5.341   3.420   0.981  0.4595 -0.5124 -1.6722
11288TIP3    H255356   5.325   3.281   0.925 -0.0701 -2.1505  2.3740
11289TIP3   OH255357   1.535   3.489   4.244  0.5508  0.4537  0.2125
11289TIP3    H155358   1.534   3.432   4.320  2.3343 -1.5098 -1.1510
11289TIP3    H255359   1.449   3.478   4.203  1.7140 -3.3167 -1.4253
11290TIP3   OH255360   6.559   4.413   1.277 -0.0250 -0.6382  0.0735
11290TIP3    H155361   6.653   4.424   1.286 -0.1136 -0.0808  0.3633
11290TIP3    H255362   6.548   4.336   1.222  0.6099  0.0770 -1.0574
11291TIP3   OH255363   5.594   0.028  11.903  0.6946 -0.0947 -0.1228
11291TIP3    H155364   5.554   0.026  11.816 -0.0266 -0.2200  0.2071
11291TIP3    H255365   5.688   0.035  11.886  0.4199  2.1309 -0.9051
11292TIP3   OH255366   5.409   4.934   2.907 -0.0379 -0.8303  0.2500
11292TIP3    H155367   5.358   4.918   2.827 -0.6463  1.0168  0.2395
11292TIP3    H255368   5.358   4.895   2.977 -3.2007  3.7340  0.6958
11293TIP3   OH255369   1.248   1.503  15.381  0.2633  0.2196  0.1773
11293TIP3    H155370   1.283   1.471  15.298  0.2788 -0.7685  0.5570
11293TIP3    H255371   1.156   1.475  15.381  0.3120  0.0459  0.5718
11294TIP3   OH255372   4.468   5.832   5.293 -0.5039  0.1282 -0.1147
11294TIP3    H155373   4.467   5.762   5.228 -0.8750  0.0573 -0.0328
11294TIP3    H255374   4.555   5.871   5.284 -1.2183  1.3395 -1.9345
11295TIP3   OH255375   2.392   5.031  16.891  1.0851 -0.0398  0.2426
11295TIP3    H155376   2.351   5.016  16.976 -0.6833 -0.0869 -0.5885
11295TIP3    H255377   2.374   5.123  16.872 -1.4991 -0.8394 -1.5575
11296TIP3   OH255378   6.212   1.497  14.107  0.0796 -0.1137 -0.1910
11296TIP3    H155379   6.251   1.585  14.103  4.0892 -1.8349 -1.5990
11296TIP3    H255380   6.236   1.465  14.194 -0.8061 -0.0649  0.0695
11297TIP3   OH255381   2.385   2.361  12.908 -0.2216  0.0358  0.0764
11297TIP3    H155382   2.386   2.411  12.990  0.9420 -0.2547  0.2458
11297TIP3    H255383   2.415   2.423  12.842 -2.6785  0.7416 -0.4282
11298TIP3   OH255384   0.492   1.396  12.517 -0.2943  0.2616  0.1939
11298TIP3    H155385   0.451   1.472  12.558  0.0062 -0.0255  1.0308
11298TIP3    H255386   0.479   1.410  12.423  0.1974  1.5980  0.3057
11299TIP3   OH255387   2.686   0.890  16.587 -0.3699 -0.4129  0.6233
11299TIP3    H155388   2.656   0.981  16.591 -0.2663 -0.4308  3.1660
11299TIP3    H255389   2.606   0.839  16.572 -0.8035 -0.0486  1.6404
11300TIP3   OH255390   4.851   5.656  16.741  0.0870  0.0271 -0.1297
11300TIP3    H155391   4.804   5.729  16.702  0.8680  0.5099 -0.1782
11300TIP3    H255392   4.783   5.596  16.770 -0.6155  1.5500  1.4162
11301TIP3   OH255393   1.659   2.507   1.874 -0.1172  0.1889  0.2993
11301TIP3    H155394   1.726   2.490   1.808  0.0055  1.7420  0.0193
11301TIP3    H255395   1.677   2.442   1.943  1.7065  0.6150  0.2588
11302TIP3   OH255396   2.721   3.279  13.768  0.1585 -0.2589 -0.8320
11302TIP3    H155397   2.755   3.297  13.680  0.6568  1.3324 -0.3246
11302TIP3    H255398   2.799   3.264  13.821 -0.1499 -1.4356 -0.7024
11303TIP3   OH255399   4.632   1.125   3.329 -0.0036 -0.1786 -0.1299
11303TIP3    H155400   4.602   1.167   3.410 -1.0888 -0.2193 -0.5054
11303TIP3    H255401   4.656   1.198   3.272  0.4959 -0.1434  0.1191
11304TIP3   OH255402   6.364   6.572   0.609 -0.2024 -0.0654 -0.6481
11304TIP3    H155403   6.439   6.522   0.577  0.0778 -0.4463  0.5679
11304TIP3    H255404   6.342   6.531   0.692 -0.1084  1.6844  0.2741
11305TIP3   OH255405   1.026   4.389   4.809  0.2631  0.1030 -0.2296
11305TIP3    H155406   1.005   4.439   4.730 -0.7027 -0.5438 -0.3965
11305TIP3    H255407   1.121   4.397   4.818  0.2664  0.9521 -0.9296
11306TIP3   OH255408   4.258   1.184   3.141  0.4486 -0.0039  0.5669
11306TIP3    H155409   4.307   1.180   3.223  3.1385  1.0821 -0.9048
11306TIP3    H255410   4.246   1.278   3.125 -1.1500 -0.2384  0.3437
11307TIP3   OH255411   0.330   0.425  16.897 -0.1190 -0.4475 -0.2390
11307TIP3    H155412   0.375   0.482  16.959 -0.8753  1.6582 -1.5805
11307TIP3    H255413   0.287   0.484  16.836 -1.2114 -2.4562 -1.4920
11308TIP3   OH255414   5.283   6.467  13.552  0.2188  0.2024 -0.6802
11308TIP3    H155415   5.292   6.444  13.460  1.3057  0.2341 -0.5915
11308TIP3    H255416   5.373   6.486  13.581 -0.2905  1.7522 -0.0225
11309TIP3   OH255417   4.559   2.210  15.403 -0.3917 -0.0035  0.3112
11309TIP3    H155418   4.651   2.233  15.390 -0.0410 -1.1870  0.6204
11309TIP3    H255419   4.537   2.246  15.489 -0.5956  1.4036 -0.3209
11310TIP3   OH255420   5.232   3.812   5.698 -0.3919  0.1860 -0.2955
11310TIP3    H155421   5.175   3.876   5.742  1.8965  1.9724  0.1903
11310TIP3    H255422   5.210   3.820   5.605 -3.2598 -1.5655  0.1871
11311TIP3   OH255423   4.834   0.337   2.581  0.4120  0.0384  0.1734
11311TIP3    H155424   4.883   0.311   2.502  0.2099 -0.9440  0.3688
11311TIP3    H255425   4.803   0.426   2.562  2.0407  0.5790 -0.0651
11312TIP3   OH255426   6.543   4.049  12.401 -0.3722 -0.1738 -0.4806
11312TIP3    H155427   6.631   4.018  12.382 -0.9222 -0.9569 -1.8476
11312TIP3    H255428   6.546   4.143  12.385 -0.2391 -0.4778 -2.3465
11313TIP3   OH255429   5.140   5.539   0.023 -0.2317  0.5874 -0.5989
11313TIP3    H155430   5.147   5.634   0.007  0.6579  0.1814 -2.8073
11313TIP3    H255431   5.174   5.499  -0.056  1.1377 -1.6239  1.0509
11314TIP3   OH255432   6.761   6.471   5.072  0.0672 -0.8388 -0.0455
11314TIP3    H155433   6.774   6.391   5.021 -0.4503 -1.6474  1.0866
11314TIP3    H255434   6.674   6.503   5.046 -0.4958 -1.6336  0.8457
11315TIP3   OH255435   0.118   6.036  11.434 -0.3305 -0.6808 -0.2140
11315TIP3    H155436   0.093   6.065  11.347 -2.6004  0.5714  0.7965
11315TIP3    H255437   0.213   6.031  11.432 -0.2303  1.3005 -2.1392
11316TIP3   OH255438   3.862   2.430   0.338 -0.4292 -0.1448 -0.3622
11316TIP3    H155439   3.781   2.415   0.290 -1.2027 -2.8628  1.6733
11316TIP3    H255440   3.842   2.503   0.397 -0.8966  0.1992 -0.9491
11317TIP3   OH255441   6.373   3.152  13.674  0.0031 -0.3926  0.3537
11317TIP3    H155442   6.427   3.090  13.625 -0.0648 -0.0995 -0.1007
11317TIP3    H255443   6.292   3.105  13.692 -0.7117  0.1146 -1.4352
11318TIP3   OH255444   5.834   2.213   5.462 -0.6244  0.1608 -1.0844
11318TIP3    H155445   5.783   2.137   5.490 -1.2205  1.2239  0.7847
11318TIP3    H255446   5.924   2.180   5.454 -0.3724 -0.1293  2.3954
11319TIP3   OH255447   0.345   1.198  11.167 -0.5762  0.2695  0.2899
11319TIP3    H155448   0.267   1.218  11.114 -0.0089 -0.2239 -0.7528
11319TIP3    H255449   0.413   1.177  11.102 -0.0426 -1.0060  1.2489
11320TIP3   OH255450   1.215   6.482  11.965 -0.1463 -0.0435 -0.0283
11320TIP3    H155451   1.188   6.551  12.025  0.2463 -1.5261  1.9041
11320TIP3    H255452   1.137   6.426  11.957  0.3874 -0.9065  0.6573
11321TIP3   OH255453   3.373   1.242   5.969  0.2866  0.0980  0.0325
11321TIP3    H155454   3.332   1.189   6.037 -0.1179 -0.0487 -0.3282
11321TIP3    H255455   3.445   1.287   6.015 -0.4884  0.6335  0.7326
11322TIP3   OH255456   3.409   0.680   2.199  0.2596 -0.1593 -0.1181
11322TIP3    H155457   3.328   0.634   2.176  1.1758 -1.8381 -0.0626
11322TIP3    H255458   3.424   0.657   2.291 -0.5244  2.1829  0.6273
11323TIP3   OH255459   4.654   5.725   0.487 -0.3885 -0.0764  0.0422
11323TIP3    H155460   4.584   5.705   0.425 -0.2791  0.1515 -0.1573
11323TIP3    H255461   4.663   5.820   0.482  0.6573 -0.2117 -0.7217
11324TIP3   OH255462   5.655   6.671   2.669 -0.0141  0.2356 -0.1004
11324TIP3    H155463   5.656   6.580   2.641  2.1035 -0.0755  0.8917
11324TIP3    H255464   5.669   6.667   2.764  0.1318  1.6088 -0.0537
11325TIP3   OH255465   0.796   0.169   5.126 -0.6561 -0.3227  0.1866
11325TIP3    H155466   0.807   0.075   5.139  2.3521 -0.1939 -1.1390
11325TIP3    H255467   0.848   0.189   5.048 -0.2192  2.6454  1.1736
11326TIP3   OH255468   1.087   6.663   6.927  0.2350 -0.1003  0.1637
11326TIP3    H155469   1.049   6.590   6.879 -0.0130 -0.2221  0.5491
11326TIP3    H255470   1.092   6.633   7.017 -3.1955  1.6173  1.0112
11327TIP3   OH255471   4.570   0.550   1.718  0.3634 -0.4069 -0.0642
11327TIP3    H155472   4.645   0.609   1.732 -0.3876  0.4892  0.2595
11327TIP3    H255473   4.592   0.502   1.639  1.4411 -0.3950  0.2187
11328TIP3   OH255474   1.906   0.127  12.232 -0.2583 -0.3968 -0.5405
11328TIP3    H155475   1.813   0.146  12.230 -0.2422 -0.3102 -0.4499
11328TIP3    H255476   1.930   0.129  12.325  0.4660  2.6716 -0.7378
11329TIP3   OH255477   6.137   2.748  11.697  0.2788 -0.0673  0.1805
11329TIP3    H155478   6.204   2.799  11.652 -0.3059  0.2044 -0.3803
11329TIP3    H255479   6.060   2.754  11.641 -0.0308 -0.9132  0.5084
11330TIP3   OH255480   0.641   0.879  11.530  0.4707  0.5265  0.3399
11330TIP3    H155481   0.635   0.953  11.469 -2.1580  0.4089  0.4312
11330TIP3    H255482   0.692   0.814  11.482 -1.0966  0.6480 -1.5421
11331TIP3   OH255483   5.706   1.555  14.611 -0.5518  0.3603  0.6554
11331TIP3    H155484   5.649   1.509  14.672 -0.2966 -0.2589  0.4242
11331TIP3    H255485   5.745   1.487  14.557 -0.6979  0.8964 -0.1368
11332TIP3   OH255486   6.329   1.027  12.647 -0.3317  0.0207  0.0191
11332TIP3    H155487   6.257   0.978  12.606 -0.2369 -0.0107 -0.1093
11332TIP3    H255488   6.331   1.110  12.599  0.2218 -0.2840 -0.4867
11333TIP3   OH255489   1.414   0.119  16.933 -0.2140  0.0207 -0.4350
11333TIP3    H155490   1.367   0.054  16.986  2.7856 -0.9486  1.1752
11333TIP3    H255491   1.477   0.067  16.882  1.6925  1.5550  0.2776
11334TIP3   OH255492   6.712   4.093   2.547 -0.1299 -0.1034  0.5517
11334TIP3    H155493   6.804   4.103   2.522 -0.4504 -0.6739 -0.9119
11334TIP3    H255494   6.678   4.183   2.550  1.1042  0.3303  3.7217
11335TIP3   OH255495   5.687   3.986  12.406  0.1189 -0.0389  0.3879
11335TIP3    H155496   5.735   3.989  12.489 -2.0294  0.2480  1.6371
11335TIP3    H255497   5.632   3.909  12.413  0.5568 -0.5200 -1.1652
11336TIP3   OH255498   6.599   3.156   1.469 -0.4424 -0.2822  1.0307
11336TIP3    H155499   6.541   3.203   1.528 -0.3439  1.0226  0.1097
11336TIP3    H255500   6.549   3.078   1.443 -1.9755  1.0626 -0.1300
11337TIP3   OH255501   0.516   0.850  17.287 -0.1036  0.5245  0.2215
11337TIP3    H155502   0.508   0.755  17.292  2.0616  0.4476  3.9314
11337TIP3    H255503   0.474   0.873  17.204  1.2800 -3.8516 -1.8620
11338TIP3   OH255504   5.314   2.210  11.758  0.0323  0.2110 -0.4939
11338TIP3    H155505   5.366   2.289  11.770  1.4088 -0.9158  1.1688
11338TIP3    H255506   5.346   2.149  11.825 -2.0711 -1.2091 -0.7170
11339TIP3   OH255507   2.485   2.060  13.032 -0.0846 -0.0235  0.6875
11339TIP3    H155508   2.400   2.104  13.040 -0.4009 -0.3292 -0.9601
11339TIP3    H255509   2.464   1.971  13.005  0.8150  0.2981 -1.1473
11340TIP3   OH255510   0.838   3.400   5.634  0.4875 -0.4479  0.3752
11340TIP3    H155511   0.902   3.426   5.700 -0.9804  1.0731  1.2340
11340TIP3    H255512   0.877   3.429   5.551  1.6805 -1.0665  0.7075
11341TIP3   OH255513   6.700   5.147  15.994  0.1446  0.1083 -0.0329
11341TIP3    H155514   6.608   5.121  16.001  0.2783 -0.1758  0.7582
11341TIP3    H255515   6.741   5.074  15.947  0.1298 -0.1733  0.3865
11342TIP3   OH255516   2.592   0.068  12.981 -0.3669  0.3140  0.3147
11342TIP3    H155517   2.610  -0.018  13.019  1.0080  0.0987 -0.7675
11342TIP3    H255518   2.673   0.091  12.936 -2.1096  0.3500 -2.8888
11343TIP3   OH255519   3.698   0.452  11.629 -0.0558  0.3615 -0.8635
11343TIP3    H155520   3.704   0.510  11.705  2.6144  0.7080 -1.2706
11343TIP3    H255521   3.608   0.460  11.599 -1.6196 -1.0104  3.2169
11344TIP3   OH255522   4.343   4.567  12.755  0.0636 -0.4462  0.1030
11344TIP3    H155523   4.318   4.567  12.848 -0.6430 -0.2811 -0.0804
11344TIP3    H255524   4.316   4.654  12.724  1.2472 -0.1169 -0.0091
11345TIP3   OH255525   5.009   3.352  17.272  0.0565  0.4109 -0.2180
11345TIP3    H155526   5.096   3.385  17.251  0.1051 -0.3362 -1.2155
11345TIP3    H255527   4.952   3.388  17.204 -0.2306  0.0335 -0.1749
11346TIP3   OH255528   0.895   2.301   1.262 -0.4999  1.0048  0.0889
11346TIP3    H155529   0.818   2.252   1.289 -0.1083  0.7131  0.6842
11346TIP3    H255530   0.882   2.389   1.298 -1.2132  1.3507 -0.9992
11347TIP3   OH255531   4.768   1.592   5.703  0.1878 -0.4193 -0.0850
11347TIP3    H155532   4.797   1.530   5.636 -2.4755 -1.2912 -0.4866
11347TIP3    H255533   4.816   1.566   5.782  0.9588 -1.3933 -0.8513
11348TIP3   OH255534   0.656   5.588   4.428  0.3582 -0.0650 -0.0256
11348TIP3    H155535   0.575   5.599   4.478  0.4945  1.4282 -0.1082
11348TIP3    H255536   0.702   5.516   4.471 -0.1210  0.3511  1.1983
11349TIP3   OH255537   4.428   3.520   5.560 -0.1678  0.3193  0.3203
11349TIP3    H155538   4.480   3.569   5.624 -0.7063 -0.3588  1.2933
11349TIP3    H255539   4.340   3.517   5.598 -0.2411 -1.0297  0.0871
11350TIP3   OH255540   5.763   2.196  11.657 -0.3489 -0.3788 -0.1506
11350TIP3    H155541   5.790   2.239  11.738  0.2113 -1.2623  0.1495
11350TIP3    H255542   5.843   2.152  11.627 -0.5441 -0.0269 -1.2007
11351TIP3   OH255543   5.992   3.512   1.920  0.6110 -0.3759 -0.0618
11351TIP3    H155544   5.947   3.573   1.861  0.6547 -1.5594 -1.3662
11351TIP3    H255545   5.941   3.431   1.913  0.2126 -0.3476  2.0850
11352TIP3   OH255546   4.254   3.512   0.491  0.0016  0.3904  0.0157
11352TIP3    H155547   4.257   3.607   0.475 -1.4804  0.3111 -0.8171
11352TIP3    H255548   4.172   3.498   0.539  0.0124 -0.5267 -0.2245
11353TIP3   OH255549   6.476   3.149  12.365 -0.2743  0.2955 -0.2774
11353TIP3    H155550   6.401   3.112  12.412 -1.4989 -1.2246 -3.2572
11353TIP3    H255551   6.456   3.242  12.357 -0.4421  0.4154  1.4695
11354TIP3   OH255552   4.090   2.343  12.338  0.2989 -0.0244  0.3996
11354TIP3    H155553   4.142   2.323  12.260 -1.0551  0.7668 -0.7359
11354TIP3    H255554   4.026   2.406  12.307  0.9557  1.7586  2.6218
11355TIP3   OH255555   6.707   1.204   6.126 -0.3009  0.1750  0.7407
11355TIP3    H155556   6.769   1.153   6.178  0.2550 -0.4925 -0.5492
11355TIP3    H255557   6.662   1.139   6.072  1.1108  1.1143 -1.6588
11356TIP3   OH255558   5.159   4.969  16.231 -0.0505  0.0149  0.1344
11356TIP3    H155559   5.161   4.908  16.305 -1.0787  0.0459  0.2023
11356TIP3    H255560   5.203   5.047  16.263 -1.4536  0.4351  1.1059
11357TIP3   OH255561   6.602   3.664   2.547 -0.3579  0.4408  0.4458
11357TIP3    H155562   6.625   3.656   2.455 -1.1685  0.9143  0.2042
11357TIP3    H255563   6.680   3.703   2.588  0.6856 -1.3950  0.2907
11358TIP3   OH255564   4.913   1.666  11.247 -0.0823 -0.1891 -0.1424
11358TIP3    H155565   4.934   1.604  11.316 -1.2017 -0.0387  0.3413
11358TIP3    H255566   4.950   1.626  11.168  0.7390 -0.6139  0.4470
11359TIP3   OH255567   5.561   0.088  15.335 -0.1978 -0.0743  0.1312
11359TIP3    H155568   5.620   0.162  15.348 -1.7411  1.1622  0.2768
11359TIP3    H255569   5.574   0.062  15.244 -0.3754  1.0428 -0.2163
11360TIP3   OH255570   2.132   6.630  16.623 -0.1613  0.7408 -0.4391
11360TIP3    H155571   2.060   6.580  16.583 -0.5323  1.4335 -0.6419
11360TIP3    H255572   2.197   6.564  16.645 -0.4552  0.2177 -1.1172
11361TIP3   OH255573   1.852   3.128  15.897  0.2748 -0.5008 -0.0966
11361TIP3    H155574   1.818   3.040  15.915  1.7893 -0.9635  0.5546
11361TIP3    H255575   1.816   3.182  15.968  0.7994 -0.9663  0.5322
11362TIP3   OH255576   3.470   0.102  13.263 -0.1206 -0.1421  0.0254
11362TIP3    H155577   3.382   0.131  13.241 -0.6264 -1.0118  0.8735
11362TIP3    H255578   3.470   0.095  13.359  1.5581  2.0468  0.2473
11363TIP3   OH255579   3.257   6.267   4.451  0.4635  0.1155 -0.6987
11363TIP3    H155580   3.217   6.293   4.534  4.6153  3.3553  0.4617
11363TIP3    H255581   3.272   6.173   4.460  1.7218  0.5646  2.6945
11364TIP3   OH255582   2.529   4.789  15.701  0.3728 -0.3906 -0.0546
11364TIP3    H155583   2.558   4.802  15.611  0.1469 -0.3307 -0.1196
11364TIP3    H255584   2.463   4.720  15.695 -0.6546  0.5921 -0.1222
11365TIP3   OH255585   4.075   3.722  17.026 -0.5573  0.3475 -0.3178
11365TIP3    H155586   4.044   3.660  17.091  0.2871  1.0453  0.7728
11365TIP3    H255587   4.153   3.681  16.988 -1.1453 -0.1322 -1.0039
11366TIP3   OH255588   5.348   2.055  14.214 -0.8121 -0.1832  0.3083
11366TIP3    H155589   5.374   2.035  14.124 -0.4761  0.9518  0.1477
11366TIP3    H255590   5.430   2.071  14.260 -1.1016  1.5381  0.2513
11367TIP3   OH255591   1.668   6.524   4.955  0.1466 -0.8525 -0.0713
11367TIP3    H155592   1.614   6.474   5.016  1.2035 -0.8017  0.9071
11367TIP3    H255593   1.609   6.593   4.923 -0.1252 -0.2672  1.6439
11368TIP3   OH255594   5.103   6.713   5.250 -0.4423 -0.5189 -0.3762
11368TIP3    H155595   5.041   6.764   5.199 -0.6965 -1.6919 -1.2631
11368TIP3    H255596   5.070   6.623   5.246 -0.9785 -0.5186  2.6222
11369TIP3   OH255597   0.056   6.439  16.223 -0.2824 -0.0791  0.5801
11369TIP3    H155598   0.012   6.517  16.256 -1.6226 -0.0485 -1.2549
11369TIP3    H255599  -0.011   6.371  16.221 -0.0799 -0.2508 -1.4655
11370TIP3   OH255600   2.340   3.776  14.047 -0.4944 -0.1487  0.0156
11370TIP3    H155601   2.349   3.865  14.080  0.7922 -0.3501  0.2171
11370TIP3    H255602   2.267   3.781  13.985 -1.6901  0.6322  1.4431
11371TIP3   OH255603   1.159   3.103  13.046 -0.6831 -0.2461 -0.3094
11371TIP3    H155604   1.115   3.049  12.980 -0.9917  2.1823 -2.1435
11371TIP3    H255605   1.114   3.187  13.042  1.1736  0.8420  0.9930
11372TIP3   OH255606   0.912   5.256  12.588 -0.1821 -0.3926 -0.4672
11372TIP3    H155607   0.963   5.305  12.524  0.5168  1.4430  1.4309
11372TIP3    H255608   0.854   5.321  12.628  1.9973 -0.6567  3.3577
11373TIP3   OH255609   3.029   5.427  16.869  0.0853  0.0167  0.7007
11373TIP3    H155610   2.951   5.461  16.826  0.2294 -2.3634 -1.5886
11373TIP3    H255611   3.049   5.491  16.937 -3.5362  0.9452  1.0045
11374TIP3   OH255612   5.631   2.381  16.472 -0.5009  0.1118  0.1521
11374TIP3    H155613   5.563   2.313  16.470  0.4726 -0.8404 -0.7517
11374TIP3    H255614   5.606   2.441  16.402 -0.9262  0.2690  0.4337
11375TIP3   OH255615   0.728   2.809   0.618  0.2178 -0.8680  0.4025
11375TIP3    H155616   0.779   2.835   0.695 -1.4117  2.0628  0.5369
11375TIP3    H255617   0.775   2.848   0.544 -0.8321  0.3414  0.3636
11376TIP3   OH255618   1.500   2.711   2.926 -0.0396  0.5275  0.0797
11376TIP3    H155619   1.575   2.669   2.968  0.5179  1.3899 -0.0464
11376TIP3    H255620   1.534   2.794   2.892 -0.8863  0.6195 -0.5757
11377TIP3   OH255621   5.395   4.244   0.731  0.5070 -0.6537 -1.0607
11377TIP3    H155622   5.422   4.218   0.819 -2.7650  1.1999  0.5677
11377TIP3    H255623   5.349   4.168   0.696 -0.7750 -0.3708 -0.0014
11378TIP3   OH255624   5.085   4.927  11.581  0.4095  0.0019  0.2522
11378TIP3    H155625   5.169   4.955  11.619  0.0274  2.6281 -0.7443
11378TIP3    H255626   5.027   4.919  11.656  0.9608  0.3436  0.7218
11379TIP3   OH255627   6.651   3.823  14.482  0.4241 -0.3892  0.0573
11379TIP3    H155628   6.740   3.807  14.451  0.8858 -0.0476  1.1629
11379TIP3    H255629   6.649   3.916  14.504 -0.3452 -0.2986 -0.3747
11380TIP3   OH255630   0.305   5.280   4.640 -0.2905 -0.1005 -0.1412
11380TIP3    H155631   0.210   5.267   4.645 -0.0252 -1.7414  1.7144
11380TIP3    H255632   0.320   5.318   4.554 -2.6897  0.7689 -0.2199
11381TIP3   OH255633   6.636   4.682   5.456 -0.2128  0.1331 -0.0615
11381TIP3    H155634   6.731   4.672   5.463 -0.4063 -1.9804 -0.0697
11381TIP3    H255635   6.604   4.594   5.434 -2.1881  0.7702  0.1275
11382TIP3   OH255636   0.048   5.229  12.488  0.1322 -0.4133 -0.3630
11382TIP3    H155637   0.026   5.245  12.397  1.9926 -1.7683 -1.0931
11382TIP3    H255638   0.027   5.310  12.533 -0.4467  0.3932 -2.0705
11383TIP3   OH255639   1.042   1.471  15.114  0.0568  0.4017  1.2078
11383TIP3    H155640   1.039   1.452  15.208  0.5669  0.1411  1.1721
11383TIP3    H255641   1.105   1.542  15.107 -2.3074  2.5874  1.4086
11384TIP3   OH255642   4.393   5.291   1.916 -0.6515  0.4364  0.3449
11384TIP3    H155643   4.336   5.222   1.949  0.0950 -0.4383 -0.1514
11384TIP3    H255644   4.463   5.244   1.871  0.6320  1.4686  1.2197
11385TIP3   OH255645   6.565   4.333  13.736 -0.3531 -0.2161  0.2927
11385TIP3    H155646   6.503   4.403  13.717 -0.4167 -0.4472 -0.4055
11385TIP3    H255647   6.511   4.254  13.742 -0.1565 -0.3836 -0.0929
11386TIP3   OH255648   2.707   4.565  12.042 -0.5559  0.0596  0.2836
11386TIP3    H155649   2.642   4.539  12.108 -0.7352 -0.5469 -0.1236
11386TIP3    H255650   2.685   4.656  12.021 -2.2155 -0.5959 -0.9338
11387TIP3   OH255651   0.364   2.389   3.634  0.1051  0.3879  0.1046
11387TIP3    H155652   0.271   2.371   3.622  0.6512 -1.4199 -1.6031
11387TIP3    H255653   0.409   2.312   3.598  2.2399  0.8553  1.6755
11388TIP3   OH255654   5.897   4.814   5.307  0.2224  0.1268 -0.3535
11388TIP3    H155655   5.931   4.746   5.366 -0.1785  0.1191 -0.1288
11388TIP3    H255656   5.884   4.770   5.224  0.0742 -0.0450 -0.2391
11389TIP3   OH255657   3.014   3.826  14.566  0.0198 -0.1423 -0.4328
11389TIP3    H155658   3.018   3.762  14.637  1.0979  0.9579  0.5166
11389TIP3    H255659   3.076   3.793  14.501  0.8179  0.0997  0.1969
11390TIP3   OH255660   2.586   6.714  11.660  1.1572 -0.2891 -0.1322
11390TIP3    H155661   2.577   6.627  11.698 -1.8505 -2.3809 -5.1823
11390TIP3    H255662   2.638   6.701  11.581 -2.5045  1.6878 -3.0277
11391TIP3   OH255663   6.648   6.489  15.744 -0.0730  0.3391  0.8653
11391TIP3    H155664   6.642   6.552  15.816 -1.5668  0.6452  0.4902
11391TIP3    H255665   6.720   6.522  15.690  0.2318  0.8049  1.5385
11392TIP3   OH255666   2.604   6.806   0.189 -0.2814 -0.4417 -0.5722
11392TIP3    H155667   2.678   6.837   0.137 -1.1383 -0.5070 -1.8393
11392TIP3    H255668   2.543   6.769   0.125 -1.0415 -1.1460  0.5417
11393TIP3   OH255669   4.543   6.794   1.534 -0.5101  0.1603  0.4670
11393TIP3    H155670   4.451   6.789   1.510 -1.0476  1.2396  2.2240
11393TIP3    H255671   4.555   6.725   1.599 -0.3324  0.7362  1.0431
11394TIP3   OH255672   3.389   0.355  11.773 -0.2233  0.9674 -0.5989
11394TIP3    H155673   3.434   0.364  11.857  0.6734 -1.0501 -0.8380
11394TIP3    H255674   3.296   0.347  11.797  0.2755 -2.5190  0.4576
11395TIP3   OH255675   3.901   5.978   3.175  0.0407  0.7752 -0.0289
11395TIP3    H155676   3.811   6.006   3.192  0.7129  2.3868  0.9797
11395TIP3    H255677   3.892   5.904   3.114 -1.9442  0.9963 -0.0367
11396TIP3   OH255678   1.590   6.350   0.825 -0.1768 -0.3902 -0.0251
11396TIP3    H155679   1.560   6.317   0.741  0.5690  2.0206 -1.2726
11396TIP3    H255680   1.610   6.442   0.810 -1.2311  0.4430  3.0930
11397TIP3   OH255681   1.014   5.398  14.114 -0.3493  0.2565  0.0647
11397TIP3    H155682   0.963   5.335  14.063 -0.9599 -0.1333  1.1324
11397TIP3    H255683   0.993   5.483  14.075 -1.5867  0.0672  0.2883
11398TIP3   OH255684   2.843   3.189   3.127 -0.0360 -0.4320 -0.3088
11398TIP3    H155685   2.770   3.139   3.090 -0.0343 -1.2096  0.7308
11398TIP3    H255686   2.837   3.275   3.085 -1.7745 -0.3600  0.0534
11399TIP3   OH255687   0.149   3.881  15.053 -0.6013 -0.4250 -0.1215
11399TIP3    H155688   0.205   3.813  15.089  2.9946  1.5720 -1.7293
11399TIP3    H255689   0.097   3.835  14.986 -0.7033 -2.2509  1.1794
11400TIP3   OH255690   2.074   4.926  15.776 -0.3114  0.2057 -0.3106
11400TIP3    H155691   2.142   4.988  15.800 -0.5253 -0.0446  1.0033
11400TIP3    H255692   2.080   4.919  15.681  1.6317  0.0166 -0.1910
11401TIP3   OH255693   6.700   1.100   5.241  0.4940 -0.3333 -0.0795
11401TIP3    H155694   6.771   1.163   5.232 -0.1361  0.5815  1.1607
11401TIP3    H255695   6.620   1.153   5.238 -0.1264 -1.2797 -0.8302
11402TIP3   OH255696   0.102   2.000  13.903  0.0167  0.3641  0.4029
11402TIP3    H155697   0.166   1.944  13.860  0.4467  0.7495  0.5323
11402TIP3    H255698   0.035   1.940  13.935  0.6782 -0.1221  0.8907
11403TIP3   OH255699   0.332   5.130   5.686 -0.1255 -0.0710 -0.4220
11403TIP3    H155700   0.295   5.172   5.763  1.4470 -0.6794  0.6872
11403TIP3    H255701   0.393   5.195   5.650  0.0005 -0.2274 -0.4935
11404TIP3   OH255702   2.044   1.510   5.085 -0.0779  0.8705  0.7969
11404TIP3    H155703   2.055   1.602   5.064  1.0066  0.9046  1.4932
11404TIP3    H255704   2.126   1.484   5.126  0.4806 -0.9633 -1.3559
11405TIP3   OH255705   1.897   3.320  16.675 -0.1336  0.2276  0.1690
11405TIP3    H155706   1.897   3.232  16.637  0.5482  1.3473 -2.5357
11405TIP3    H255707   1.962   3.315  16.745 -0.4208 -1.5430  0.3444
11406TIP3   OH255708   5.703   2.951   2.789  0.6466  0.3580  0.4480
11406TIP3    H155709   5.775   2.932   2.730  1.9808  1.2455  1.7406
11406TIP3    H255710   5.714   2.889   2.861 -1.2249 -1.0125 -0.4220
11407TIP3   OH255711   0.805   6.754  16.368 -0.9629 -0.4735  0.1086
11407TIP3    H155712   0.852   6.738  16.287 -1.4168  1.2050 -0.5078
11407TIP3    H255713   0.750   6.676  16.380  1.5817 -2.2402  0.6188
11408TIP3   OH255714   3.599   5.498  12.116 -0.0981  0.4438  0.1511
11408TIP3    H155715   3.543   5.568  12.084  0.2377  0.4959 -0.3179
11408TIP3    H255716   3.562   5.475  12.201 -0.3605  1.0121  0.1915
11409TIP3   OH255717   5.990   6.300  14.950  0.1935  0.0351 -0.0521
11409TIP3    H155718   5.944   6.383  14.962 -0.0136  0.1471 -1.4890
11409TIP3    H255719   5.980   6.254  15.033 -0.9496  0.8342  0.2623
11410TIP3   OH255720   5.119   2.374  14.025 -0.5176 -0.6058  0.3385
11410TIP3    H155721   5.136   2.423  14.106  0.5042 -1.4317  0.6305
11410TIP3    H255722   5.104   2.284  14.054  0.8790 -1.1061 -0.4877
11411TIP3   OH255723   6.004   4.183  13.953  0.6411  0.0676 -0.4389
11411TIP3    H155724   5.995   4.168  14.047  3.3722  0.4031 -0.0997
11411TIP3    H255725   5.929   4.137  13.914 -0.4854 -0.1129  1.8712
11412TIP3   OH255726   3.394   2.865  11.554 -0.1927 -0.3203 -0.0347
11412TIP3    H155727   3.417   2.953  11.523  0.5870 -0.7812 -0.7627
11412TIP3    H255728   3.318   2.841  11.502  0.8075 -0.8865 -1.2407
11413TIP3   OH255729   3.224   3.743  13.546 -0.3971 -0.2259  0.4552
11413TIP3    H155730   3.156   3.677  13.540 -1.0067  0.3070  1.4243
11413TIP3    H255731   3.211   3.799  13.469  0.1256 -1.2197 -0.3686
11414TIP3   OH255732   4.656   3.134   1.569  0.3468 -0.4175  0.2383
11414TIP3    H155733   4.564   3.115   1.550 -0.1813  1.9327  0.2904
11414TIP3    H255734   4.654   3.183   1.651  1.6249 -0.0620  0.0673
11415TIP3   OH255735   3.679   5.020  13.848 -0.8102  0.0469 -0.2446
11415TIP3    H155736   3.586   5.028  13.872 -1.0323 -0.2363 -0.9969
11415TIP3    H255737   3.682   4.946  13.788  0.1412 -0.9263  0.9921
11416TIP3   OH255738   0.627   4.966   3.167  0.2914 -0.2723  0.9066
11416TIP3    H155739   0.534   4.967   3.189  0.2413  0.8877  0.6695
11416TIP3    H255740   0.661   5.048   3.202  0.4213  1.1750 -2.4291
11417TIP3   OH255741   4.579   3.315  16.360  0.3176  0.3151  0.0007
11417TIP3    H155742   4.592   3.251  16.290 -0.9053 -1.2905  1.1833
11417TIP3    H255743   4.626   3.278  16.435 -1.1691  0.3184  0.9561
11418TIP3   OH255744   0.893   5.134   1.429  0.1104 -0.5414  0.0361
11418TIP3    H155745   0.915   5.093   1.512  0.2959  0.0625  0.2847
11418TIP3    H255746   0.888   5.061   1.367  0.2611 -0.9574  0.5114
11419TIP3   OH255747   6.023   3.121  16.425  0.3724 -0.9745  1.1350
11419TIP3    H155748   6.012   3.201  16.477 -2.5056  0.6013 -1.6681
11419TIP3    H255749   6.006   3.050  16.486 -1.4213  0.7296  2.6971
11420TIP3   OH255750   2.086   2.401  15.510  0.1850  0.2191  0.3942
11420TIP3    H155751   2.072   2.317  15.466 -0.7094  0.0614  0.9615
11420TIP3    H255752   2.155   2.444  15.459  1.3169 -1.2470  0.6378
11421TIP3   OH255753   4.492   2.737  16.901  0.8101  0.3030 -0.2186
11421TIP3    H155754   4.560   2.786  16.947  0.3661  0.4303  0.3079
11421TIP3    H255755   4.411   2.762  16.945  0.3641  0.5279 -1.1547
11422TIP3   OH255756   5.349   1.151   2.041 -0.1346  0.0420  0.1590
11422TIP3    H155757   5.434   1.111   2.024 -0.6937 -0.8911 -0.4822
11422TIP3    H255758   5.288   1.077   2.046 -0.5249  0.5008  3.1378
11423TIP3   OH255759   3.931   1.903  13.814  0.4582 -0.1859  0.0678
11423TIP3    H155760   3.840   1.901  13.785  0.5504  1.8675 -0.4239
11423TIP3    H255761   3.935   1.976  13.875  1.7059 -0.4601  0.3154
11424TIP3   OH255762   6.673   3.703  13.091 -0.0989  0.3479  0.5162
11424TIP3    H155763   6.627   3.671  13.013  1.5398  1.6832 -1.0650
11424TIP3    H255764   6.721   3.627  13.123 -1.0154 -0.2910  0.3959
11425TIP3   OH255765   3.622   2.623   0.169 -0.0247  0.9393 -0.3466
11425TIP3    H155766   3.583   2.535   0.169  1.0636  0.4418 -0.8172
11425TIP3    H255767   3.634   2.643   0.076  2.6808  0.2363 -0.1802
11426TIP3   OH255768   1.413   0.001  14.275 -0.5065  0.3121 -0.3837
11426TIP3    H155769   1.379  -0.074  14.323  1.0132  1.1924  2.1724
11426TIP3    H255770   1.489  -0.034  14.228  0.3446  0.2611  0.9910
11427TIP3   OH255771   2.687   0.240  16.607 -0.4504 -0.5724 -0.2588
11427TIP3    H155772   2.674   0.335  16.620  0.0677 -0.3886 -1.0938
11427TIP3    H255773   2.603   0.209  16.573 -0.2178 -0.1901 -1.1921
11428TIP3   OH255774   4.519   1.154   5.777 -0.1494  0.3185 -0.5009
11428TIP3    H155775   4.565   1.158   5.693  0.0086  0.0266 -0.4279
11428TIP3    H255776   4.581   1.188   5.841  0.8620 -2.3318 -0.0200
11429TIP3   OH255777   3.921   1.340  12.385 -0.0022 -0.0326  0.0522
11429TIP3    H155778   3.987   1.394  12.430  0.2547 -0.9105  0.7609
11429TIP3    H255779   3.847   1.398  12.372  0.8792  0.9528 -0.6783
11430TIP3   OH255780   3.857   1.158  13.270 -0.1206  0.1283  0.7786
11430TIP3    H155781   3.798   1.110  13.211  0.7418  1.9808 -1.6858
11430TIP3    H255782   3.800   1.191  13.339 -1.4953 -0.4933 -0.0227
11431TIP3   OH255783   3.895   4.334   4.352 -0.4249  0.5494 -0.3279
11431TIP3    H155784   3.898   4.412   4.407 -0.8718  0.7302 -0.5521
11431TIP3    H255785   3.812   4.342   4.305 -0.4769 -0.0680 -0.3406
11432TIP3   OH255786   2.371   3.456   2.384 -0.3764  0.5771 -0.0970
11432TIP3    H155787   2.340   3.543   2.357 -1.4072  0.6569  1.3168
11432TIP3    H255788   2.291   3.409   2.409  0.3975 -0.0797  1.1583
11433TIP3   OH255789   6.117   6.492   0.197  0.1906 -0.3117 -0.1441
11433TIP3    H155790   6.063   6.432   0.146  0.1417 -0.1650 -0.2655
11433TIP3    H255791   6.205   6.480   0.162  0.0942  0.0474 -0.4987
11434TIP3   OH255792   6.416   0.810  13.609  0.3545 -0.0408 -0.0768
11434TIP3    H155793   6.348   0.745  13.590 -0.1753  0.3412  0.5086
11434TIP3    H255794   6.396   0.841  13.697  0.1962  1.4308 -0.6314
11435TIP3   OH255795   1.504   1.049   2.962  0.0627 -0.0462 -0.0979
11435TIP3    H155796   1.427   0.993   2.952  1.5058 -2.3163  1.1933
11435TIP3    H255797   1.558   1.029   2.885 -0.9066  2.0362 -1.3526
11436TIP3   OH255798   3.481   3.240  16.188  0.4614  0.1676 -0.0590
11436TIP3    H155799   3.553   3.295  16.156 -0.6666  1.9049  0.3015
11436TIP3    H255800   3.501   3.225  16.280  0.2954  0.7612  0.0749
11437TIP3   OH255801   6.798   2.192   4.933 -0.0668 -0.6404 -0.1811
11437TIP3    H155802   6.809   2.192   4.838  1.0938 -1.5328 -0.0489
11437TIP3    H255803   6.790   2.285   4.955 -1.4332 -0.4823 -1.2625
11438TIP3   OH255804   1.251   4.364   2.731 -0.3085 -0.3276  0.2859
11438TIP3    H155805   1.323   4.408   2.685 -0.6352 -0.8487 -0.7307
11438TIP3    H255806   1.258   4.395   2.822  0.6219  0.3497 -0.0120
11439TIP3   OH255807   0.070   5.040   4.948  0.1916  0.2265  0.2486
11439TIP3    H155808   0.016   5.087   4.885 -0.0217 -0.4664 -0.0928
11439TIP3    H255809   0.157   5.078   4.939 -0.1839  1.1830  0.6319
11440TIP3   OH255810   4.636   6.204   3.057  0.3508 -0.1015  0.2275
11440TIP3    H155811   4.697   6.276   3.040 -0.5363  0.4978 -0.5061
11440TIP3    H255812   4.550   6.247   3.062 -0.5187 -1.3870 -2.7984
11441TIP3   OH255813   0.729   0.108   0.749  0.0319 -0.1445 -0.5991
11441TIP3    H155814   0.693   0.193   0.772 -1.1684 -0.2655 -1.9215
11441TIP3    H255815   0.773   0.122   0.665  0.8144 -0.5775 -0.2672
11442TIP3   OH255816   2.934   6.814   0.858 -0.0998 -0.1270 -0.8324
11442TIP3    H155817   2.848   6.824   0.898  1.1417 -1.0799  2.2924
11442TIP3    H255818   2.942   6.888   0.798 -2.7568  0.3994 -0.5898
11443TIP3   OH255819   3.701   6.405   0.433  0.4552 -0.0457 -0.6239
11443TIP3    H155820   3.606   6.408   0.444  0.5844  0.3596  0.4271
11443TIP3    H255821   3.723   6.488   0.391  0.5573  0.7275  0.9171
11444TIP3   OH255822   4.787   3.921   5.493  0.1453 -0.0859 -0.2729
11444TIP3    H155823   4.725   3.957   5.429 -0.1245 -0.5463 -0.2739
11444TIP3    H255824   4.780   3.826   5.481  1.7578 -0.1103 -1.1207
11445TIP3   OH255825   0.533   6.620  14.151 -0.2086 -0.3554  0.0811
11445TIP3    H155826   0.598   6.602  14.218 -0.1615 -0.7147 -0.0601
11445TIP3    H255827   0.524   6.537  14.103 -0.6918 -0.2789  0.0375
11446TIP3   OH255828   3.935   5.919  12.871 -0.0821  0.2799 -0.6161
11446TIP3    H155829   3.892   5.880  12.795  0.5154 -0.1868 -0.7265
11446TIP3    H255830   3.884   5.888  12.946 -0.1325 -0.0117 -0.7674
11447TIP3   OH255831   2.358   1.891   5.225 -0.2279  0.2049 -0.2191
11447TIP3    H155832   2.420   1.848   5.285 -0.1956 -1.0001 -1.0987
11447TIP3    H255833   2.339   1.975   5.267  1.7772  0.4859  0.2104
11448TIP3   OH255834   4.306   0.773   3.121  0.3458 -0.2849  0.0205
11448TIP3    H155835   4.278   0.792   3.210 -0.3070  2.8530 -0.7736
11448TIP3    H255836   4.401   0.788   3.122  0.2420  0.4134  0.0668
11449TIP3   OH255837   4.919   4.163  16.988 -0.1573 -0.5400 -0.2992
11449TIP3    H155838   4.995   4.160  17.045  0.2739 -0.1802 -0.8576
11449TIP3    H255839   4.858   4.223  17.032 -0.4748 -1.4774  0.5734
11450TIP3   OH255840   1.767   0.333   1.241  0.2143 -0.1253  0.5630
11450TIP3    H155841   1.786   0.327   1.147  0.2929  0.7172  0.5178
11450TIP3    H255842   1.848   0.304   1.283  1.5513  3.0693  0.3653
11451TIP3   OH255843   0.335   6.008  13.985  0.2522 -0.4600 -0.3086
11451TIP3    H155844   0.308   6.047  14.068  0.0093 -0.9005 -0.1796
11451TIP3    H255845   0.358   6.083  13.929 -2.0753 -0.0127 -0.7240
11452TIP3   OH255846   1.454   2.300  10.751  0.5272  0.8655  0.2212
11452TIP3    H155847   1.401   2.224  10.726  2.5362 -1.1557  1.9008
11452TIP3    H255848   1.540   2.282  10.714  1.1548  2.1421  1.0325
11453TIP3   OH255849   0.122   2.862   3.511 -0.1566 -0.5621 -0.3235
11453TIP3    H155850   0.080   2.880   3.596 -1.2363 -0.4404 -0.8801
11453TIP3    H255851   0.118   2.767   3.502 -0.7378 -0.5136 -0.5901
11454TIP3   OH255852   6.573   4.781   4.346  0.1165  0.1753 -0.0235
11454TIP3    H155853   6.513   4.821   4.282  2.4729  0.5600 -2.0672
11454TIP3    H255854   6.644   4.845   4.354 -0.3987  0.3696  3.4240
11455TIP3   OH255855   2.061   3.865   5.219 -0.0416  0.1055  0.1287
11455TIP3    H155856   2.136   3.924   5.235  0.6331 -0.6226 -0.3392
11455TIP3    H255857   2.085   3.818   5.139 -0.9741 -0.1882  0.0265
11456TIP3   OH255858   4.840   2.592   4.078 -0.1400 -0.8869  0.4288
11456TIP3    H155859   4.893   2.525   4.122  0.1475 -0.9113  0.0476
11456TIP3    H255860   4.867   2.674   4.120 -2.9194 -1.3527  3.2572
11457TIP3   OH255861   3.090   5.836  16.243  0.3841 -0.1000 -0.2333
11457TIP3    H155862   3.172   5.790  16.224  1.4076  0.9298  1.5053
11457TIP3    H255863   3.102   5.869  16.332 -1.1934  1.6699 -0.6567
11458TIP3   OH255864   3.606   3.361   0.006 -0.2339  0.1887  0.1087
11458TIP3    H155865   3.608   3.457   0.002 -0.7587  0.1361 -1.3661
11458TIP3    H255866   3.518   3.340   0.038 -0.3105  0.1678 -0.1225
11459TIP3   OH255867   0.677   6.418  15.595 -0.2336 -0.8601 -0.0663
11459TIP3    H155868   0.652   6.497  15.643 -0.5083 -1.7442  1.2600
11459TIP3    H255869   0.662   6.440  15.503  1.1070  1.1432  0.1819
11460TIP3   OH255870   3.483   4.686  11.846 -0.0496 -0.1440 -0.3140
11460TIP3    H155871   3.528   4.694  11.762 -0.1775  0.2950 -0.3412
11460TIP3    H255872   3.536   4.738  11.906 -0.5901  0.4872 -0.3774
11461TIP3   OH255873   0.184   2.586   3.490  0.5700 -0.2192 -0.5370
11461TIP3    H155874   0.269   2.541   3.495 -0.3911 -2.2579 -2.0515
11461TIP3    H255875   0.128   2.539   3.551 -0.4800 -1.1875 -2.2225
11462TIP3   OH255876   4.958   2.733  16.077 -0.0558 -0.0765 -0.0630
11462TIP3    H155877   4.910   2.774  16.005  0.6311  0.5557 -0.1624
11462TIP3    H255878   4.985   2.648  16.042 -0.0866  0.0511 -0.4007
11463TIP3   OH255879   6.738   5.179  11.480 -0.2143  0.2751 -0.0228
11463TIP3    H155880   6.681   5.252  11.456 -0.2318  0.5024  0.7075
11463TIP3    H255881   6.704   5.105  11.429 -1.4587  0.2932  0.7427
11464TIP3   OH255882   2.714   6.348  12.313  0.1877  0.1177  0.1138
11464TIP3    H155883   2.695   6.442  12.317  0.7464  0.2116  0.6368
11464TIP3    H255884   2.713   6.327  12.220 -2.2942  0.1622  0.1029
11465TIP3   OH255885   3.736   0.447   5.473 -0.1328  0.7136  0.4686
11465TIP3    H155886   3.674   0.375   5.467  0.0104  0.6891 -0.8114
11465TIP3    H255887   3.696   0.508   5.535 -0.2567 -0.4565  1.5435
11466TIP3   OH255888   4.539   1.860   5.839  0.7893 -0.1512 -0.3452
11466TIP3    H155889   4.611   1.887   5.783  0.8009  0.5015 -0.0205
11466TIP3    H255890   4.576   1.856   5.927  0.5025 -0.1130 -0.2210
11467TIP3   OH255891   3.271   0.820   1.265  0.2902  0.1853 -0.0186
11467TIP3    H155892   3.352   0.813   1.316  0.0828 -0.4670  0.2341
11467TIP3    H255893   3.214   0.752   1.302 -0.8718  1.5346  0.7239
11468TIP3   OH255894   6.807   1.869  12.104  0.1791  0.0622 -0.0542
11468TIP3    H155895   6.721   1.864  12.062  0.7976 -2.2561 -1.1493
11468TIP3    H255896   6.788   1.881  12.197 -1.2770  1.5873 -0.5240
11469TIP3   OH255897   6.231   5.775  15.007  0.4806  0.5444  0.2615
11469TIP3    H155898   6.280   5.854  14.986  3.3803 -1.0864  0.5920
11469TIP3    H255899   6.288   5.703  14.978 -2.2066 -1.4215 -0.3139
11470TIP3   OH255900   4.048   3.039   3.011  0.2989 -0.4736 -0.1015
11470TIP3    H155901   4.117   2.975   3.027  1.8592  1.0503 -0.6083
11470TIP3    H255902   4.092   3.124   3.016 -1.3490  0.4896 -1.3188
11471TIP3   OH255903   5.738   2.255   4.519  0.3787 -0.7653  0.1245
11471TIP3    H155904   5.676   2.307   4.571  0.0589 -2.2674  1.2863
11471TIP3    H255905   5.811   2.314   4.503 -1.9313  1.5640 -2.5369
11472TIP3   OH255906   2.597   0.564   2.253 -0.0241 -0.3563 -0.2072
11472TIP3    H155907   2.536   0.557   2.327  0.1251 -1.7692 -0.1965
11472TIP3    H255908   2.541   0.590   2.180 -0.2796  0.4297  0.2522
11473TIP3   OH255909   3.918   6.718  13.761  0.0442 -0.2472  0.2534
11473TIP3    H155910   3.873   6.737  13.678 -0.1803  0.3479  0.5076
11473TIP3    H255911   3.982   6.651  13.738 -0.9190 -1.0586 -0.1407
11474TIP3   OH255912   3.217   6.595   4.351  0.0826 -0.8460 -0.3960
11474TIP3    H155913   3.240   6.595   4.444 -1.6463 -0.4750  0.0406
11474TIP3    H255914   3.278   6.533   4.312 -0.5516 -2.6112  1.3436
11475TIP3   OH255915   0.746   5.280  14.890  0.1893  0.7935 -0.1016
11475TIP3    H155916   0.743   5.217  14.818 -2.5960  0.4978  0.2382
11475TIP3    H255917   0.758   5.226  14.968 -0.6515  0.7899  0.0308
11476TIP3   OH255918   5.538   0.887   3.149  0.6136  0.1307 -0.0942
11476TIP3    H155919   5.461   0.943   3.160  0.2670 -0.0137 -1.7161
11476TIP3    H255920   5.587   0.898   3.231 -1.1535  0.1774  0.9827
11477TIP3   OH255921   4.489   1.115  16.880  0.5704  0.2039 -0.2139
11477TIP3    H155922   4.536   1.134  16.961  1.5038 -0.1574 -0.6658
11477TIP3    H255923   4.458   1.025  16.891  1.4632 -0.1508 -0.6307
11478TIP3   OH255924   6.054   5.967   4.962 -0.1436  0.1328 -0.0123
11478TIP3    H155925   6.054   5.940   4.870  1.2822 -0.0152  0.0150
11478TIP3    H255926   5.976   5.926   4.999 -1.1532  0.8014 -1.3238
11479TIP3   OH255927   5.480   1.053  11.609  0.0671  0.3550  0.0679
11479TIP3    H155928   5.525   1.116  11.555  0.0177 -1.1598 -1.7901
11479TIP3    H255929   5.406   1.023  11.555 -0.5633 -0.4447  1.3412
11480TIP3   OH255930   4.613   1.003   4.862 -0.0913  0.1375 -0.2283
11480TIP3    H155931   4.695   1.052   4.864 -0.4827  0.8871 -1.9073
11480TIP3    H255932   4.554   1.056   4.808 -1.5966 -0.5330  0.7058
11481TIP3   OH255933   1.836   5.391  11.143 -0.2448 -0.0590  0.3549
11481TIP3    H155934   1.819   5.477  11.181  0.1036 -0.2950  1.0542
11481TIP3    H255935   1.751   5.347  11.145 -0.6106  0.5657 -0.7919
11482TIP3   OH255936   6.228   4.126   4.379 -0.2643 -0.6844 -0.1231
11482TIP3    H155937   6.300   4.070   4.352  0.5520 -1.4901  3.4555
11482TIP3    H255938   6.151   4.069   4.378  0.3069 -1.5473  2.0979
11483TIP3   OH255939   1.560   6.214   3.598  0.3032  0.0908  0.0160
11483TIP3    H155940   1.607   6.151   3.543  0.0851  0.6110 -0.7765
11483TIP3    H255941   1.519   6.160   3.666  1.7632 -0.4055  0.5221
11484TIP3   OH255942   0.339   1.260  12.235  0.1528 -0.2619  0.4635
11484TIP3    H155943   0.382   1.289  12.155  0.8758  0.8034  1.2210
11484TIP3    H255944   0.268   1.324  12.249  0.1743 -0.3079  0.7945
11485TIP3   OH255945   5.791   1.988   0.370  0.3918  0.1602  0.3141
11485TIP3    H155946   5.826   2.064   0.323  2.2343 -2.2335 -2.3290
11485TIP3    H255947   5.705   1.974   0.330 -0.1680  1.1055  1.1507
11486TIP3   OH255948   0.144   1.625  14.479  0.3802 -0.1566 -0.4226
11486TIP3    H155949   0.159   1.554  14.417  1.3900  0.6629 -1.1362
11486TIP3    H255950   0.105   1.583  14.555 -0.4036 -1.2499 -1.4145
11487TIP3   OH255951   6.375   3.594   6.630  0.7667  1.0845  0.2169
11487TIP3    H155952   6.362   3.600   6.725 -0.2649  0.4402  0.1225
11487TIP3    H255953   6.290   3.568   6.596  2.1241 -2.7789 -0.4556
11488TIP3   OH255954   4.854   4.783   0.862  0.5174 -0.1560  0.1011
11488TIP3    H155955   4.784   4.845   0.880  1.6222 -0.0382  4.6703
11488TIP3    H255956   4.810   4.699   0.851 -0.5733  0.4478 -0.1797
11489TIP3   OH255957   0.110   6.736  15.019  0.1908  0.0065 -0.0435
11489TIP3    H155958   0.124   6.815  15.072 -1.2274  0.8833 -0.9204
11489TIP3    H255959   0.178   6.676  15.046 -0.1088  0.6859  2.3054
11490TIP3   OH255960   6.420   6.376  12.075  0.8065 -0.4262 -0.3283
11490TIP3    H155961   6.359   6.323  12.025  2.3049 -1.6723 -0.8688
11490TIP3    H255962   6.458   6.315  12.139  0.1922  0.7443  1.1865
11491TIP3   OH255963   3.930   0.544  12.860  0.7353 -0.3276 -0.8332
11491TIP3    H155964   3.898   0.456  12.839 -2.6396  1.4961 -3.7415
11491TIP3    H255965   3.858   0.585  12.907  2.3313  0.8945  0.5887
11492TIP3   OH255966   2.515   1.208  10.580  0.1390 -0.4656 -0.4959
11492TIP3    H155967   2.593   1.170  10.541  0.2873 -0.2770 -0.3815
11492TIP3    H255968   2.546   1.285  10.627 -0.2805  0.3176 -1.4655
11493TIP3   OH255969   5.958   0.202   4.879  0.5450  0.5609 -0.4696
11493TIP3    H155970   5.924   0.136   4.940  1.0037  0.1751 -0.6359
11493TIP3    H255971   5.929   0.285   4.916  1.5627  0.3771  0.7376
11494TIP3   OH255972   1.641   6.056  13.795  0.4727 -0.2814  0.2915
11494TIP3    H155973   1.716   6.033  13.851  1.0609 -1.1880 -0.8447
11494TIP3    H255974   1.650   5.999  13.719 -1.1072 -0.0429 -0.0868
11495TIP3   OH255975   0.942   4.256  12.299  0.0460  0.3661  0.4319
11495TIP3    H155976   0.973   4.317  12.366  1.1974  0.1525  0.1016
11495TIP3    H255977   0.848   4.273  12.293 -0.0215  0.5520  1.9246
11496TIP3   OH255978   4.940   4.211  10.873 -0.2377 -0.1230 -0.1617
11496TIP3    H155979   5.004   4.279  10.893  0.2093 -0.5065 -0.2735
11496TIP3    H255980   4.976   4.132  10.914  0.1845 -0.7009 -1.6391
11497TIP3   OH255981   0.054   3.533  13.122 -0.0335 -0.6955  0.6162
11497TIP3    H155982   0.136   3.517  13.168 -0.1347  1.0804  1.4644
11497TIP3    H255983   0.076   3.529  13.030  1.1410  0.3397  0.8413
11498TIP3   OH255984   2.132   4.258   1.152 -0.3412  0.0503 -0.1516
11498TIP3    H155985   2.142   4.289   1.063  1.1522 -0.5988 -0.2214
11498TIP3    H255986   2.217   4.221   1.175 -1.2137 -1.3988  0.9064
11499TIP3   OH255987   1.175   2.959  15.003  0.4840 -0.2492 -0.1047
11499TIP3    H155988   1.080   2.973  15.006  0.5168 -0.0737  0.1923
11499TIP3    H255989   1.207   3.025  14.942  0.2129 -1.4743 -1.5863
11500TIP3   OH255990   1.121   4.159   5.316  0.0147  0.2606 -0.2677
11500TIP3    H155991   1.029   4.173   5.336 -0.1193  0.5200 -1.0441
11500TIP3    H255992   1.131   4.063   5.315 -0.2222  0.2342 -0.0880
11501TIP3   OH255993   0.441   5.773   1.702 -0.1239  0.4453 -0.1826
11501TIP3    H155994   0.465   5.699   1.646  1.2561  0.5860  0.2282
11501TIP3    H255995   0.524   5.807   1.735 -0.6459  2.9208 -1.2978
11502TIP3   OH255996   3.258   0.826   3.449  0.0176 -0.8069 -0.8834
11502TIP3    H155997   3.313   0.748   3.457  0.4443 -0.4277 -0.0167
11502TIP3    H255998   3.214   0.832   3.534 -1.0998 -0.9105 -1.4514
11503TIP3   OH255999   6.222   5.883  14.233  0.5342 -0.1151  0.5579
11503TIP3    H156000   6.285   5.849  14.171  1.0424  1.0718  0.4089
11503TIP3    H256001   6.142   5.833  14.217  0.3195  0.9655 -1.8206
11504TIP3   OH256002   3.305   5.726   2.594  0.3990 -0.1379 -0.0442
11504TIP3    H156003   3.288   5.796   2.656  0.6015  0.4335 -0.6171
11504TIP3    H256004   3.395   5.743   2.564  0.8138 -1.2176  0.5477
11505TIP3   OH256005   5.255   1.689  13.684  0.4725  0.1978  0.2820
11505TIP3    H156006   5.208   1.717  13.762  2.7643  1.0671  1.3675
11505TIP3    H256007   5.344   1.720  13.696  1.4953 -1.8553 -1.5190
11506TIP3   OH256008   3.177   6.749  11.542 -0.3063  0.4020  0.6450
11506TIP3    H156009   3.197   6.838  11.571 -0.6458  0.3882  0.9128
11506TIP3    H256010   3.086   6.753  11.512 -0.0039  0.3875 -0.2975
11507TIP3   OH256011   3.252   1.172  11.029  0.4091 -0.1120 -0.2260
11507TIP3    H156012   3.165   1.192  10.993  1.0660  0.4378 -1.5409
11507TIP3    H256013   3.276   1.250  11.078  1.6963  1.2209 -2.8882
11508TIP3   OH256014   0.385   3.856   4.862 -0.0716  0.0721 -0.1509
11508TIP3    H156015   0.396   3.910   4.783  2.4689 -0.3297 -0.0822
11508TIP3    H256016   0.302   3.809   4.847 -0.2282  0.9099 -2.0291
11509TIP3   OH256017   1.054   2.685   3.206  0.0936  0.4347 -0.0450
11509TIP3    H156018   1.000   2.615   3.169  3.0579 -2.4209  0.7965
11509TIP3    H256019   1.123   2.700   3.141  0.7619  0.9906  0.7762
11510TIP3   OH256020   4.135   2.980  14.074 -0.0061  0.0696  0.2587
11510TIP3    H156021   4.052   2.937  14.053  0.3999 -0.8380  0.4672
11510TIP3    H256022   4.177   2.921  14.137  0.4589  0.8966  0.7298
11511TIP3   OH256023   0.622   1.069  11.335 -0.1261  0.0169  0.2292
11511TIP3    H156024   0.639   1.027  11.251 -1.6567  1.4627 -0.8622
11511TIP3    H256025   0.655   1.158  11.324 -1.0203  0.4422  0.8826
11512TIP3   OH256026   5.315   2.790   0.419  0.5136 -0.2172  0.2289
11512TIP3    H156027   5.244   2.854   0.406 -0.1995 -1.6175 -3.1750
11512TIP3    H256028   5.270   2.707   0.435  1.4297 -0.6806  0.4327
11513TIP3   OH256029   5.586   6.024   4.787  0.2746 -0.5827 -0.0167
11513TIP3    H156030   5.675   6.027   4.752  0.4725 -0.1430  0.4966
11513TIP3    H256031   5.547   6.107   4.759  0.0206 -0.7924 -0.2725
11514TIP3   OH256032   3.181   6.552   5.103 -0.3261  0.5110  0.6976
11514TIP3    H156033   3.145   6.557   5.191 -1.7221  2.0466  0.0540
11514TIP3    H256034   3.215   6.640   5.085  0.5121  0.0480 -0.0620
11515TIP3   OH256035   3.703   5.803  14.242 -0.0306  0.0327  0.6090
11515TIP3    H156036   3.618   5.795  14.200 -1.3615 -0.1061  3.2341
11515TIP3    H256037   3.691   5.869  14.310  1.9542  0.0103  1.0338
11516TIP3   OH256038   0.004   1.962   6.816 -0.3823  0.1030 -0.0516
11516TIP3    H156039  -0.029   2.038   6.864 -0.7408  0.2200 -0.4774
11516TIP3    H256040   0.098   1.961   6.834 -0.7184 -0.6673  1.7837
11517TIP3   OH256041   0.685   1.755   4.322  0.5507  0.0229  0.0633
11517TIP3    H156042   0.732   1.726   4.400  0.5662  2.4467  1.0066
11517TIP3    H256043   0.619   1.817   4.355 -0.3615  0.0274 -1.6941
11518TIP3   OH256044   1.108   1.539  16.673  0.3606 -0.4710  0.1257
11518TIP3    H156045   1.199   1.539  16.645  0.3494 -0.1571  0.0875
11518TIP3    H256046   1.058   1.546  16.591  0.3185  0.0473  0.1940
11519TIP3   OH256047   5.648   1.734   0.157 -0.1314 -0.3537 -0.3778
11519TIP3    H156048   5.725   1.712   0.105  0.4282 -0.8182  0.6227
11519TIP3    H256049   5.603   1.651   0.171  0.0786 -0.3439  0.4174
11520TIP3   OH256050   0.202   1.996  13.117 -0.4150 -0.1583 -0.0376
11520TIP3    H156051   0.152   1.935  13.172 -1.4421 -1.7025 -2.6062
11520TIP3    H256052   0.135   2.043  13.067  0.5548  0.5403 -0.6933
11521TIP3   OH256053   5.868   6.461  16.472 -0.0053 -0.2476  0.1950
11521TIP3    H156054   5.923   6.400  16.521 -0.1430  0.0866  0.7694
11521TIP3    H256055   5.797   6.406  16.437  0.3210 -0.5596  0.0103
11522TIP3   OH256056   2.254   1.182   5.595 -0.0904 -0.4551 -0.0603
11522TIP3    H156057   2.300   1.263   5.615 -0.9057 -0.3607  1.5284
11522TIP3    H256058   2.257   1.175   5.499 -1.4191  2.2968 -0.3497
11523TIP3   OH256059   1.656   1.821  13.616  0.0495 -0.0928 -0.0778
11523TIP3    H156060   1.694   1.901  13.580 -0.3558  0.6232  1.0652
11523TIP3    H256061   1.571   1.812  13.571  0.6320 -0.5685 -1.1111
11524TIP3   OH256062   6.415   4.421  17.121  0.2836 -0.1362 -0.1142
11524TIP3    H156063   6.407   4.341  17.173  2.5529 -0.3428  0.0023
11524TIP3    H256064   6.404   4.492  17.184 -2.2893 -0.3263 -0.3120
11525TIP3   OH256065   4.833   4.861  12.124  0.6453 -0.2153 -0.1711
11525TIP3    H156066   4.828   4.779  12.173 -0.2743 -0.0068  0.0943
11525TIP3    H256067   4.916   4.900  12.150  0.3569 -0.3092  0.9041
11526TIP3   OH256068   1.487   2.454  16.380 -0.2737 -0.4112  0.5215
11526TIP3    H156069   1.473   2.520  16.312  1.1572  1.9166  2.4059
11526TIP3    H256070   1.403   2.449  16.425  0.0096  1.2433  1.2869
11527TIP3   OH256071   4.074   0.312  15.782  0.3288  0.4587 -0.2233
11527TIP3    H156072   4.016   0.388  15.779  0.5064  0.7318  2.2624
11527TIP3    H256073   4.140   0.330  15.716  0.3519  2.4767  0.3237
11528TIP3   OH256074   4.270   3.940   1.888  0.0104 -0.3455 -0.4930
11528TIP3    H156075   4.227   4.023   1.909  0.0954 -0.6601  0.9822
11528TIP3    H256076   4.362   3.962   1.879 -0.1941  0.0048 -1.7794
11529TIP3   OH256077   6.807   2.787  12.642 -0.2333 -0.8478  0.6880
11529TIP3    H156078   6.873   2.718  12.632  0.9841  0.4116 -0.2006
11529TIP3    H256079   6.752   2.778  12.564 -0.5133 -1.2701  0.9331
11530TIP3   OH256080   6.165   2.252  16.935  0.1794 -0.0140 -0.2186
11530TIP3    H156081   6.244   2.206  16.907 -0.1440  0.0075 -1.2007
11530TIP3    H256082   6.115   2.264  16.854 -0.1043  1.3503  0.1427
11531TIP3   OH256083   0.304   1.006  16.659 -0.0138  0.0943  0.3524
11531TIP3    H156084   0.259   1.019  16.575  0.2308  0.3634  0.2621
11531TIP3    H256085   0.383   0.957  16.637 -0.2780 -0.4099  0.5138
11532TIP3   OH256086   0.962   4.523  13.011 -0.3742 -0.1704  0.6571
11532TIP3    H156087   0.992   4.441  13.052  1.3826  0.1184 -0.0085
11532TIP3    H256088   0.930   4.497  12.925 -2.6694 -0.5590  1.5725
11533TIP3   OH256089   6.647   5.269   5.452 -0.6057  0.5164 -0.3524
11533TIP3    H156090   6.599   5.338   5.497 -1.1284  0.0674 -0.2136
11533TIP3    H256091   6.739   5.287   5.471 -0.7781  0.8037  0.2070
11534TIP3   OH256092   6.267   1.779  16.187  0.1844 -0.1603 -0.3023
11534TIP3    H156093   6.173   1.796  16.175 -0.0206 -1.0238  0.0594
11534TIP3    H256094   6.281   1.788  16.281  0.5135  0.1901 -0.3844
11535TIP3   OH256095   3.388   3.382  12.952  0.2645 -0.2223 -0.4485
11535TIP3    H156096   3.476   3.347  12.942  0.0906 -0.1379 -2.2958
11535TIP3    H256097   3.394   3.472  12.920 -0.6590 -0.4399 -1.2284
11536TIP3   OH256098   2.053   0.970  11.622 -0.2412  0.0030 -0.2160
11536TIP3    H156099   1.994   0.895  11.622 -0.2412  0.0030 -0.3257
11536TIP3    H256100   2.105   0.959  11.543 -1.2721  0.9321 -1.0285
11537TIP3   OH256101   1.197   5.185   6.161  0.1716  0.2222  0.2828
11537TIP3    H156102   1.189   5.103   6.209  1.0278 -0.1746 -0.2421
11537TIP3    H256103   1.117   5.189   6.108  0.9365 -1.1422 -1.0104
11538TIP3   OH256104   4.521   4.107  12.842 -0.1222  0.1206 -0.4853
11538TIP3    H156105   4.495   4.157  12.919 -0.2389 -0.3217 -0.2394
11538TIP3    H256106   4.438   4.080  12.803 -0.0447 -1.7836  0.6138
11539TIP3   OH256107   2.915   3.117   3.390 -0.4338 -0.3051  0.1111
11539TIP3    H156108   2.904   3.176   3.315  0.1154 -0.1411  0.1581
11539TIP3    H256109   2.849   3.146   3.453  1.1535  1.5628  0.9504
11540TIP3   OH256110   1.413   1.300  11.871  0.4599 -0.9779  0.3399
11540TIP3    H156111   1.368   1.218  11.892 -1.1754 -0.3930 -0.7233
11540TIP3    H256112   1.452   1.285  11.785 -0.9710 -0.2598 -0.4804
11541TIP3   OH256113   4.117   2.371   3.263  0.4358 -0.0735  0.5925
11541TIP3    H156114   4.168   2.290   3.270  0.4497 -0.0577  0.6771
11541TIP3    H256115   4.164   2.423   3.197 -0.2806 -0.6526 -0.3846
11542TIP3   OH256116   0.378   4.861  11.877 -0.0804 -0.9362 -0.2191
11542TIP3    H156117   0.464   4.858  11.834 -0.2073  0.4532 -0.5779
11542TIP3    H256118   0.320   4.812  11.819  0.3660 -1.5125 -0.1877
11543TIP3   OH256119   3.681   1.025  14.922 -0.0430 -0.2638  0.2980
11543TIP3    H156120   3.718   0.940  14.945 -0.6414 -1.1409 -1.8517
11543TIP3    H256121   3.693   1.032  14.828 -0.8020  1.6494  0.3207
11544TIP3   OH256122   3.882   5.485   3.659  0.0668  0.2010 -0.0545
11544TIP3    H156123   3.912   5.545   3.727  1.1750 -0.2200 -0.1658
11544TIP3    H256124   3.928   5.403   3.677 -0.1828 -0.1241 -0.8830
11545TIP3   OH256125   5.799   0.441  13.832  0.9487 -0.2096 -0.1351
11545TIP3    H156126   5.861   0.512  13.813 -0.8661  2.0087  1.9084
11545TIP3    H256127   5.843   0.386  13.896  1.2603  0.6897  0.4249
11546TIP3   OH256128   2.724   4.328  13.411  0.2445  0.1614 -0.1020
11546TIP3    H156129   2.746   4.398  13.472 -1.2296  3.5981 -3.2930
11546TIP3    H256130   2.801   4.320  13.354  0.2969 -0.5997  0.0720
11547TIP3   OH256131   1.590   1.156  16.915  0.7185 -0.1951 -0.8574
11547TIP3    H156132   1.632   1.186  16.996  1.4381  0.8064 -1.5924
11547TIP3    H256133   1.543   1.076  16.941  0.3325  0.5122  0.7104
11548TIP3   OH256134   2.215   3.351   0.466 -0.5277 -0.1750 -0.1895
11548TIP3    H156135   2.265   3.344   0.385 -0.1903 -1.8099  0.1347
11548TIP3    H256136   2.203   3.260   0.494 -1.5431  0.3252  1.0391
11549TIP3   OH256137   6.394   1.857  15.135  0.3288 -0.3752  0.1073
11549TIP3    H156138   6.412   1.847  15.228 -1.6822  0.1145  0.5810
11549TIP3    H256139   6.299   1.871  15.131  0.7314  2.1147 -1.8013
11550TIP3   OH256140   6.746   0.911  13.249 -0.0963 -0.5829 -0.1988
11550TIP3    H156141   6.710   0.998  13.234  1.4920  0.0556 -0.4060
11550TIP3    H256142   6.718   0.888  13.338  1.3562  1.0940  0.7139
11551TIP3   OH256143   6.118   0.147  12.952  0.0736  0.3446  0.6971
11551TIP3    H156144   6.122   0.132  13.047 -0.0538 -0.4542  0.5720
11551TIP3    H256145   6.194   0.102  12.917  0.7154  1.5352  0.5333
11552TIP3   OH256146   3.681   3.617  12.130  0.6408 -0.3568 -0.2135
11552TIP3    H156147   3.673   3.667  12.211  0.6540 -0.8342  0.0850
11552TIP3    H256148   3.591   3.611  12.096  0.4233 -1.4012  0.5257
11553TIP3   OH256149   2.976   1.234  16.176 -0.4934 -0.3860  0.3552
11553TIP3    H156150   3.072   1.230  16.172 -0.5233 -1.1534  0.3740
11553TIP3    H256151   2.955   1.323  16.149  0.2537 -0.0674  0.7848
11554TIP3   OH256152   1.939   0.530  14.198 -0.2800 -0.5609  0.0042
11554TIP3    H156153   1.980   0.551  14.281 -3.9105 -1.7545  2.2126
11554TIP3    H256154   1.872   0.598  14.187 -1.5402 -1.8890 -0.6579
11555TIP3   OH256155   6.743   3.194  13.514  0.7444  0.0086 -0.3251
11555TIP3    H156156   6.749   3.243  13.432 -0.5106 -1.4956 -1.3563
11555TIP3    H256157   6.649   3.177  13.524  0.9350 -0.2073  1.2004
11556TIP3   OH256158   5.879   1.793   5.013  0.0052  0.0621 -0.3324
11556TIP3    H156159   5.899   1.813   4.922 -3.3043 -0.0154 -1.1406
11556TIP3    H256160   5.932   1.855   5.063  1.8423  0.1315 -2.2636
11557TIP3   OH256161   2.889   1.626  12.644  0.4854  0.1779  0.1491
11557TIP3    H156162   2.900   1.587  12.731 -0.7156 -0.5675 -0.0289
11557TIP3    H256163   2.836   1.563  12.596  2.1755 -0.0023 -1.5430
11558TIP3   OH256164   2.948   0.146  14.264 -0.3429  0.1421  0.4411
11558TIP3    H156165   2.913   0.076  14.209 -0.8341 -0.4234  1.4642
11558TIP3    H256166   3.006   0.101  14.326 -0.2051  0.7135  0.7256
11559TIP3   OH256167   4.873   5.461   5.048  0.3900 -0.4014  0.0850
11559TIP3    H156168   4.821   5.530   5.006 -1.2593 -1.7453 -0.1341
11559TIP3    H256169   4.954   5.505   5.073 -0.4127  1.5025 -0.5065
11560TIP3   OH256170   5.307   3.807   5.417 -0.1514  0.2431  0.1250
11560TIP3    H156171   5.310   3.716   5.387 -1.0692  0.4948 -0.7437
11560TIP3    H256172   5.217   3.835   5.401  0.3868  1.6286 -0.5596
11561TIP3   OH256173   2.093   6.164  14.086  0.0946  0.1312  0.2208
11561TIP3    H156174   2.115   6.156  14.179  0.9922 -0.1663 -0.0125
11561TIP3    H256175   2.176   6.188  14.044  0.1261 -1.6649 -0.7674
11562TIP3   OH256176   6.640   1.676  16.607 -0.6489 -0.5009 -0.2982
11562TIP3    H156177   6.604   1.744  16.664 -1.4343 -2.2350  1.3234
11562TIP3    H256178   6.571   1.661  16.541 -0.5951  0.0523 -0.4794
11563TIP3   OH256179   6.490   4.426  13.046 -0.0927 -0.1880 -0.2710
11563TIP3    H156180   6.439   4.506  13.041 -1.3842 -0.8211  2.1241
11563TIP3    H256181   6.429   4.357  13.019 -0.8818 -1.0579  3.4845
11564TIP3   OH256182   1.313   4.432  13.905 -0.6119 -0.2891  0.4432
11564TIP3    H156183   1.338   4.362  13.845 -0.9015 -0.5341  0.6072
11564TIP3    H256184   1.309   4.511  13.851  1.3028 -0.0915  0.5523
11565TIP3   OH256185   3.381   1.017  13.174  0.1634  0.7363 -0.5563
11565TIP3    H156186   3.310   1.080  13.160 -0.0177  0.8817  1.0076
11565TIP3    H256187   3.372   0.990  13.265  4.0065  3.0824  0.5967
11566TIP3   OH256188   1.922   1.629  15.956  0.1782 -0.0207  0.4575
11566TIP3    H156189   1.994   1.576  15.921  0.8911  2.0137 -1.2403
11566TIP3    H256190   1.852   1.619  15.892 -0.6086 -0.9500  1.4476
11567TIP3   OH256191   4.409   2.974  17.119  0.0047  0.1731  0.6266
11567TIP3    H156192   4.489   2.921  17.121 -0.1442 -0.0865 -0.0719
11567TIP3    H256193   4.417   3.027  17.040 -1.2829 -1.0895 -0.3839
11568TIP3   OH256194   4.097   3.292  12.814  0.4003  0.1425  0.1894
11568TIP3    H156195   4.112   3.386  12.825  1.1460  0.0740 -0.2468
11568TIP3    H256196   4.141   3.270  12.733  0.2600 -0.5977  0.3127
11569TIP3   OH256197   5.373   4.506   4.008 -0.1048 -0.2661 -0.1642
11569TIP3    H156198   5.437   4.523   3.938 -0.1250  0.4161 -0.0272
11569TIP3    H256199   5.380   4.413   4.026  1.4481 -0.0394  0.4354
11570TIP3   OH256200   2.190   3.852   3.999  0.0991  0.1704  0.1036
11570TIP3    H156201   2.163   3.886   3.914  0.2545 -0.3145 -0.1389
11570TIP3    H256202   2.136   3.901   4.062  0.1419  0.6853 -0.2541
11571TIP3   OH256203   5.946   1.278   5.732 -0.0403  0.0431 -0.3108
11571TIP3    H156204   5.974   1.278   5.824 -1.0113 -1.0093  0.0023
11571TIP3    H256205   5.959   1.187   5.704 -1.3015 -0.0139 -0.7233
11572TIP3   OH256206   2.670   3.596  11.939 -0.2373 -0.1886  0.5317
11572TIP3    H156207   2.577   3.608  11.959  0.2756  1.4472  2.1373
11572TIP3    H256208   2.694   3.674  11.889 -0.4262 -2.1146 -2.7221
11573TIP3   OH256209   6.312   4.630   3.486  0.2785  0.0034 -0.0711
11573TIP3    H156210   6.259   4.559   3.521  0.1185  0.3205  0.3292
11573TIP3    H256211   6.318   4.611   3.392  1.0971 -1.0945  0.1941
11574TIP3   OH256212   6.497   0.749  13.015  0.3292  0.4927  0.1172
11574TIP3    H156213   6.537   0.835  13.025 -0.4730  0.9714 -0.6835
11574TIP3    H256214   6.422   0.764  12.957  0.7946 -0.9287 -0.8972
11575TIP3   OH256215   6.788   6.464  13.422  0.1627 -0.2595 -0.0280
11575TIP3    H156216   6.725   6.410  13.468  1.2230 -1.7479 -0.3129
11575TIP3    H256217   6.826   6.520  13.489  0.4129 -1.1689  0.5895
11576TIP3   OH256218   0.179   4.732  12.375  0.7544  0.0704 -0.3506
11576TIP3    H156219   0.222   4.812  12.404 -0.5052  0.5740  0.1266
11576TIP3    H256220   0.198   4.728  12.281  1.8066  0.3100 -0.1535
11577TIP3   OH256221   5.494   0.931  14.575 -0.2507 -0.0546 -0.2653
11577TIP3    H156222   5.405   0.966  14.577 -0.5634 -0.8112 -0.7005
11577TIP3    H256223   5.492   0.865  14.505  0.0172 -1.7348  1.2756
11578TIP3   OH256224   4.250   5.784   2.379  0.7888 -0.4646 -0.4715
11578TIP3    H156225   4.333   5.741   2.401  1.6577  1.3499 -0.1636
11578TIP3    H256226   4.243   5.856   2.442 -1.5170 -1.2097  0.1689
11579TIP3   OH256227   1.488   4.812  13.821  0.0333  0.4074 -0.1459
11579TIP3    H156228   1.453   4.899  13.841  0.0986  0.0709  1.5212
11579TIP3    H256229   1.411   4.760  13.798 -0.0620  0.7655 -0.6493
11580TIP3   OH256230   5.356   0.177  14.835 -0.9648  0.6429 -0.0579
11580TIP3    H156231   5.306   0.258  14.826 -1.0459  0.6653  0.5600
11580TIP3    H256232   5.353   0.157  14.928 -0.2990  0.3381 -0.0945
11581TIP3   OH256233   6.130   0.966   0.956  0.1190  0.3138 -0.7321
11581TIP3    H156234   6.069   0.962   0.882  1.6150 -0.8947 -1.9240
11581TIP3    H256235   6.212   0.931   0.922  1.4422  1.7000  0.9139
11582TIP3   OH256236   3.030   2.987  10.821  0.1971 -0.1639  0.2844
11582TIP3    H156237   3.005   2.909  10.771  1.6884 -0.3551 -0.1698
11582TIP3    H256238   3.114   2.965  10.860 -0.7551  0.1366  2.5851
11583TIP3   OH256239   1.469   3.231  14.074  0.0096 -0.1326  0.4664
11583TIP3    H156240   1.457   3.321  14.101 -1.4384 -0.4242  0.8156
11583TIP3    H256241   1.519   3.191  14.145  1.7786  0.6866 -0.2724
11584TIP3   OH256242   6.801   6.399   3.026  0.0137  0.1887  0.1686
11584TIP3    H156243   6.792   6.446   2.943  1.1569 -0.3969 -0.2966
11584TIP3    H256244   6.724   6.341   3.029  0.4442 -0.4538 -0.9289
11585TIP3   OH256245   2.001   5.208  16.027 -0.0526 -0.4025 -0.0259
11585TIP3    H156246   1.914   5.239  16.051  0.6053  0.3631  1.4696
11585TIP3    H256247   2.002   5.116  16.054 -0.7492 -0.6966 -1.0066
11586TIP3   OH256248   6.728   0.573   3.556 -0.0105 -0.0503 -0.8902
11586TIP3    H156249   6.816   0.588   3.522  0.3599 -1.6775 -0.6578
11586TIP3    H256250   6.738   0.578   3.652 -0.2301  0.0607 -0.8724
11587TIP3   OH256251   0.535   6.451   0.760  0.6577 -0.2223  0.5232
11587TIP3    H156252   0.472   6.381   0.746 -0.3003  0.7481 -0.1719
11587TIP3    H256253   0.521   6.480   0.850 -0.3550  0.4366  0.1548
11588TIP3   OH256254   1.519   1.049   3.562  0.4048  1.0859  0.3044
11588TIP3    H156255   1.524   1.102   3.482  0.3543  1.5352  0.5987
11588TIP3    H256256   1.426   1.048   3.584  0.0115 -1.4060 -1.2252
11589TIP3   OH256257   5.032   1.175   2.206  0.7374  0.5834  0.0645
11589TIP3    H156258   5.031   1.115   2.281  1.2223  0.5543  0.0459
11589TIP3    H256259   5.094   1.244   2.230  3.0786 -0.9227 -1.4824
11590TIP3   OH256260   5.715   6.429   4.202  0.1799  0.1059 -0.3141
11590TIP3    H156261   5.690   6.519   4.226  0.8080  0.7978 -2.1534
11590TIP3    H256262   5.632   6.382   4.199 -0.1318  0.5457  0.9523
11591TIP3   OH256263   3.310   0.906  12.185 -0.3326  0.2832  0.0346
11591TIP3    H156264   3.359   0.988  12.175  0.7514 -0.3769 -0.1922
11591TIP3    H256265   3.286   0.882  12.096 -1.3513  0.7653  0.1740
11592TIP3   OH256266   4.113   2.095   1.437  0.0686  0.0757  0.1146
11592TIP3    H156267   4.023   2.065   1.452 -0.0975  0.3434 -0.3129
11592TIP3    H256268   4.161   2.068   1.515 -0.8164  1.6255  1.2340
11593TIP3   OH256269   3.620   3.688   1.341  0.5230 -0.3525  0.1078
11593TIP3    H156270   3.648   3.739   1.417  3.8105 -2.9288  0.7723
11593TIP3    H256271   3.663   3.729   1.267  0.1496  0.0738  0.1279
11594TIP3   OH256272   0.185   1.274  16.816 -0.0196 -0.0481 -0.0108
11594TIP3    H156273   0.124   1.260  16.744 -0.2556  0.7061  0.0430
11594TIP3    H256274   0.245   1.199  16.810 -0.1360 -0.0868 -0.8797
11595TIP3   OH256275   6.426   0.700  15.219  0.0368  0.4978  0.0069
11595TIP3    H156276   6.469   0.697  15.305 -2.7089 -2.7888  1.3909
11595TIP3    H256277   6.478   0.642  15.164 -0.1996 -0.2059  0.5097
11596TIP3   OH256278   6.209   1.236  16.354 -0.0834  0.4238  0.2925
11596TIP3    H156279   6.263   1.314  16.342 -0.8468  0.9638  0.3152
11596TIP3    H256280   6.256   1.183  16.419 -0.4113  1.6797  1.5822
11597TIP3   OH256281   2.614   2.604  12.169  0.0482 -0.2977  1.2068
11597TIP3    H156282   2.627   2.666  12.097 -1.3364 -1.0383  0.2965
11597TIP3    H256283   2.700   2.595  12.209  0.6745  0.7060  0.1163
11598TIP3   OH256284   6.362   6.552  15.848 -0.2599  0.1165  0.1489
11598TIP3    H156285   6.422   6.478  15.835  3.3617  3.1174 -1.5872
11598TIP3    H256286   6.363   6.568  15.942  0.0489 -1.1550  0.3704
11599TIP3   OH256287   2.210   1.051   3.701 -0.2393 -0.0572 -1.1775
11599TIP3    H156288   2.158   0.976   3.672 -0.9297  0.0918 -0.3654
11599TIP3    H256289   2.181   1.066   3.791  0.0656  1.0247 -1.2539
11600TIP3   OH256290   3.171   2.367  11.450  0.2876 -0.0804  0.4013
11600TIP3    H156291   3.208   2.281  11.434  0.7299  0.0432  0.7534
11600TIP3    H256292   3.174   2.378  11.545 -3.0775 -1.1437  0.6838
11601TIP3   OH256293   4.926   4.376  12.377 -0.0858 -0.6077  0.3904
11601TIP3    H156294   4.987   4.333  12.317  1.0086  1.3795  0.0637
11601TIP3    H256295   4.966   4.363  12.463  0.3419 -0.0992  0.2718
11602TIP3   OH256296   0.288   6.370  14.227  0.5659 -0.2215  0.1027
11602TIP3    H156297   0.374   6.354  14.188  0.8950  0.1775  0.6589
11602TIP3    H256298   0.307   6.406  14.314 -0.1558 -1.5632  0.8413
11603TIP3   OH256299   6.661   0.971   3.218 -0.5856 -0.4287  0.0896
11603TIP3    H156300   6.654   0.876   3.220 -1.0000 -0.3959  0.2373
11603TIP3    H256301   6.594   0.999   3.156 -1.1236 -0.1749  0.7685
11604TIP3   OH256302   0.093   1.620  16.530  0.5653 -0.1137 -0.2376
11604TIP3    H156303   0.129   1.693  16.479 -0.6851 -0.8284 -2.1527
11604TIP3    H256304   0.001   1.642  16.542  0.4648 -0.7905  0.2621
11605TIP3   OH256305   1.416   1.017  15.539 -0.5310 -0.2370  0.2942
11605TIP3    H156306   1.332   1.062  15.530 -0.0927  0.2810 -1.3174
11605TIP3    H256307   1.468   1.076  15.594  0.3524  1.7336 -2.5542
11606TIP3   OH256308   2.824   5.930  12.253  0.3708 -0.0685 -0.2609
11606TIP3    H156309   2.805   5.994  12.185  0.5953 -0.0298 -0.2844
11606TIP3    H256310   2.918   5.917  12.250  0.0520 -2.1958 -1.8408
11607TIP3   OH256311   1.520   6.561  13.083  0.7631 -0.1039  0.0843
11607TIP3    H156312   1.519   6.618  13.160  2.0306 -1.3849  1.0795
11607TIP3    H256313   1.504   6.474  13.118  2.2880 -0.8326 -0.9903
11608TIP3   OH256314   5.219   5.687   6.019  0.3672 -0.0197  0.8674
11608TIP3    H156315   5.137   5.732   6.040  0.7115  0.7167  0.6176
11608TIP3    H256316   5.272   5.694   6.098  0.8559  0.9757  0.4549
11609TIP3   OH256317   3.516   0.581  17.069  0.2115  0.3549  0.5667
11609TIP3    H156318   3.458   0.573  17.145  0.0628 -0.6189  0.3601
11609TIP3    H256319   3.507   0.672  17.040 -0.2722  0.5320  1.2846
11610TIP3   OH256320   2.080   2.842  17.081  0.3405 -0.8284  0.8330
11610TIP3    H156321   2.112   2.795  17.003  0.4116  1.4764 -0.5597
11610TIP3    H256322   2.017   2.905  17.048  0.5319  0.3489  2.6108
11611TIP3   OH256323   1.868   1.000  15.741 -0.3804 -0.7046  0.1715
11611TIP3    H156324   1.871   1.095  15.729 -1.0751 -0.5601  1.0869
11611TIP3    H256325   1.827   0.968  15.660 -1.8276 -0.0512  0.6178
11612TIP3   OH256326   0.854   6.432   4.713  0.0862  0.0890  0.2776
11612TIP3    H156327   0.794   6.371   4.671  0.3243  0.4182 -0.5495
11612TIP3    H256328   0.809   6.459   4.793  0.7027 -2.5163  1.5741
11613TIP3   OH256329   0.928   5.495   0.164  0.0856  0.2429  0.3591
11613TIP3    H156330   0.852   5.447   0.197 -0.5429  2.2341  1.9172
11613TIP3    H256331   0.890   5.574   0.124  1.0879 -0.5329 -2.2134
11614TIP3   OH256332   5.640   6.276   3.758  0.3131 -0.2286  0.0298
11614TIP3    H156333   5.647   6.217   3.833 -0.6384  0.6974  0.8604
11614TIP3    H256334   5.547   6.296   3.752  0.4426  0.0619 -1.1304
11615TIP3   OH256335   5.163   4.609   4.127 -0.2995  0.0251 -0.3516
11615TIP3    H156336   5.190   4.551   4.197  0.8285  2.7239  1.5465
11615TIP3    H256337   5.234   4.605   4.063  0.0231 -0.3018  0.0288
11616TIP3   OH256338   3.565   0.877  16.674 -0.2261  0.6631 -0.1175
11616TIP3    H156339   3.486   0.848  16.627 -1.1249  1.0428  1.1359
11616TIP3    H256340   3.552   0.848  16.764  2.3541 -1.7177 -0.4471
11617TIP3   OH256341   0.589   1.963  13.197 -0.5928  0.1217  0.3688
11617TIP3    H156342   0.498   1.970  13.167  0.2279  0.9499 -1.9871
11617TIP3    H256343   0.610   2.050  13.230 -0.4688  0.0881  0.3764
11618TIP3   OH256344   2.230   0.008  16.086 -0.5571  0.6692 -0.9743
11618TIP3    H156345   2.244   0.032  16.178 -2.0973 -0.4913 -0.4160
11618TIP3    H256346   2.183  -0.075  16.090 -1.5271  1.1106 -2.8082
11619TIP3   OH256347   1.342   4.716  12.465  0.2640  0.9933 -0.4508
11619TIP3    H156348   1.258   4.743  12.502  0.8773  2.0066  0.2333
11619TIP3    H256349   1.385   4.797  12.440  0.7570  0.4362 -1.4331
11620TIP3   OH256350   3.592   4.980  16.874  0.3230  0.3411 -0.1343
11620TIP3    H156351   3.558   4.891  16.886 -0.0147  0.7041  1.9361
11620TIP3    H256352   3.681   4.976  16.909  0.3307  0.7904 -0.1048
11621TIP3   OH256353   5.164   2.146   5.312  0.6787  0.1758 -0.2616
11621TIP3    H156354   5.256   2.140   5.288  0.6622  1.4351 -0.6877
11621TIP3    H256355   5.160   2.113   5.402  1.4615 -0.3093 -0.4044
11622TIP3   OH256356   0.575   4.788  13.515  0.1264  0.1548  0.2455
11622TIP3    H156357   0.657   4.744  13.538 -1.0174 -2.2575 -0.1255
11622TIP3    H256358   0.514   4.763  13.585 -0.7738  0.4704 -0.4187
11623TIP3   OH256359   2.582   5.398  17.210 -0.2237 -0.1399 -0.4223
11623TIP3    H156360   2.640   5.404  17.135 -0.6686  0.9721 -0.6930
11623TIP3    H256361   2.500   5.439  17.180  0.0328  1.5312  1.0835
11624TIP3   OH256362   6.247   4.084  14.214  0.5304  0.0039 -0.7585
11624TIP3    H156363   6.296   4.003  14.200  0.6708 -0.1321  0.4425
11624TIP3    H256364   6.183   4.062  14.282 -0.0956  0.6262 -1.1415
11625TIP3   OH256365   0.292   1.839   3.144 -0.7945 -0.0432  0.1525
11625TIP3    H156366   0.273   1.746   3.153  1.1294 -0.6599 -1.6228
11625TIP3    H256367   0.347   1.844   3.066  0.9551  2.3274  1.4894
11626TIP3   OH256368   3.564   1.061   1.128  0.4782 -0.8687  0.3546
11626TIP3    H156369   3.476   1.074   1.162  0.3393  0.8374 -0.6376
11626TIP3    H256370   3.559   1.084   1.036  1.7868 -1.5538  0.0922
11627TIP3   OH256371   4.719   2.726  14.956  0.0449 -0.2506  0.7974
11627TIP3    H156372   4.786   2.747  14.891  0.4986 -2.0682  0.6774
11627TIP3    H256373   4.721   2.800  15.017  1.1974  0.3562  0.0324
11628TIP3   OH256374   6.059   3.295  13.025 -0.0427 -0.0467  0.1549
11628TIP3    H156375   6.120   3.297  12.951  2.1855 -0.4495  1.9127
11628TIP3    H256376   6.076   3.211  13.068 -0.7888  0.4904  1.5374
11629TIP3   OH256377   0.963   2.183   1.735  0.6756  0.3962  0.2837
11629TIP3    H156378   1.030   2.251   1.723  0.1645  0.7761 -0.4402
11629TIP3    H256379   0.882   2.224   1.705  0.1097 -0.0495  1.1984
11630TIP3   OH256380   4.988   4.976  15.698 -0.0459 -0.4414 -0.0100
11630TIP3    H156381   5.082   4.988  15.689 -0.0131 -0.5511  0.1993
11630TIP3    H256382   4.964   5.029  15.774 -0.4201  0.9372 -1.0573
11631TIP3   OH256383   4.227   4.353   5.176 -0.5045 -0.1688 -0.2131
11631TIP3    H156384   4.236   4.258   5.176  1.9268  0.0509 -0.0254
11631TIP3    H256385   4.223   4.376   5.083 -2.1159 -0.5013 -0.2586
11632TIP3   OH256386   3.189   6.628   3.385 -0.2889  0.1454 -0.2983
11632TIP3    H156387   3.269   6.591   3.423  0.9361  2.3291 -0.6522
11632TIP3    H256388   3.118   6.592   3.438  1.1157  0.2363  1.7039
11633TIP3   OH256389   2.744   6.117   1.107  0.0392 -0.7959  0.1260
11633TIP3    H156390   2.778   6.093   1.021  0.6742 -0.4388  0.2809
11633TIP3    H256391   2.750   6.212   1.110 -1.2014 -0.7049  0.0562
11634TIP3   OH256392   4.983   3.535  16.881  0.4335  0.4445  0.0183
11634TIP3    H156393   4.940   3.582  16.952 -1.6043  1.6843 -1.9626
11634TIP3    H256394   5.073   3.567  16.882  0.2869  0.8306  1.7019
11635TIP3   OH256395   4.641   0.394  15.093  0.1603  0.9194 -0.5059
11635TIP3    H156396   4.595   0.403  15.176 -0.1218 -0.7957 -0.4486
11635TIP3    H256397   4.627   0.303  15.068  3.5563  0.3339 -0.4658
11636TIP3   OH256398   0.180   5.204  17.093  0.1823  0.2731  0.3154
11636TIP3    H156399   0.102   5.215  17.038  0.7002  2.2911 -0.0625
11636TIP3    H256400   0.147   5.162  17.173 -1.0204 -0.2829 -0.4551
11637TIP3   OH256401   0.779   0.801  14.395  0.7032  0.0371 -0.1900
11637TIP3    H156402   0.850   0.851  14.355  0.5302  0.0654 -0.4687
11637TIP3    H256403   0.762   0.846  14.478  0.6068  0.3963 -0.4008
11638TIP3   OH256404   4.122   2.927   4.491 -0.6684 -0.2358 -0.0391
11638TIP3    H156405   4.121   2.979   4.410 -1.7469 -1.2516 -0.6872
11638TIP3    H256406   4.097   2.989   4.559  0.3231  0.6512 -0.4636
11639TIP3   OH256407   6.808   4.482   1.723 -0.3533 -0.0377 -0.1557
11639TIP3    H156408   6.715   4.498   1.738 -0.1241  1.0702  0.1272
11639TIP3    H256409   6.852   4.535   1.790  0.4461 -1.3978  0.4097
11640TIP3   OH256410   0.528   6.422   5.330  0.0584  0.0743 -0.0420
11640TIP3    H156411   0.566   6.408   5.416 -1.2242  1.1924  0.7196
11640TIP3    H256412   0.536   6.337   5.286  0.4978 -0.5624  1.2505
11641TIP3   OH256413   4.907   4.671   3.553 -0.2618  0.1705  0.3085
11641TIP3    H156414   4.943   4.613   3.487 -1.5407 -1.1165  0.7155
11641TIP3    H256415   4.964   4.662   3.629  0.7816  1.0963 -0.3470
11642TIP3   OH256416   4.015   5.487  16.060 -0.1257 -0.7332  0.5130
11642TIP3    H156417   4.001   5.394  16.078 -3.5103 -0.3037  0.3810
11642TIP3    H256418   3.936   5.530  16.092  1.2418  2.0866  0.2701
11643TIP3   OH256419   0.103   0.332  16.027 -0.5512 -0.1360  0.1177
11643TIP3    H156420   0.065   0.401  16.081  0.6015  0.7099 -0.1417
11643TIP3    H256421   0.097   0.365  15.937 -1.1814 -0.9296 -0.1335
11644TIP3   OH256422   2.724   0.055   1.033  0.4399  0.0452 -0.1764
11644TIP3    H156423   2.710   0.063   1.127  1.2066  0.9792 -0.1392
11644TIP3    H256424   2.648   0.006   1.001  0.0542 -0.0487  0.8833
11645TIP3   OH256425   6.363   3.006   0.896  0.8469  0.0433 -0.1868
11645TIP3    H156426   6.410   3.038   0.974  0.1049  1.2454 -0.2209
11645TIP3    H256427   6.286   2.962   0.931  0.0784  1.3065 -0.2525
11646TIP3   OH256428   2.053   3.987   1.845  0.1971  0.5308 -0.3306
11646TIP3    H156429   2.138   4.021   1.871 -0.7120  1.8102  1.0939
11646TIP3    H256430   1.991   4.033   1.902 -1.3379 -1.1922 -0.5758
11647TIP3   OH256431   6.204   1.361  16.031  0.4717 -0.0416 -0.3449
11647TIP3    H156432   6.126   1.306  16.020 -1.6541  2.7355  0.3107
11647TIP3    H256433   6.178   1.446  15.995  3.2401  0.9099 -0.1783
11648TIP3   OH256434   2.597   2.153  14.912 -0.2016  0.2155 -0.5959
11648TIP3    H156435   2.592   2.244  14.883  2.3969  1.0919  1.4931
11648TIP3    H256436   2.675   2.118  14.869  0.1327 -0.2989  0.3982
11649TIP3   OH256437   0.330   5.980  15.718 -0.5305 -0.0123 -0.1473
11649TIP3    H156438   0.284   6.007  15.797 -0.5183 -0.5994  0.0607
11649TIP3    H256439   0.342   5.886  15.728 -1.7743 -0.3312 -1.4888
11650TIP3   OH256440   5.214   1.142   4.281 -0.0086  0.0718  0.0407
11650TIP3    H156441   5.252   1.063   4.243  0.8173  0.3022  0.3628
11650TIP3    H256442   5.290   1.196   4.305 -0.5668  1.4128 -1.1265
11651TIP3   OH256443   1.286   0.334  13.919 -0.8511  0.1578 -0.5343
11651TIP3    H156444   1.272   0.276  13.994 -1.1491 -1.1918 -1.6098
11651TIP3    H256445   1.232   0.297  13.850 -0.3536  1.2256 -1.5108
11652TIP3   OH256446   5.943   0.996  16.969  0.0209  0.2490  0.1887
11652TIP3    H156447   6.033   0.969  16.952  0.2430 -0.0045  1.6964
11652TIP3    H256448   5.902   1.000  16.883  1.2005 -0.6023 -0.4174
11653TIP3   OH256449   0.962   4.325  13.681  0.9677 -0.2712 -0.6823
11653TIP3    H156450   0.905   4.260  13.640  0.6657 -0.3229 -0.1803
11653TIP3    H256451   1.032   4.339  13.617 -0.0562  0.4312 -1.6638
11654TIP3   OH256452   5.348   5.701   1.393 -0.1023  0.1365  0.3374
11654TIP3    H156453   5.408   5.627   1.386  1.6421  1.5402  0.2502
11654TIP3    H256454   5.329   5.708   1.486 -2.8234 -2.3743  0.0612
11655TIP3   OH256455   5.838   4.853   6.245 -0.2182  0.2137  0.4507
11655TIP3    H156456   5.906   4.864   6.311 -0.2431 -0.7599  0.6442
11655TIP3    H256457   5.758   4.837   6.295  0.0692 -2.2464  0.1902
11656TIP3   OH256458   4.643   4.295   6.907 -0.7561 -0.1864 -0.2547
11656TIP3    H156459   4.596   4.300   6.991  0.8113  2.0879  0.5425
11656TIP3    H256460   4.683   4.208   6.908 -0.2132  0.0599  1.6676
11657TIP3   OH256461   6.375   2.034  14.895  0.1514 -0.1653  0.2801
11657TIP3    H156462   6.462   2.075  14.900  0.3163 -0.3260 -1.0479
11657TIP3    H256463   6.377   1.966  14.962  0.8126  0.2749  0.7157
11658TIP3   OH256464   4.674   4.504   1.603  0.4017 -0.0335  1.2546
11658TIP3    H156465   4.688   4.430   1.662  0.0966  0.6264  2.1465
11658TIP3    H256466   4.638   4.573   1.658  0.6221  0.7662  0.4082
11659TIP3   OH256467   0.308   0.510  15.346 -0.1733 -0.2594  0.3996
11659TIP3    H156468   0.230   0.478  15.302  0.1408  2.4951 -2.3286
11659TIP3    H256469   0.277   0.542  15.431 -1.9836  0.5546 -0.5552
11660TIP3   OH256470   0.117   1.220   5.241 -0.0829 -0.0842  0.2726
11660TIP3    H156471   0.162   1.165   5.304  0.7556 -1.7743 -1.7403
11660TIP3    H256472   0.171   1.300   5.235  0.0392 -0.0814  1.3728
11661TIP3   OH256473   4.053   5.681   1.653  0.2653 -0.4105  0.0724
11661TIP3    H156474   3.999   5.613   1.612 -0.4416  0.7984 -1.0029
11661TIP3    H256475   4.131   5.686   1.598 -0.4683  0.8732 -0.8629
11662TIP3   OH256476   1.155   1.523  14.345  0.0992  0.0299 -0.6525
11662TIP3    H156477   1.067   1.546  14.374  0.7097  0.9620  0.5331
11662TIP3    H256478   1.189   1.466  14.414  0.5710 -0.0004 -0.9073
11663TIP3   OH256479   3.636   6.368   3.380 -0.0922  0.0681 -0.2289
11663TIP3    H156480   3.693   6.331   3.447 -1.9383  0.0970  1.4282
11663TIP3    H256481   3.692   6.429   3.332  1.6072 -0.9187  0.4482
11664TIP3   OH256482   6.459   2.906  15.241  0.5552 -0.0362 -0.1260
11664TIP3    H156483   6.460   2.932  15.148  0.0275  0.1157 -0.0882
11664TIP3    H256484   6.367   2.905  15.265  0.7590  1.4151  0.8164
11665TIP3   OH256485   0.513   0.259  14.062 -0.7891  0.0298  0.0585
11665TIP3    H156486   0.566   0.193  14.106 -0.6068  0.4523  0.4753
11665TIP3    H256487   0.576   0.317  14.020 -0.8721  1.0439  1.2872
11666TIP3   OH256488   2.302   5.904  17.080  0.1143  0.0036  0.3582
11666TIP3    H156489   2.294   5.829  17.139 -0.3248 -0.0822  0.1906
11666TIP3    H256490   2.390   5.897  17.044  0.1111 -0.3746  0.4249
11667TIP3   OH256491   1.964   3.643   3.714 -0.0127 -0.7427 -0.5123
11667TIP3    H156492   2.034   3.640   3.779  0.0548 -1.8027 -0.6195
11667TIP3    H256493   2.002   3.604   3.635 -1.2743 -3.0835 -0.0186
11668TIP3   OH256494   3.874   5.064  12.771  0.2169 -0.7604 -0.0954
11668TIP3    H156495   3.914   4.980  12.750 -0.2503 -0.5866 -1.7421
11668TIP3    H256496   3.922   5.095  12.848  0.6796 -2.3168  0.2499
11669TIP3   OH256497   4.324   5.471   6.418 -0.4652  0.0263 -0.2383
11669TIP3    H156498   4.283   5.558   6.423 -0.7475 -0.1035 -0.2669
11669TIP3    H256499   4.348   5.461   6.326  1.2299  0.8251  0.0936
11670TIP3   OH256500   5.962   4.703  16.092  0.4061 -0.1661  0.8571
11670TIP3    H156501   5.995   4.786  16.128  0.6585 -0.3412  1.0310
11670TIP3    H256502   5.910   4.665  16.163 -1.3120  0.7578  0.1156
11671TIP3   OH256503   2.734   0.190  12.543  0.0701  0.4853  0.2189
11671TIP3    H156504   2.735   0.179  12.448 -0.2313  0.2164  0.2446
11671TIP3    H256505   2.826   0.207  12.566  0.1591  0.4563 -0.1080
11672TIP3   OH256506   5.908   2.519   2.833  0.0113  0.1712 -0.4340
11672TIP3    H156507   5.951   2.465   2.900 -0.1648  0.7334  0.1390
11672TIP3    H256508   5.875   2.456   2.769 -0.7320 -0.4507  0.5489
11673TIP3   OH256509   0.436   1.447   2.664 -0.1101  0.3637  0.4024
11673TIP3    H156510   0.506   1.505   2.633 -1.2448  0.7762 -1.4902
11673TIP3    H256511   0.475   1.399   2.737  1.6516  1.6930  0.3771
11674TIP3   OH256512   4.396   2.663   3.185 -0.3973  0.6392  0.3038
11674TIP3    H156513   4.424   2.689   3.273  0.8318 -0.9148  0.3929
11674TIP3    H256514   4.327   2.599   3.200  0.9949 -0.9062  0.1642
11675TIP3   OH256515   1.143   4.601   4.999  0.1227 -0.1259  0.4069
11675TIP3    H156516   1.200   4.552   4.939 -1.5185  0.4951 -1.7314
11675TIP3    H256517   1.174   4.691   4.992 -0.9813  0.1803 -0.6046
11676TIP3   OH256518   5.733   6.547  13.476  0.4312  0.0947 -0.2031
11676TIP3    H156519   5.743   6.641  13.459  1.4082  0.3021  1.3647
11676TIP3    H256520   5.823   6.515  13.486  0.0677 -0.8291  0.1453
11677TIP3   OH256521   3.001   1.211  14.097 -0.2852 -0.7933  0.2188
11677TIP3    H156522   2.928   1.219  14.159  0.6130  0.1991  1.1884
11677TIP3    H256523   3.049   1.134  14.126 -0.6710 -1.1682 -0.1284
11678TIP3   OH256524   2.898   0.754  15.451 -0.0858 -0.2792  0.3284
11678TIP3    H156525   2.897   0.805  15.370  1.4598 -1.0222 -0.1696
11678TIP3    H256526   2.842   0.804  15.511 -1.7527 -0.0340 -1.3627
11679TIP3   OH256527   1.572   3.552   3.501  0.5565 -0.0246  0.3868
11679TIP3    H156528   1.615   3.517   3.578  0.0640  0.6951  0.9993
11679TIP3    H256529   1.482   3.519   3.506  0.7860 -0.7816 -0.4018
11680TIP3   OH256530   4.992   4.217  15.823  1.0320 -0.2032 -0.4271
11680TIP3    H156531   5.055   4.219  15.895  0.1151 -1.9190  0.4529
11680TIP3    H256532   4.907   4.230  15.865  0.7711  2.1279 -1.6080
11681TIP3   OH256533   2.555   4.149  12.532  0.4035 -0.4171  0.0867
11681TIP3    H156534   2.490   4.117  12.470 -0.6749  0.1758  0.8979
11681TIP3    H256535   2.638   4.147  12.483 -0.3371 -0.4932 -1.1836
11682TIP3   OH256536   0.772   1.638  16.364 -0.1331  0.2535  0.3141
11682TIP3    H156537   0.835   1.672  16.427 -1.1523 -0.6771  1.8709
11682TIP3    H256538   0.759   1.709  16.302 -0.2342  1.7265  1.9922
11683TIP3   OH256539   2.613   5.316   1.699  0.4600  0.4427  0.3629
11683TIP3    H156540   2.707   5.329   1.684  0.2725  0.6235 -0.6931
11683TIP3    H256541   2.582   5.402   1.728  0.6145  0.3857  0.7061
11684TIP3   OH256542   3.338   6.047  16.020 -0.2646 -0.0998  0.2888
11684TIP3    H156543   3.385   6.116  16.067 -0.4624  0.1298  0.1443
11684TIP3    H256544   3.251   6.046  16.060 -0.4229  0.0723 -0.0507
11685TIP3   OH256545   6.724   4.849  12.642 -0.7319  0.1560 -0.0187
11685TIP3    H156546   6.656   4.878  12.582  0.4454  1.2534 -0.8557
11685TIP3    H256547   6.745   4.759  12.614  0.1193  0.8114 -1.5625
11686TIP3   OH256548   3.268   3.646  17.204 -1.0579  0.8559  0.0342
11686TIP3    H156549   3.240   3.554  17.202  1.0335  0.1252  1.8351
11686TIP3    H256550   3.202   3.691  17.256 -0.5842 -0.2122  1.5845
11687TIP3   OH256551   6.444   6.771   5.272  0.1985  0.1262 -0.4543
11687TIP3    H156552   6.393   6.734   5.344  1.4112  0.2821  0.4933
11687TIP3    H256553   6.381   6.821   5.221 -0.4307  1.0844  1.2247
11688TIP3   OH256554   4.930   0.828  16.665  0.2330 -0.0961 -0.4802
11688TIP3    H156555   4.942   0.741  16.703 -0.4266  0.4948  1.0917
11688TIP3    H256556   4.926   0.887  16.739  0.5399  1.2796 -1.5358
11689TIP3   OH256557   2.877   1.107   1.790 -0.0185  0.6118  0.0154
11689TIP3    H156558   2.936   1.164   1.740 -0.0874 -0.1467 -0.9554
11689TIP3    H256559   2.812   1.079   1.726 -0.0757 -0.4236  0.5262
11690TIP3   OH256560   2.568   1.111  13.953  0.5301 -0.2431 -0.3392
11690TIP3    H156561   2.659   1.141  13.946 -0.0764  1.7946  0.2521
11690TIP3    H256562   2.525   1.176  14.008 -1.6353 -0.3979 -1.7918
11691TIP3   OH256563   3.219   1.501   3.414  0.0810  0.0682 -0.4934
11691TIP3    H156564   3.224   1.535   3.503  0.5010 -1.7979  0.2098
11691TIP3    H256565   3.195   1.577   3.361  0.7897  1.4148  1.0653
11692TIP3   OH256566   4.302   2.825   0.829 -0.4545 -0.2534 -0.4574
11692TIP3    H156567   4.394   2.839   0.853 -0.2708 -2.1469  0.0315
11692TIP3    H256568   4.298   2.848   0.736 -0.0597  2.2336  0.1014
11693TIP3   OH256569   5.941   4.654  10.745  0.2780 -0.0815 -0.2282
11693TIP3    H156570   6.031   4.651  10.712  0.5273  0.1539  0.4035
11693TIP3    H256571   5.892   4.701  10.678  0.8323  0.6594 -0.1247
11694TIP3   OH256572   3.374   0.347  13.807 -0.0981  0.1282  0.0656
11694TIP3    H156573   3.372   0.401  13.728 -0.6400  0.6382  0.4269
11694TIP3    H256574   3.284   0.314  13.816 -0.1119  0.3275  0.6480
11695TIP3   OH256575   4.330   5.574  14.570  0.5302 -0.1859  0.1163
11695TIP3    H156576   4.283   5.590  14.652  1.4274 -1.4704  0.9077
11695TIP3    H256577   4.287   5.631  14.506  0.7421  1.9067  1.7846
11696TIP3   OH256578   2.994   0.365  14.066 -0.7515 -0.5028 -0.7312
11696TIP3    H156579   2.976   0.347  14.158  0.4772 -1.7319 -0.7209
11696TIP3    H256580   3.011   0.459  14.063  1.3505 -0.8117  0.6680
11697TIP3   OH256581   2.072   6.131  12.010 -0.5579  0.0962  0.2291
11697TIP3    H156582   2.131   6.118  12.084  1.9408  0.3761 -1.6528
11697TIP3    H256583   2.064   6.226  12.003  0.4139  0.1159 -0.7504
11698TIP3   OH256584   6.217   2.127   1.373  0.4777 -0.1737 -0.2108
11698TIP3    H156585   6.157   2.054   1.358  0.3409  0.3699 -2.5035
11698TIP3    H256586   6.246   2.117   1.464 -0.4303 -2.3903 -0.1525
11699TIP3   OH256587   2.832   3.034  14.904  0.0956  0.0501  0.3199
11699TIP3    H156588   2.881   2.959  14.871  1.2619  1.0809 -0.3183
11699TIP3    H256589   2.750   2.996  14.938  0.7239 -1.5147  0.1318
11700TIP3   OH256590   1.417   6.777  14.932 -0.3762  0.2205 -0.0676
11700TIP3    H156591   1.459   6.739  15.009 -0.6998  0.8391  0.4197
11700TIP3    H256592   1.354   6.711  14.903 -3.7418  1.8416  3.0680
11701TIP3   OH256593   4.943   6.036  15.666 -0.5121  0.0225  0.9451
11701TIP3    H156594   4.999   5.969  15.627  0.8050  1.8677 -0.4390
11701TIP3    H256595   4.989   6.063  15.745 -1.9337 -1.9263  2.4916
11702TIP3   OH256596   0.317   6.396   1.202  0.3931  0.1327  0.1364
11702TIP3    H156597   0.236   6.363   1.240  0.6187 -0.2106  0.3241
11702TIP3    H256598   0.289   6.450   1.128  0.1093 -2.1476 -1.4727
11703TIP3   OH256599   0.493   4.104  14.565 -0.7515 -0.8492 -0.2318
11703TIP3    H156600   0.398   4.107  14.572 -0.6574 -0.4513  0.9822
11703TIP3    H256601   0.515   4.011  14.571 -1.1616 -1.0923 -2.1211
11704TIP3   OH256602   0.629   5.955   1.943  0.1901  0.0937  0.1088
11704TIP3    H156603   0.630   5.936   2.036 -0.5458 -1.8857 -0.2648
11704TIP3    H256604   0.721   5.969   1.921  0.3822  0.4146  1.0864
11705TIP3   OH256605   1.506   5.313   0.530  0.2300 -1.0845  0.2201
11705TIP3    H156606   1.440   5.246   0.513  0.8985 -1.2110 -2.1292
11705TIP3    H256607   1.456   5.390   0.556 -0.6318 -2.0459  1.4375
11706TIP3   OH256608   2.861   1.268  15.125 -0.0202  0.4179  0.0413
11706TIP3    H156609   2.857   1.223  15.041 -0.0197  0.0809  0.2196
11706TIP3    H256610   2.792   1.227  15.177  0.8353 -0.2754  0.6447
11707TIP3   OH256611   6.229   2.873   4.060 -0.1408  0.6272  0.0120
11707TIP3    H156612   6.260   2.786   4.034  0.0104  1.0041 -1.1074
11707TIP3    H256613   6.282   2.934   4.009  0.7365  1.4354  1.8278
11708TIP3   OH256614   5.429   1.197  13.417  0.2929  0.3428  0.2063
11708TIP3    H156615   5.402   1.224  13.329 -2.3457 -1.0648  0.5280
11708TIP3    H256616   5.428   1.277  13.468 -1.2632  0.6735 -0.3255
11709TIP3   OH256617   3.896   3.152   6.162 -0.0558 -0.0254  0.2411
11709TIP3    H156618   3.940   3.165   6.246 -0.1359  0.8167  0.1652
11709TIP3    H256619   3.814   3.201   6.171  0.3673  0.8703 -0.6567
11710TIP3   OH256620   2.951   2.409   3.004  0.3124  0.3624 -0.0541
11710TIP3    H156621   3.016   2.476   2.982  1.5534 -0.4268  1.1283
11710TIP3    H256622   2.918   2.436   3.090 -0.2095  0.2235 -0.2135
11711TIP3   OH256623   5.619   1.493   6.009  0.3093 -0.2422  0.2366
11711TIP3    H156624   5.562   1.527   6.078  0.4654 -0.6079  0.5481
11711TIP3    H256625   5.564   1.493   5.931  0.3038  0.6925  0.2389
11712TIP3   OH256626   0.965   5.070  15.710  0.5760 -0.2431  0.2770
11712TIP3    H156627   0.972   4.985  15.754  1.2922 -1.0637 -1.3914
11712TIP3    H256628   1.051   5.083  15.669  0.5181  1.3462  0.6126
11713TIP3   OH256629   5.724   4.188   3.551 -0.0887 -0.2716 -0.1791
11713TIP3    H156630   5.749   4.100   3.523 -0.6776 -0.2470 -0.7843
11713TIP3    H256631   5.675   4.174   3.632  0.4703 -0.4404  0.1338
11714TIP3   OH256632   3.321   3.059   1.865 -1.0387 -0.4010  0.5531
11714TIP3    H156633   3.271   3.125   1.818 -2.9330 -1.7922  0.5666
11714TIP3    H256634   3.378   3.109   1.924  0.7062  1.3377 -2.5068
11715TIP3   OH256635   5.005   2.586   0.351 -0.1146 -0.6418  0.2763
11715TIP3    H156636   5.078   2.566   0.293  0.3888  0.4675  0.5325
11715TIP3    H256637   4.928   2.552   0.305  0.3891 -0.5577 -0.6261
11716TIP3   OH256638   4.708   0.985   4.408  0.2976 -0.2142 -0.4918
11716TIP3    H156639   4.796   0.948   4.417  0.9785  1.0570 -1.7792
11716TIP3    H256640   4.717   1.076   4.435 -1.4018 -0.9382  2.8148
11717TIP3   OH256641   3.818   3.859   5.403  0.3493 -0.0686  1.3380
11717TIP3    H156642   3.833   3.856   5.497  3.2109  0.6894  0.9706
11717TIP3    H256643   3.723   3.853   5.393  0.0127 -0.2194  4.2505
11718TIP3   OH256644   5.805   1.677  13.005  0.3020  0.4822  0.1487
11718TIP3    H156645   5.820   1.730  13.084  1.1054  0.2833  0.1320
11718TIP3    H256646   5.722   1.633  13.022  0.8850 -0.2227  1.2568
11719TIP3   OH256647   1.534   0.121   4.599 -0.2468  0.1356 -0.7035
11719TIP3    H156648   1.502   0.199   4.554 -1.8629  0.0843  0.3102
11719TIP3    H256649   1.565   0.153   4.684 -0.3397 -0.2325 -0.5285
11720TIP3   OH256650   0.363   3.304   0.563 -0.0611  0.4667  0.3907
11720TIP3    H156651   0.367   3.393   0.527 -2.0122  0.3246 -0.2475
11720TIP3    H256652   0.322   3.315   0.649 -0.3934  0.1679  0.2696
11721TIP3   OH256653   6.410   3.833  16.929 -0.5900  0.4896 -0.1976
11721TIP3    H156654   6.348   3.801  16.994  0.3365 -0.0510  0.4247
11721TIP3    H256655   6.372   3.916  16.899 -1.3809  0.3923  0.5072
11722TIP3   OH256656   1.610   1.619  13.947 -0.0998  0.5356 -0.3822
11722TIP3    H156657   1.521   1.603  13.979  0.1178  0.2287  0.0837
11722TIP3    H256658   1.619   1.563  13.870  0.4716 -1.2225  0.9201
11723TIP3   OH256659   5.420   4.301   5.027  0.3016 -0.0625 -0.3832
11723TIP3    H156660   5.385   4.389   5.040 -1.9684 -1.1679  1.4970
11723TIP3    H256661   5.515   4.312   5.033  0.0616  2.2712 -0.2851
11724TIP3   OH256662   6.542   1.252  16.377 -0.1287 -0.1591 -0.1120
11724TIP3    H156663   6.543   1.348  16.368  0.3418 -0.3068 -1.8517
11724TIP3    H256664   6.485   1.236  16.452 -0.6621  1.4620 -0.1438
11725TIP3   OH256665   4.736   3.533   5.128  0.3231 -0.6383  0.3766
11725TIP3    H156666   4.658   3.585   5.107  0.2058 -0.0050  2.2603
11725TIP3    H256667   4.709   3.479   5.203  1.2927 -1.4165  0.1738
11726TIP3   OH256668   4.890   6.327   4.677  0.2921  0.0119  0.2571
11726TIP3    H156669   4.958   6.364   4.734 -1.3840  1.6213  1.2865
11726TIP3    H256670   4.846   6.262   4.732  0.5428 -0.5199 -0.1713
11727TIP3   OH256671   6.015   2.190  17.152  0.6240  0.0952  0.4885
11727TIP3    H156672   5.951   2.256  17.126  2.0462  0.7820 -1.4120
11727TIP3    H256673   6.094   2.212  17.102  2.8565  0.1798  3.8857
11728TIP3   OH256674   1.221   1.802  14.415 -0.0593  0.3890 -0.3411
11728TIP3    H156675   1.254   1.725  14.368 -0.5442  0.9232 -1.5701
11728TIP3    H256676   1.158   1.766  14.478 -1.4390 -0.0959 -1.9669
11729TIP3   OH256677   4.782   5.035  15.520 -0.0733 -0.2525 -0.4283
11729TIP3    H156678   4.840   5.008  15.592  1.0319  0.9222 -0.8563
11729TIP3    H256679   4.744   4.953  15.489  2.6814 -1.3161 -1.2260
11730TIP3   OH256680   1.051   1.068  10.679  0.0855 -0.6431  0.4490
11730TIP3    H156681   1.099   1.105  10.753 -0.4258 -0.3941  0.6647
11730TIP3    H256682   1.046   1.139  10.616  1.0085 -1.0320 -0.0620
11731TIP3   OH256683   0.295   5.773  12.964 -0.5167  0.0787 -0.1247
11731TIP3    H156684   0.321   5.852  13.012 -1.9356  0.1470  0.5561
11731TIP3    H256685   0.362   5.763  12.897  0.2291  1.2987  0.4116
11732TIP3   OH256686   2.186   4.719  16.772  0.6157 -0.2419  0.4235
11732TIP3    H156687   2.102   4.683  16.801  0.9037 -1.8863 -0.6825
11732TIP3    H256688   2.246   4.644  16.774  1.4305  0.3493 -1.1955
11733TIP3   OH256689   3.376   5.779   2.051  0.0052  0.2695  0.4798
11733TIP3    H156690   3.458   5.802   2.008  0.9228 -1.6970  1.1255
11733TIP3    H256691   3.373   5.834   2.129 -1.3712  3.4254 -1.6720
11734TIP3   OH256692   4.519   3.001   6.092 -0.0877 -0.3731 -0.7425
11734TIP3    H156693   4.561   2.920   6.121 -1.0065 -1.4295 -2.2616
11734TIP3    H256694   4.444   3.012   6.149 -0.5538 -1.1702 -1.1949
11735TIP3   OH256695   3.484   6.491  16.450 -0.0417 -0.0892 -0.3330
11735TIP3    H156696   3.542   6.493  16.374 -0.2698 -1.0635 -0.5389
11735TIP3    H256697   3.537   6.456  16.521 -0.1990 -0.3768 -0.3610
11736TIP3   OH256698   2.883   0.000   4.643 -0.2813  0.2222 -0.1377
11736TIP3    H156699   2.925   0.076   4.685 -1.2907 -0.4283  2.1402
11736TIP3    H256700   2.810  -0.022   4.701 -1.0378 -1.4538 -1.6773
11737TIP3   OH256701   4.083   0.685   0.129 -0.2493  0.1576 -0.3094
11737TIP3    H156702   4.142   0.671   0.203 -1.4932 -0.9325  0.5106
11737TIP3    H256703   4.090   0.604   0.078  2.3150  1.7990 -2.6495
11738TIP3   OH256704   6.384   5.716   5.468 -0.1087 -0.0843 -0.2737
11738TIP3    H156705   6.321   5.755   5.528  0.8929  0.6547  0.2976
11738TIP3    H256706   6.331   5.690   5.392 -1.0359  0.8916  0.0310
11739TIP3   OH256707   2.922   3.225   1.223  0.4460  0.1978 -0.6873
11739TIP3    H156708   2.828   3.208   1.230 -0.1193  2.8834 -0.8609
11739TIP3    H256709   2.955   3.214   1.312  0.0737 -1.2589 -0.7191
11740TIP3   OH256710   5.304   2.438   0.507  0.4310  0.4187 -0.2843
11740TIP3    H156711   5.289   2.437   0.412 -1.4800 -0.6201  0.0074
11740TIP3    H256712   5.361   2.362   0.523  0.9273  0.7159 -0.6072
11741TIP3   OH256713   3.216   1.518   3.688 -0.6667  0.0746 -0.6216
11741TIP3    H156714   3.171   1.603   3.691  1.6524  1.3047  0.8335
11741TIP3    H256715   3.203   1.481   3.775 -1.3660 -0.8976 -1.1415
11742TIP3   OH256716   3.931   6.323  10.479  0.0266  0.0150  0.0634
11742TIP3    H156717   3.884   6.282  10.552  2.1518 -1.4732  0.6240
11742TIP3    H256718   3.979   6.395  10.520  0.3694 -0.1593 -0.0287
11743TIP3   OH256719   6.522   4.873  12.454  0.5494 -0.4330 -0.4845
11743TIP3    H156720   6.484   4.845  12.371 -0.3833  2.0948 -0.9634
11743TIP3    H256721   6.452   4.921  12.497  1.9847  0.9384  0.3742
11744TIP3   OH256722   3.415   5.707  14.944  0.1095 -0.0684  0.2992
11744TIP3    H156723   3.418   5.627  14.892 -1.3476  0.1550 -0.1670
11744TIP3    H256724   3.321   5.724  14.955  0.3557 -0.6032  3.7592
11745TIP3   OH256725   4.967   1.933   4.950  0.3457 -0.2085  0.6654
11745TIP3    H156726   4.970   2.022   4.986  1.3880 -0.9074  2.3384
11745TIP3    H256727   4.882   1.928   4.905  0.0344  1.4355  1.0563
11746TIP3   OH256728   3.438   5.657   2.897 -0.4504  0.1708  0.3298
11746TIP3    H156729   3.455   5.698   2.982  0.7050 -0.2076  0.2825
11746TIP3    H256730   3.359   5.701   2.865 -0.1074  1.2684  0.9791
11747TIP3   OH256731   3.499   5.997  15.245  0.0752 -0.2287 -0.1304
11747TIP3    H156732   3.428   5.944  15.282 -0.1439  0.0987 -0.0711
11747TIP3    H256733   3.562   6.007  15.317  0.9883 -1.9111 -0.6813
11748TIP3   OH256734   0.352   3.114  12.268  0.4216 -0.3723 -0.6261
11748TIP3    H156735   0.272   3.161  12.292  0.9116  0.0399  0.2137
11748TIP3    H256736   0.362   3.129  12.174 -0.3368 -0.1999 -0.6802
11749TIP3   OH256737   4.017   5.125  11.784  0.9124  0.3586 -0.1563
11749TIP3    H156738   3.980   5.043  11.817  0.2377  0.4087 -0.7531
11749TIP3    H256739   3.948   5.161  11.728  2.3975 -0.2291 -2.4370
11750TIP3   OH256740   2.684   5.337  13.406 -0.0043  0.0254 -0.2591
11750TIP3    H156741   2.659   5.355  13.497  0.3864  0.4066 -0.2278
11750TIP3    H256742   2.627   5.265  13.380  0.6028 -0.8064  0.6431
11751TIP3   OH256743   4.724   5.002  14.835  0.0549  0.7609 -0.3546
11751TIP3    H156744   4.776   4.966  14.907 -2.4665  0.7131  1.4984
11751TIP3    H256745   4.710   5.094  14.858 -2.2824  0.3093  0.1941
11752TIP3   OH256746   6.582   1.650  13.750  0.0511  0.1288  0.7398
11752TIP3    H156747   6.592   1.612  13.838  1.6122 -0.0437  0.4915
11752TIP3    H256748   6.582   1.574  13.691 -0.6246  0.2707  0.5516
11753TIP3   OH256749   0.621   6.117  16.566  0.2127 -0.6155  0.5147
11753TIP3    H156750   0.542   6.170  16.553  0.5762  0.3604  2.1024
11753TIP3    H256751   0.672   6.130  16.485 -0.7922 -0.4518 -0.0997
11754TIP3   OH256752   2.471   2.318   6.170  0.2595  0.2377 -0.9214
11754TIP3    H156753   2.410   2.380   6.209  1.5581  1.9164 -1.4669
11754TIP3    H256754   2.536   2.301   6.238 -1.2848 -2.2788 -0.0171
11755TIP3   OH256755   2.784   2.061   4.377  0.1867 -0.0680 -0.1911
11755TIP3    H156756   2.778   2.126   4.307 -0.0514 -0.7401 -0.8019
11755TIP3    H256757   2.749   2.105   4.455 -2.1571 -0.2143 -1.1259
11756TIP3   OH256758   6.217   5.707   2.809 -0.2558  0.2287 -0.2421
11756TIP3    H156759   6.303   5.669   2.829 -0.6348 -0.4179  0.2015
11756TIP3    H256760   6.229   5.801   2.818  0.9630  0.2953 -2.3414
11757TIP3   OH256761   0.570   3.730  16.196  0.0274  0.0542  0.2853
11757TIP3    H156762   0.536   3.803  16.143 -1.6751 -0.5363  0.5205
11757TIP3    H256763   0.527   3.741  16.281 -0.1887 -1.1764  0.3436
11758TIP3   OH256764   4.006   6.550  12.663  0.2899  0.5589  0.4313
11758TIP3    H156765   3.971   6.463  12.646  2.7669 -0.3207 -0.4107
11758TIP3    H256766   3.948   6.586  12.731 -1.4285 -1.2795 -0.0042
11759TIP3   OH256767   6.616   4.016   5.866 -0.4611  0.5196 -0.3841
11759TIP3    H156768   6.653   4.103   5.878  2.1361 -0.6136  0.2084
11759TIP3    H256769   6.537   4.016   5.920 -0.2588  2.3673 -0.0547
11760TIP3   OH256770   4.774   2.288   1.885 -0.1410 -0.1259 -0.6087
11760TIP3    H156771   4.789   2.339   1.805  2.3566 -1.1268 -0.8208
11760TIP3    H256772   4.818   2.339   1.954  0.7716 -1.0432 -0.5058
11761TIP3   OH256773   4.953   4.155   3.705  0.0077 -0.4305 -0.3016
11761TIP3    H156774   4.897   4.226   3.735  0.5829  0.7835 -2.0148
11761TIP3    H256775   5.023   4.150   3.769 -2.2497 -2.2792  2.1374
11762TIP3   OH256776   1.721   2.358   1.447 -0.3099 -0.1011 -0.5197
11762TIP3    H156777   1.738   2.269   1.478 -0.2017  0.2022  0.3110
11762TIP3    H256778   1.625   2.363   1.439 -0.4285  0.2003  0.9634
11763TIP3   OH256779   4.177   1.501   2.748  0.2968  0.2924 -0.0502
11763TIP3    H156780   4.217   1.434   2.692  1.3545 -0.0845  1.1167
11763TIP3    H256781   4.162   1.575   2.689  0.1734 -0.5601 -1.1111
11764TIP3   OH256782   2.248   2.127   5.341 -0.6229  0.0166 -0.4166
11764TIP3    H156783   2.153   2.137   5.341 -0.5605  0.7949  1.2555
11764TIP3    H256784   2.279   2.197   5.283 -0.9342  1.4668  1.1248
11765TIP3   OH256785   1.350   3.856  14.945  0.3302 -0.2163  0.3014
11765TIP3    H156786   1.283   3.924  14.941  1.8171  1.2376 -0.1242
11765TIP3    H256787   1.395   3.871  15.028  0.3589 -0.9732  0.4266
11766TIP3   OH256788   6.751   3.523  15.234  0.2677 -0.3127  0.0307
11766TIP3    H156789   6.719   3.554  15.149  0.2189  3.0846  1.2083
11766TIP3    H256790   6.672   3.500  15.282  0.1898 -0.5059 -0.1867
11767TIP3   OH256791   1.681   1.421   5.736  0.3437 -1.1821 -0.1978
11767TIP3    H156792   1.748   1.373   5.687  0.8300 -2.3348  1.5561
11767TIP3    H256793   1.660   1.364   5.810 -1.2414  0.0036  0.2923
11768TIP3   OH256794   3.976   3.472  15.277 -0.1084  0.1303  0.0010
11768TIP3    H156795   3.883   3.487  15.290 -0.2298  0.9162 -1.7010
11768TIP3    H256796   4.018   3.508  15.355 -1.1868  0.2264  0.5351
11769TIP3   OH256797   5.488   5.543  13.326 -0.4156  0.0788 -0.1950
11769TIP3    H156798   5.395   5.565  13.317  0.0781  1.8103 -1.1744
11769TIP3    H256799   5.515   5.587  13.407 -0.0209  1.0864 -0.8649
11770TIP3   OH256800   2.758   5.696  10.145 -0.7909  0.6594  0.3648
11770TIP3    H156801   2.771   5.602  10.135 -0.6532  0.5700  1.3369
11770TIP3    H256802   2.664   5.709  10.132 -0.5146  0.6454 -1.6615
11771TIP3   OH256803   5.603   6.671   4.239  0.1988  0.1693  0.1716
11771TIP3    H156804   5.520   6.678   4.285  1.7627  0.3322  3.1136
11771TIP3    H256805   5.625   6.761   4.215  0.6484  0.4506  1.5591
11772TIP3   OH256806   2.703   2.816   3.070 -0.2329 -0.4789 -0.2866
11772TIP3    H156807   2.735   2.781   2.987  1.5878  0.2049  0.1093
11772TIP3    H256808   2.769   2.791   3.134 -1.2863 -0.4151  0.8559
11773TIP3   OH256809   5.403   6.199  12.946  0.0294 -0.0213  0.7168
11773TIP3    H156810   5.398   6.123  13.005  0.9559  0.6853  1.7135
11773TIP3    H256811   5.493   6.230  12.953  0.0708  0.2813 -0.8429
11774TIP3   OH256812   3.864   1.759  16.511 -0.1956 -0.4807 -0.5658
11774TIP3    H156813   3.866   1.843  16.557  2.3148  0.7865 -2.8313
11774TIP3    H256814   3.880   1.694  16.580  0.2797  1.1063  0.8527
11775TIP3   OH256815   2.840   3.496   3.073  0.0745 -0.1244 -0.2166
11775TIP3    H156816   2.904   3.567   3.078  0.3365 -0.4847  2.1861
11775TIP3    H256817   2.846   3.464   2.982  1.7453  1.2570 -0.6071
11776TIP3   OH256818   1.170   2.408   5.013 -0.2016 -0.3363 -0.5472
11776TIP3    H156819   1.076   2.408   4.993 -0.7017  0.5989  1.6649
11776TIP3    H256820   1.199   2.495   4.986 -0.3254 -0.0184  0.3498
11777TIP3   OH256821   4.907   1.741   6.299 -0.6512 -0.7987  0.0102
11777TIP3    H156822   4.816   1.753   6.323 -0.0711 -0.1594  1.9511
11777TIP3    H256823   4.937   1.666   6.351  0.5109  0.3522  1.0298
11778TIP3   OH256824   1.389   2.451   1.905  0.5791  0.0307  0.2149
11778TIP3    H156825   1.391   2.448   2.000 -0.9101  1.5607  0.3020
11778TIP3    H256826   1.478   2.476   1.880  1.0538 -0.6673  1.1754
11779TIP3   OH256827   6.326   3.906   3.941  0.2555 -0.1076  0.2592
11779TIP3    H156828   6.369   3.821   3.933 -1.8386 -1.4828  2.7776
11779TIP3    H256829   6.272   3.898   4.020 -2.1367  2.5792 -1.0113
11780TIP3   OH256830   3.118   6.022  15.091  0.9458 -0.4558 -0.3879
11780TIP3    H156831   3.095   6.077  15.166 -0.0842 -0.3853 -0.7542
11780TIP3    H256832   3.098   6.075  15.015  4.0188  0.2966 -0.7255
11781TIP3   OH256833   1.605   4.834   3.279 -0.0768 -0.0445  0.0605
11781TIP3    H156834   1.595   4.768   3.347 -1.2615  0.1161  0.0480
11781TIP3    H256835   1.591   4.786   3.197  2.7313 -0.5295 -0.1778
11782TIP3   OH256836   2.791   0.433  11.873  0.1469  0.3077 -0.2819
11782TIP3    H156837   2.806   0.487  11.796 -1.1974  0.0999 -0.7043
11782TIP3    H256838   2.823   0.346  11.847  1.0865  0.5765 -0.0628
11783TIP3   OH256839   3.745   4.551   2.077  0.6599  0.4855 -0.3480
11783TIP3    H156840   3.698   4.604   2.012  1.1256  2.3441  0.7826
11783TIP3    H256841   3.827   4.598   2.092  1.0366 -0.4944  0.7817
11784TIP3   OH256842   6.192   3.679   2.913 -0.0078 -0.1800  0.0267
11784TIP3    H156843   6.164   3.588   2.920  0.0674 -0.1120  1.2845
11784TIP3    H256844   6.281   3.680   2.948  0.8043  0.0023 -1.9358
11785TIP3   OH256845   5.634   3.659  13.090 -0.6611 -0.7859 -0.1115
11785TIP3    H156846   5.631   3.701  13.003 -1.1228 -4.4027 -1.9356
11785TIP3    H256847   5.542   3.658  13.118 -0.6474 -0.6061 -0.0578
11786TIP3   OH256848   1.421   6.083   1.524 -0.4740  0.9139 -0.1229
11786TIP3    H156849   1.380   6.001   1.548  0.0045  0.3088 -1.3518
11786TIP3    H256850   1.353   6.132   1.477  0.5552 -0.6169 -3.2944
11787TIP3   OH256851   1.670   4.632   1.618 -0.3290 -0.0243 -0.7468
11787TIP3    H156852   1.584   4.653   1.654 -0.6584 -1.0638 -0.9038
11787TIP3    H256853   1.697   4.712   1.572 -0.8886  0.5513 -0.0875
11788TIP3   OH256854   2.716   3.176  12.648  0.0199  0.0375  0.1039
11788TIP3    H156855   2.672   3.109  12.701  1.5099 -1.7445 -0.8762
11788TIP3    H256856   2.808   3.150  12.649  0.7749  2.6365  0.5073
11789TIP3   OH256857   0.798   0.469  13.406  0.3943  0.3006  0.7622
11789TIP3    H156858   0.758   0.448  13.321 -0.0469 -0.4746  1.1608
11789TIP3    H256859   0.789   0.564  13.413 -3.4947 -0.0665  1.8602
11790TIP3   OH256860   1.106   6.150   1.198 -0.1612  0.2664  0.0522
11790TIP3    H156861   1.157   6.232   1.194  1.1563 -0.6260 -2.4335
11790TIP3    H256862   1.172   6.081   1.206 -1.2385 -0.6214  1.5825
11791TIP3   OH256863   4.564   2.371  13.492 -0.0206  0.2394 -0.0186
11791TIP3    H156864   4.485   2.406  13.449 -0.2634  2.3701  2.0552
11791TIP3    H256865   4.624   2.445  13.494  1.8437 -1.2236 -1.0744
11792TIP3   OH256866   4.846   3.907   1.552  0.2739 -0.0971 -0.4351
11792TIP3    H156867   4.865   3.999   1.567  0.1560 -0.0479 -0.5863
11792TIP3    H256868   4.751   3.900   1.561  0.0214  0.2022 -2.5750
11793TIP3   OH256869   5.040   1.448   0.445 -0.0495  0.5672 -0.3876
11793TIP3    H156870   5.030   1.364   0.488  0.8636  1.1501  0.9955
11793TIP3    H256871   5.031   1.428   0.351  0.2132 -1.0683 -0.0840
11794TIP3   OH256872   0.425   2.783  12.390  0.4535  0.2081 -0.3273
11794TIP3    H156873   0.462   2.795  12.477  2.1045 -2.0629 -0.6419
11794TIP3    H256874   0.361   2.853  12.380  1.6371  1.6681  1.9440
11795TIP3   OH256875   0.040   2.019   5.531  0.1288 -0.2297 -0.3112
11795TIP3    H156876   0.035   2.029   5.626 -0.0388 -0.1654 -0.3257
11795TIP3    H256877   0.128   1.987   5.514  1.1472  2.4270 -0.3614
11796TIP3   OH256878   0.041   2.851   0.892 -0.0802 -0.1316  0.2679
11796TIP3    H156879   0.056   2.899   0.811  2.0573  0.0543  0.7376
11796TIP3    H256880  -0.054   2.853   0.904 -0.2090  2.2383 -0.7675
11797TIP3   OH256881   2.283   3.708  14.916 -0.1474 -0.0858 -0.1589
11797TIP3    H156882   2.201   3.668  14.888 -0.9408  1.3412  0.0937
11797TIP3    H256883   2.338   3.707  14.837 -0.9219  0.2585 -0.7088
11798TIP3   OH256884   0.209   2.582  13.467  0.3605 -0.2279  0.1467
11798TIP3    H156885   0.189   2.658  13.412 -1.6723 -0.5992  0.3372
11798TIP3    H256886   0.226   2.619  13.554 -1.5770 -0.0448  0.4665
11799TIP3   OH256887   1.968   4.305   1.766 -0.6305 -0.2226  0.0315
11799TIP3    H156888   2.060   4.327   1.778 -0.8117  1.2016 -1.1356
11799TIP3    H256889   1.943   4.260   1.847  1.2856 -1.3058  0.0343
11800TIP3   OH256890   0.111   0.824   5.041 -0.3589  0.1801  0.3982
11800TIP3    H156891   0.031   0.771   5.036  0.4904 -1.2356  1.6471
11800TIP3    H256892   0.133   0.825   5.134 -1.3167  4.1997  0.6646
11801TIP3   OH256893   1.933   0.719   4.676 -0.3827  0.1848  0.9714
11801TIP3    H156894   1.927   0.747   4.767  1.3432  0.2185  1.1089
11801TIP3    H256895   1.956   0.626   4.682  0.0196  0.2566  0.5836
11802TIP3   OH256896   5.675   5.851  15.981  0.2279  0.3112 -0.0098
11802TIP3    H156897   5.669   5.860  16.077  0.6636 -0.8244  0.1326
11802TIP3    H256898   5.606   5.789  15.959 -0.7087  1.5508 -0.5937
11803TIP3   OH256899   4.566   3.272  12.708 -0.8870  0.0866 -0.2109
11803TIP3    H156900   4.623   3.196  12.717  1.9733  2.2293  0.5782
11803TIP3    H256901   4.486   3.248  12.754  1.3015 -1.1713  3.1127
11804TIP3   OH256902   3.243   6.554  14.684 -0.0062 -0.3165  0.0983
11804TIP3    H156903   3.245   6.541  14.589 -1.8796 -0.3812  0.0610
11804TIP3    H256904   3.336   6.558  14.709  0.5056 -0.3405 -1.7179
11805TIP3   OH256905   1.915   2.685   6.363 -0.0285 -0.3387 -0.5899
11805TIP3    H156906   1.851   2.747   6.396  0.5153  0.2283 -0.6000
11805TIP3    H256907   1.866   2.629   6.303 -0.9070 -1.0525  0.7756
11806TIP3   OH256908   5.832   3.209   0.967 -0.2447  0.3285 -0.7763
11806TIP3    H156909   5.838   3.113   0.964  0.9783  0.3409  0.7420
11806TIP3    H256910   5.914   3.239   0.927 -0.5294  0.7381 -1.0565
11807TIP3   OH256911   1.909   6.439   0.269 -0.2297 -0.2434 -0.0935
11807TIP3    H156912   1.875   6.401   0.188 -0.3317  0.0869 -0.2048
11807TIP3    H256913   2.000   6.461   0.248 -1.0719  2.5249 -1.0335
11808TIP3   OH256914   4.183   4.443  13.587  0.2513  0.3392 -0.3761
11808TIP3    H156915   4.110   4.499  13.561  0.6309  0.2747 -1.6180
11808TIP3    H256916   4.153   4.399  13.667 -1.0910  0.2465 -0.9203
11809TIP3   OH256917   4.668   3.590  15.866 -0.1608 -0.1510  0.2977
11809TIP3    H156918   4.573   3.580  15.875 -0.2979  0.5956 -0.2291
11809TIP3    H256919   4.686   3.567  15.774  0.1497 -0.1383  0.3523
11810TIP3   OH256920   0.386   4.107   2.734  0.1376  0.0879  0.0056
11810TIP3    H156921   0.305   4.084   2.687 -0.9006 -0.9496  2.2084
11810TIP3    H256922   0.385   4.202   2.738 -2.5902  0.0363  2.5947
11811TIP3   OH256923   3.738   0.964   0.138 -0.2618  0.5232 -0.0416
11811TIP3    H156924   3.825   0.967   0.177  0.6600  0.5678 -2.0807
11811TIP3    H256925   3.690   0.899   0.191  1.2598 -0.1343  0.5420
11812TIP3   OH256926   2.710   6.042  12.776 -0.3224  0.5116 -1.1257
11812TIP3    H156927   2.706   6.107  12.706  0.9130  2.1028  0.2349
11812TIP3    H256928   2.804   6.022  12.784 -0.3022  1.3466  0.9501
11813TIP3   OH256929   0.898   5.032   0.730  0.3514  0.0583  0.6586
11813TIP3    H156930   0.963   4.964   0.749  0.6964  0.0809 -0.4143
11813TIP3    H256931   0.921   5.104   0.789 -0.4123 -0.9918  2.2550
11814TIP3   OH256932   2.701   4.104   4.948 -0.7410  0.0871  0.5659
11814TIP3    H156933   2.792   4.132   4.935 -0.4332 -1.2480 -0.2857
11814TIP3    H256934   2.660   4.116   4.862 -1.1958  0.0389  0.7751
11815TIP3   OH256935   6.640   2.219  15.726  0.1434  0.8022 -0.4717
11815TIP3    H156936   6.613   2.229  15.634 -0.3270  1.7727 -0.2305
11815TIP3    H256937   6.656   2.308  15.756  1.1072  0.4172  0.1501
11816TIP3   OH256938   1.055   4.826   5.464 -0.1671 -0.0506  0.0799
11816TIP3    H156939   1.135   4.852   5.419 -0.6651  1.4757  0.0716
11816TIP3    H256940   0.991   4.813   5.394 -0.1240 -0.6285  0.1389
11817TIP3   OH256941   2.008   4.036  11.149 -0.1017 -0.2615 -0.3615
11817TIP3    H156942   2.102   4.045  11.166  0.0249 -1.0757 -0.5984
11817TIP3    H256943   1.971   4.121  11.175  0.7317  0.1646 -0.5160
11818TIP3   OH256944   1.086   5.010   3.987 -0.3286 -0.0175 -0.7206
11818TIP3    H156945   1.065   4.921   4.016  0.9229 -0.1687 -0.2729
11818TIP3    H256946   1.064   5.010   3.894 -2.2701 -0.1845 -0.2807
11819TIP3   OH256947   0.423   2.973  13.739 -0.4250 -0.1525  0.1353
11819TIP3    H156948   0.440   2.983  13.832  0.2996 -3.6198  0.4323
11819TIP3    H256949   0.508   2.988  13.698  0.2022 -2.6917  0.4167
11820TIP3   OH256950   6.259   0.213   2.293  0.2138  0.2706 -0.7030
11820TIP3    H156951   6.190   0.273   2.267 -1.3855 -1.5314 -0.7611
11820TIP3    H256952   6.264   0.221   2.388  0.7899  1.2979 -0.8131
11821TIP3   OH256953   2.139   0.818  11.860 -0.0377  0.1641  0.1802
11821TIP3    H156954   2.138   0.884  11.790  0.6928 -0.9516 -0.9009
11821TIP3    H256955   2.232   0.800  11.874 -0.1989  0.1328  1.2017
11822TIP3   OH256956   6.519   2.785  11.910 -0.5907  0.2632  0.1503
11822TIP3    H156957   6.566   2.735  11.843  1.3942 -1.9191  3.0262
11822TIP3    H256958   6.449   2.727  11.939  0.7701 -0.3444  2.4044
11823TIP3   OH256959   2.931   3.802  13.574 -0.6407 -0.1068 -0.4410
11823TIP3    H156960   2.960   3.860  13.504 -2.3237 -2.0709 -2.8510
11823TIP3    H256961   2.841   3.829  13.592 -0.7298 -0.6138 -0.1143
11824TIP3   OH256962   1.962   5.856   2.563  0.7313  0.1858 -0.5901
11824TIP3    H156963   2.044   5.823   2.600 -0.6689 -2.1187  0.6174
11824TIP3    H256964   1.956   5.814   2.477 -0.5626 -2.0732  0.5381
11825TIP3   OH256965   3.028   5.145  16.259 -0.2676 -0.1156  0.3581
11825TIP3    H156966   3.036   5.120  16.351 -2.4806  0.1780  0.6450
11825TIP3    H256967   3.111   5.189  16.240 -0.4791  1.4102  2.7231
11826TIP3   OH256968   2.541   1.481   1.309  0.0599 -0.5087 -0.3279
11826TIP3    H156969   2.474   1.415   1.326 -1.0058  0.8223  0.7605
11826TIP3    H256970   2.579   1.500   1.395 -0.8025  1.4955 -0.3620
11827TIP3   OH256971   4.522   2.290   6.853  0.1762 -0.2201 -0.0169
11827TIP3    H156972   4.480   2.330   6.777 -0.6283  0.2623  0.6785
11827TIP3    H256973   4.489   2.200   6.854 -1.5677  0.4006  1.0344
11828TIP3   OH256974   1.803   0.021  16.833 -0.8956  0.2845  0.0592
11828TIP3    H156975   1.889  -0.010  16.861 -0.8223 -0.1045 -0.5792
11828TIP3    H256976   1.745  -0.053  16.847 -1.3919  0.9524  1.6838
11829TIP3   OH256977   5.118   5.450   0.285 -0.2689 -0.1669 -0.6922
11829TIP3    H156978   5.146   5.462   0.194  0.5896 -0.1746 -0.4360
11829TIP3    H256979   5.050   5.516   0.298 -2.0047 -1.6298 -2.0075
11830TIP3   OH256980   1.283   0.915   1.693 -0.5795 -0.5309  0.2902
11830TIP3    H156981   1.241   0.940   1.610 -0.0621 -2.9109 -0.7393
11830TIP3    H256982   1.372   0.890   1.668 -0.0863 -0.2377  1.7289
11831TIP3   OH256983   1.498   4.076   0.665  0.1393 -0.2945 -0.4464
11831TIP3    H156984   1.453   3.994   0.684  0.0470  0.4877  2.9290
11831TIP3    H256985   1.588   4.051   0.648  0.2453 -1.0646  1.1537
11832TIP3   OH256986   5.822   5.101  12.217  0.4419  0.0464 -0.0353
11832TIP3    H156987   5.820   5.087  12.312  0.9012 -0.5732 -0.1136
11832TIP3    H256988   5.787   5.020  12.180  0.8377  0.0484 -0.4182
11833TIP3   OH256989   1.746   4.539   3.161  0.1221 -0.2496 -0.0149
11833TIP3    H156990   1.703   4.594   3.095  0.6693 -0.2887 -0.4040
11833TIP3    H256991   1.812   4.490   3.113  1.3445  0.5938  0.7613
11834TIP3   OH256992   4.030   0.760   1.856 -0.2358  0.4723 -0.1264
11834TIP3    H156993   3.941   0.794   1.864  0.5517  2.5426  0.2348
11834TIP3    H256994   4.055   0.779   1.765  0.3365  1.2036  0.1764
11835TIP3   OH256995   5.803   4.287   6.559  0.6439  0.1207  0.2742
11835TIP3    H156996   5.810   4.382   6.548 -2.0874  0.2656 -0.5290
11835TIP3    H256997   5.894   4.257   6.561  1.5744  2.8081  1.2286
11836TIP3   OH256998   0.438   2.803  12.896  0.2834  0.0153 -0.2072
11836TIP3    H156999   0.441   2.828  12.988  1.8574  0.6349 -0.4182
11836TIP3    H257000   0.346   2.787  12.878  0.1871 -2.1931  2.0428
11837TIP3   OH257001   3.576   0.695  13.872  0.3756  0.7229 -0.1103
11837TIP3    H157002   3.483   0.690  13.847 -0.0054  3.4829  0.5901
11837TIP3    H257003   3.623   0.660  13.797 -1.2674 -1.7353 -0.0489
11838TIP3   OH257004   5.256   3.025   1.402 -0.1384  0.6155 -0.2375
11838TIP3    H157005   5.337   3.004   1.448 -0.9910  0.9092  1.4438
11838TIP3    H257006   5.242   2.951   1.343  1.1728  0.4078 -0.3068
11839TIP3   OH257007   4.822   5.288   5.352  0.1049 -0.2845  0.3250
11839TIP3    H157008   4.903   5.252   5.316 -0.1394  0.9230 -1.5069
11839TIP3    H257009   4.773   5.212   5.384  1.4600 -1.1241  0.4451
11840TIP3   OH257010   3.049   0.020  12.097 -0.2846 -0.1200  0.1029
11840TIP3    H157011   3.009   0.023  12.010 -1.5321  0.9653  0.6830
11840TIP3    H257012   3.081   0.109  12.111  3.3807 -1.2397 -0.7811
11841TIP3   OH257013   0.518   3.968   0.797 -0.1534 -0.6415  0.0950
11841TIP3    H157014   0.540   4.012   0.715 -2.1016 -0.1640 -0.1976
11841TIP3    H257015   0.596   3.980   0.852  0.5423  0.4593 -1.0971
11842TIP3   OH257016   2.049   5.822   3.859  0.1093  0.5110 -0.0604
11842TIP3    H157017   2.111   5.894   3.872  0.0556  0.1773  2.2353
11842TIP3    H257018   2.094   5.762   3.799  1.3807  1.0015  0.3866
11843TIP3   OH257019   5.065   0.635  16.227 -0.1737 -0.2735  0.0572
11843TIP3    H157020   4.989   0.617  16.283 -0.9415  2.2969 -0.0925
11843TIP3    H257021   5.077   0.555  16.176 -1.7815 -1.2860  1.2127
11844TIP3   OH257022   0.953   4.197  11.299  0.5140  0.1338  0.2635
11844TIP3    H157023   0.896   4.214  11.373  0.8305  0.2321  0.4862
11844TIP3    H257024   1.034   4.163  11.338  1.0413  1.1000  0.0433
11845TIP3   OH257025   3.333   0.663   4.586  0.1444  0.5327 -0.6340
11845TIP3    H157026   3.274   0.601   4.630  0.1704  0.9657  0.0130
11845TIP3    H257027   3.363   0.616   4.508 -0.3025 -0.0495 -0.4581
11846TIP3   OH257028   1.802   3.665  13.141  0.1564  0.2024 -0.3489
11846TIP3    H157029   1.807   3.622  13.226  0.1681 -0.0024 -0.4527
11846TIP3    H257030   1.883   3.715  13.134  0.0636  0.3783 -0.1522
11847TIP3   OH257031   6.308   3.071   1.762 -0.4155  0.5159  0.3187
11847TIP3    H157032   6.272   2.994   1.805 -0.9130  0.2037 -0.6421
11847TIP3    H257033   6.403   3.058   1.764 -0.5754 -1.3919 -2.1283
11848TIP3   OH257034   6.721   6.737  15.335  0.2405 -0.2479 -0.3623
11848TIP3    H157035   6.805   6.699  15.361  0.4864  0.6325  0.1902
11848TIP3    H257036   6.669   6.736  15.415  0.3320  0.7474 -0.2744
11849TIP3   OH257037   0.647   1.393   3.391 -0.3656 -0.2254 -0.1855
11849TIP3    H157038   0.577   1.453   3.418  0.6973  0.2375  1.6114
11849TIP3    H257039   0.611   1.306   3.410  0.0207  0.0630  1.9374
11850TIP3   OH257040   4.072   5.315  14.128  0.8221 -0.3793 -0.2948
11850TIP3    H157041   4.009   5.345  14.062  0.6083 -0.1563  0.0049
11850TIP3    H257042   4.080   5.221  14.114  0.8135 -0.3241 -0.6683
11851TIP3   OH257043   3.736   1.034  14.299 -0.9891  1.0694  0.0679
11851TIP3    H157044   3.735   0.958  14.240  2.1682  0.5922  0.5516
11851TIP3    H257045   3.666   1.017  14.362 -1.0378 -0.8938 -0.4964
11852TIP3   OH257046   4.160   3.987  14.950 -0.4144 -0.4901 -0.0685
11852TIP3    H157047   4.192   4.000  15.039 -0.3350  1.3281 -0.3519
11852TIP3    H257048   4.067   4.008  14.954 -0.1030  1.0565 -0.7200
11853TIP3   OH257049   2.397   1.739  11.631 -0.0110  0.1169 -0.1154
11853TIP3    H157050   2.323   1.723  11.688  0.0853  1.1891  0.3287
11853TIP3    H257051   2.418   1.654  11.593 -2.1602  0.0123 -1.1015
11854TIP3   OH257052   3.590   6.649   3.914  0.6365 -0.3122 -0.0136
11854TIP3    H157053   3.530   6.635   3.987  1.4285 -0.9645  0.5317
11854TIP3    H257054   3.535   6.683   3.844 -0.0953  0.5286  0.9573
11855TIP3   OH257055   0.741   4.488   4.204 -0.0259  0.5239  0.1333
11855TIP3    H157056   0.682   4.562   4.223 -0.2694  0.5467 -0.7102
11855TIP3    H257057   0.706   4.449   4.124  0.1226 -0.4927  0.5583
11856TIP3   OH257058   3.640   6.073  16.724 -0.2825  0.0140  0.0955
11856TIP3    H157059   3.724   6.116  16.738  0.7353 -2.4860  1.8248
11856TIP3    H257060   3.655   6.014  16.650 -0.4119 -0.7024  0.6381
11857TIP3   OH257061   2.907   1.238   4.821  0.2928  0.2257  0.2922
11857TIP3    H157062   2.871   1.170   4.764  0.6162 -0.9078  1.4172
11857TIP3    H257063   2.980   1.275   4.770  0.0443 -0.1859 -0.3732
11858TIP3   OH257064   4.579   2.990   2.624  0.4317  0.0247 -0.6906
11858TIP3    H157065   4.539   3.051   2.687 -1.3682 -0.5571 -1.2401
11858TIP3    H257066   4.673   3.006   2.631  0.0654  1.8692  0.1951
11859TIP3   OH257067   0.770   0.709   1.245 -0.1076  0.0101 -0.6320
11859TIP3    H157068   0.819   0.636   1.206 -1.3870 -0.6497 -1.0348
11859TIP3    H257069   0.707   0.667   1.303  0.4520  0.9075  0.6631
11860TIP3   OH257070   4.239   2.553  14.611  0.1798 -0.1663 -0.4995
11860TIP3    H157071   4.208   2.473  14.569 -0.9468  0.0912 -0.1863
11860TIP3    H257072   4.293   2.523  14.684  0.9287 -0.6260 -1.2403
11861TIP3   OH257073   0.441   6.377   4.727  0.2793 -0.3880  0.0178
11861TIP3    H157074   0.391   6.445   4.681 -0.0153 -0.6112  0.0052
11861TIP3    H257075   0.390   6.360   4.806  1.7496  1.3243  1.3719
11862TIP3   OH257076   2.019   4.257   0.294  0.3523  0.5611  0.4107
11862TIP3    H157077   2.096   4.215   0.256 -0.5115 -0.2253 -0.5435
11862TIP3    H257078   1.992   4.198   0.365 -1.5226 -1.2070 -1.6484
11863TIP3   OH257079   3.637   1.513  16.425  0.1196 -0.2547  0.4777
11863TIP3    H157080   3.726   1.484  16.446 -0.8168 -3.0849  0.7298
11863TIP3    H257081   3.617   1.580  16.491  1.6872 -0.3276  1.0360
11864TIP3   OH257082   2.297   1.235   5.029 -0.0964 -0.2697 -0.2720
11864TIP3    H157083   2.257   1.289   4.961 -1.1651 -0.9877 -0.2219
11864TIP3    H257084   2.361   1.292   5.071 -2.6061  1.5718  1.1270
11865TIP3   OH257085   6.412   0.128  12.336  0.0258 -0.3866 -0.4533
11865TIP3    H157086   6.494   0.078  12.337  0.5213  0.4053  1.8351
11865TIP3    H257087   6.382   0.126  12.427 -2.0343  0.1170 -1.0863
11866TIP3   OH257088   2.775   5.807   0.230 -0.3408  0.0052  0.2274
11866TIP3    H157089   2.788   5.749   0.305  1.1712  1.5960  1.2334
11866TIP3    H257090   2.784   5.895   0.266 -0.1448  0.7995 -1.7271
11867TIP3   OH257091   6.529   2.089  15.261  0.0530 -0.2112 -0.0632
11867TIP3    H157092   6.493   2.032  15.193  1.9885 -2.1384  0.4580
11867TIP3    H257093   6.537   2.032  15.337 -0.6675  1.5350  1.3622
11868TIP3   OH257094   1.189   0.841  13.030  0.6580  0.6110 -0.4383
11868TIP3    H157095   1.191   0.936  13.013 -0.3168  0.3712 -2.0824
11868TIP3    H257096   1.167   0.803  12.945 -0.8678 -0.9579  0.6334
11869TIP3   OH257097   1.373   1.918   0.611  0.3567  0.1057  0.2580
11869TIP3    H157098   1.280   1.896   0.615  0.5368 -0.3226  2.6846
11869TIP3    H257099   1.379   2.005   0.652  1.2725 -0.7283  1.9212
11870TIP3   OH257100   1.404   3.643  16.113 -0.5907 -0.4715  0.1314
11870TIP3    H157101   1.413   3.709  16.181  1.4385 -0.3681 -0.1983
11870TIP3    H257102   1.310   3.622  16.111 -0.9545  0.9687  1.5630
11871TIP3   OH257103   4.989   3.397  14.194  0.3400 -0.4211  0.1411
11871TIP3    H157104   4.932   3.470  14.219  0.1732 -0.2652 -0.6853
11871TIP3    H257105   4.960   3.324  14.248  0.5048  0.1172  0.9768
11872TIP3   OH257106   3.944   5.344   3.226  0.0873  0.0611  0.1502
11872TIP3    H157107   3.985   5.328   3.141 -1.5663 -0.0026 -0.6685
11872TIP3    H257108   3.893   5.424   3.213  0.9769  0.8835  1.5256
11873TIP3   OH257109   2.202   1.868  13.312 -0.6542 -0.3472 -0.8104
11873TIP3    H157110   2.247   1.864  13.397 -2.2532 -0.7953  0.0204
11873TIP3    H257111   2.195   1.777  13.285 -2.2748 -0.3862 -0.2880
11874TIP3   OH257112   1.738   6.265   4.650  0.3629 -0.6620  0.0123
11874TIP3    H157113   1.727   6.252   4.555  2.6585 -0.5783 -0.2931
11874TIP3    H257114   1.760   6.179   4.684 -2.5645 -1.1187  0.8254
11875TIP3   OH257115   6.132   6.166   1.300  0.0074  0.5834  0.1370
11875TIP3    H157116   6.096   6.099   1.241 -0.8965  1.1334  0.0654
11875TIP3    H257117   6.187   6.116   1.361 -1.4665 -0.3756  0.7308
11876TIP3   OH257118   6.451   5.804  11.036  0.4166 -0.1370 -0.0539
11876TIP3    H157119   6.448   5.816  10.941  0.6548 -1.9113 -0.3114
11876TIP3    H257120   6.411   5.883  11.072 -1.3049 -0.2417 -1.6840
11877TIP3   OH257121   4.308   4.150   5.947  0.1330 -0.0172  0.1734
11877TIP3    H157122   4.222   4.132   5.987 -1.1641 -0.1809 -2.5960
11877TIP3    H257123   4.309   4.245   5.933 -0.1859 -0.1831 -1.0409
11878TIP3   OH257124   3.702   0.929   5.393  0.1968  0.3218  0.1596
11878TIP3    H157125   3.728   0.851   5.343  0.3254 -2.0659  3.7178
11878TIP3    H257126   3.685   0.996   5.327 -0.6699 -2.9514 -3.0967
11879TIP3   OH257127   3.216   2.850   6.076 -1.0502  0.1589 -0.2528
11879TIP3    H157128   3.172   2.929   6.106  4.7032  3.1745  1.0602
11879TIP3    H257129   3.271   2.824   6.150  0.8774 -2.1299 -2.3973
11880TIP3   OH257130   5.232   2.459  10.773 -0.0441  0.0154  0.6680
11880TIP3    H157131   5.269   2.459  10.685 -1.2195  1.4115  0.1592
11880TIP3    H257132   5.211   2.551  10.791 -0.8428 -0.3984  1.9571
11881TIP3   OH257133   3.941   5.250   0.658  0.1195 -0.0353  0.0646
11881TIP3    H157134   3.949   5.344   0.674 -1.6184  0.2997 -0.9114
11881TIP3    H257135   3.916   5.214   0.743  1.0830  0.3418  0.5128
11882TIP3   OH257136   0.389   5.434  11.352  0.2415 -0.2627  0.1580
11882TIP3    H157137   0.375   5.493  11.425  1.0927  1.0399 -0.7214
11882TIP3    H257138   0.314   5.374  11.355  1.5075 -1.7659  3.5061
11883TIP3   OH257139   2.731   0.635   5.263 -0.2824  0.5084 -0.1785
11883TIP3    H157140   2.657   0.596   5.309 -0.1455  1.3954  0.8280
11883TIP3    H257141   2.799   0.644   5.330  0.4062  0.5636 -0.8727
11884TIP3   OH257142   4.513   2.171  12.868  0.4508  0.4474 -0.0666
11884TIP3    H157143   4.469   2.092  12.900  0.3035  0.2293 -0.8105
11884TIP3    H257144   4.491   2.238  12.933  0.7943 -0.1767  0.7186
11885TIP3   OH257145   4.869   3.436  12.188 -0.3802 -0.1168 -0.0435
11885TIP3    H157146   4.781   3.439  12.150 -0.1048  2.1091 -0.5584
11885TIP3    H257147   4.885   3.343  12.203 -3.3107 -0.4977  1.2172
11886TIP3   OH257148   4.315   4.867  15.071 -0.1681 -0.0100  0.7020
11886TIP3    H157149   4.402   4.831  15.091 -0.0910 -0.6310 -0.6654
11886TIP3    H257150   4.255   4.814  15.124 -0.0727 -2.3575 -1.4240
11887TIP3   OH257151   0.770   3.922  14.254  0.3528  0.2682  0.5939
11887TIP3    H157152   0.809   3.848  14.301  1.8600  0.2055 -0.7221
11887TIP3    H257153   0.821   3.998  14.283 -0.2906  0.5991  0.8751
11888TIP3   OH257154   2.940   2.369   4.060  0.3202  0.3064  0.0196
11888TIP3    H157155   3.019   2.329   4.095 -0.3753 -0.3001  0.9016
11888TIP3    H257156   2.963   2.462   4.051  1.2165  0.0896  0.0150
11889TIP3   OH257157   3.245   3.739  15.742  0.0245 -0.1218  0.0933
11889TIP3    H157158   3.257   3.812  15.681 -2.7454  1.0204  0.8085
11889TIP3    H257159   3.290   3.767  15.822  2.4533 -1.0150 -0.9094
11890TIP3   OH257160   5.828   4.728   1.489 -0.2160  0.0442 -0.6436
11890TIP3    H157161   5.816   4.818   1.460  1.3257 -0.1738 -2.0391
11890TIP3    H257162   5.916   4.727   1.528  0.1678 -1.0550 -1.5193
11891TIP3   OH257163   3.104   1.677   0.388  0.5479  0.3714  0.4306
11891TIP3    H157164   3.078   1.585   0.384  0.7564  0.3308 -0.0570
11891TIP3    H257165   3.036   1.723   0.338  0.4982  0.4662  0.5883
11892TIP3   OH257166   4.195   5.178   3.351  0.2869 -0.6337  0.3153
11892TIP3    H157167   4.197   5.273   3.336 -2.0629 -0.3339  1.5988
11892TIP3    H257168   4.140   5.144   3.281  0.8927 -1.0103  0.0256
11893TIP3   OH257169   0.226   2.966  12.507 -0.0586 -0.4846  0.4969
11893TIP3    H157170   0.216   3.005  12.594 -0.8720 -0.7273  0.5217
11893TIP3    H257171   0.255   3.038  12.451 -0.9794  0.0261  0.6673
11894TIP3   OH257172   0.194   1.175   1.818 -0.2699 -0.0645  0.5822
11894TIP3    H157173   0.217   1.110   1.752 -0.7339  0.2581  0.0987
11894TIP3    H257174   0.098   1.169   1.825 -0.4600  1.5206 -0.4712
11895TIP3   OH257175   3.269   1.833  17.052  0.0605  0.0419  0.1674
11895TIP3    H157176   3.278   1.767  16.983  2.4069 -0.4332  0.8985
11895TIP3    H257177   3.319   1.798  17.126 -1.7862  0.8943  1.8851
11896TIP3   OH257178   1.623   6.221  16.627  0.6175 -0.1806 -0.0688
11896TIP3    H157179   1.690   6.242  16.562 -0.7393 -1.0197 -1.7515
11896TIP3    H257180   1.621   6.125  16.630  0.8941 -0.1583  1.4674
11897TIP3   OH257181   4.769   4.434  11.785 -0.3364 -0.2470 -0.5568
11897TIP3    H157182   4.681   4.471  11.778 -0.4614 -0.0589  1.6763
11897TIP3    H257183   4.777   4.409  11.877  1.3420 -1.8006 -1.1060
11898TIP3   OH257184   0.295   4.494   2.118 -0.4618 -0.1715 -0.4903
11898TIP3    H157185   0.386   4.524   2.126 -0.7280  0.7633 -0.9388
11898TIP3    H257186   0.293   4.411   2.165  0.3459  0.3803  0.5369
11899TIP3   OH257187   1.259   4.859  14.814 -0.0390 -0.4607 -0.2123
11899TIP3    H157188   1.190   4.918  14.784  0.3361  0.4761  0.7428
11899TIP3    H257189   1.233   4.773  14.782 -1.3647 -0.0207 -0.3258
11900TIP3   OH257190   5.383   5.546   3.396 -0.1989  0.0975 -0.0490
11900TIP3    H157191   5.436   5.470   3.422  0.1953 -0.1911 -1.6603
11900TIP3    H257192   5.297   5.529   3.435  0.1881 -0.6667  0.4782
11901TIP3   OH257193   2.777   1.760   5.555 -0.3531  0.3268  0.0772
11901TIP3    H157194   2.831   1.710   5.616 -1.5206  0.0430  0.8863
11901TIP3    H257195   2.785   1.851   5.584  1.5007  0.6035 -1.1929
11902TIP3   OH257196   6.621   5.637   1.437  0.1238 -0.7823 -0.2446
11902TIP3    H157197   6.644   5.545   1.452  0.5566 -0.4009  1.4735
11902TIP3    H257198   6.704   5.678   1.414  0.0292 -0.7003 -0.4394
11903TIP3   OH257199   3.455   2.106  16.373 -0.4546  0.1938  0.0304
11903TIP3    H157200   3.478   2.041  16.440 -0.8521  0.3657  0.3418
11903TIP3    H257201   3.381   2.066  16.327  0.0905 -0.1057 -0.5828
11904TIP3   OH257202   2.258   0.383   3.597  0.1351 -0.0369 -0.4544
11904TIP3    H157203   2.187   0.415   3.653 -0.0824 -2.1453  0.5524
11904TIP3    H257204   2.213   0.331   3.530  0.7028 -1.7603  0.4546
11905TIP3   OH257205   1.646   3.393   2.673  0.0266 -0.4660 -0.1644
11905TIP3    H157206   1.572   3.373   2.731  0.5446 -1.1444  0.2653
11905TIP3    H257207   1.671   3.309   2.635  1.8768 -0.6035  1.2656
11906TIP3   OH257208   0.062   4.299  12.586 -0.0434  0.5602  0.0123
11906TIP3    H157209   0.062   4.271  12.494  0.1202 -0.9342  0.4445
11906TIP3    H257210   0.023   4.225  12.633 -0.8422  1.6289  1.0645
11907TIP3   OH257211   0.599   3.770  13.719 -0.6469  0.5327  0.1588
11907TIP3    H157212   0.690   3.786  13.744 -1.4424  2.4777  1.9649
11907TIP3    H257213   0.598   3.680  13.688  1.9741  0.6132 -0.2807
11908TIP3   OH257214   3.213   5.793   2.329 -0.0020  0.3620  0.0616
11908TIP3    H157215   3.217   5.778   2.423  0.6562  2.1697  0.3502
11908TIP3    H257216   3.303   5.776   2.298  0.0890  0.9930 -0.0318
11909TIP3   OH257217   4.316   4.256  14.877  0.2650  0.6677  0.2856
11909TIP3    H157218   4.254   4.183  14.875  0.0346  0.8713 -0.0296
11909TIP3    H257219   4.306   4.298  14.791  1.0141  0.5519  0.1360
11910TIP3   OH257220   3.295   4.149   3.443  0.3017 -0.5001 -0.0896
11910TIP3    H157221   3.367   4.211   3.442  0.6876 -0.9118  1.0323
11910TIP3    H257222   3.328   4.074   3.493 -0.4330 -1.2628 -0.7134
11911TIP3   OH257223   2.016   3.390  11.548 -0.0833 -0.0845  0.0454
11911TIP3    H157224   2.077   3.400  11.475 -0.4359  0.6757 -0.1513
11911TIP3    H257225   1.937   3.435  11.519 -0.5188 -0.5147  0.5555
11912TIP3   OH257226   6.111   2.971   0.390  0.3160  0.3810 -0.3023
11912TIP3    H157227   6.102   2.877   0.376 -2.0094  0.4828  0.2565
11912TIP3    H257228   6.063   2.988   0.472  1.5508  1.8949  0.1310
11913TIP3   OH257229   1.744   5.411  10.581  0.2459  0.6726 -0.2784
11913TIP3    H157230   1.828   5.453  10.559  1.2478 -1.2105 -0.1584
11913TIP3    H257231   1.769   5.339  10.639 -1.5931  0.8277  0.7315
11914TIP3   OH257232   3.456   5.338   2.441  0.5220  0.1784  0.2203
11914TIP3    H157233   3.389   5.360   2.506 -0.1842  0.0481 -0.4582
11914TIP3    H257234   3.527   5.299   2.492  0.4224  1.0407  1.0434
11915TIP3   OH257235   3.609   4.102  16.055  0.2271  0.3205 -0.0174
11915TIP3    H157236   3.678   4.112  16.121  0.2402  1.7310 -0.2328
11915TIP3    H257237   3.645   4.140  15.976 -0.5272  0.3860 -0.3337
11916TIP3   OH257238   5.564   0.318   1.966 -0.1260  0.2373  0.4640
11916TIP3    H157239   5.637   0.314   2.027 -2.0503  3.6820  3.1596
11916TIP3    H257240   5.506   0.247   1.994  2.2133 -2.8151 -1.9751
11917TIP3   OH257241   1.043   0.641  13.146 -0.0772  0.1473  0.8470
11917TIP3    H157242   1.087   0.617  13.227 -0.1655 -0.5815  0.6830
11917TIP3    H257243   1.110   0.688  13.096 -0.4887  1.9885  1.9802
11918TIP3   OH257244   2.843   3.854  13.067 -0.3059  0.3656  0.6346
11918TIP3    H157245   2.782   3.815  13.004 -0.6592 -2.8962  2.8165
11918TIP3    H257246   2.786   3.888  13.136  0.1600  2.1227  0.1681
11919TIP3   OH257247   3.612   5.175   5.183 -0.4180 -0.7331 -0.3949
11919TIP3    H157248   3.556   5.152   5.110 -0.7276 -0.4181 -0.2563
11919TIP3    H257249   3.561   5.238   5.234  0.5722  0.6056 -1.0011
11920TIP3   OH257250   3.212   6.597  16.728  0.2122 -0.1415  0.3775
11920TIP3    H157251   3.195   6.611  16.635  0.9464 -0.2417  0.2300
11920TIP3    H257252   3.202   6.503  16.741 -0.3193 -0.0720  0.4926
11921TIP3   OH257253   3.854   1.594  16.731  0.5541 -0.8781  0.1021
11921TIP3    H157254   3.825   1.503  16.738  1.3572 -1.4128 -3.0176
11921TIP3    H257255   3.949   1.589  16.742  0.4414 -0.2028  1.4773
11922TIP3   OH257256   4.662   2.123  17.122  0.1480  0.2137 -0.3463
11922TIP3    H157257   4.700   2.085  17.043  2.2609 -0.1386  0.7782
11922TIP3    H257258   4.576   2.083  17.129  0.8146 -1.4427 -1.2783
11923TIP3   OH257259   4.480   4.018   4.476 -0.5278  0.4268  0.0338
11923TIP3    H157260   4.428   4.070   4.415 -0.7013  0.3425  0.1115
11923TIP3    H257261   4.571   4.033   4.448 -0.4876  1.8426  0.8834
11924TIP3   OH257262   3.261   4.446   4.746  0.1731  0.1810  0.5115
11924TIP3    H157263   3.247   4.445   4.651 -1.8938  3.4159  0.6892
11924TIP3    H257264   3.183   4.404   4.782  1.4094 -1.9448  0.7952
11925TIP3   OH257265   3.707   1.546  15.827  0.2662  0.6306 -0.2140
11925TIP3    H157266   3.780   1.487  15.846 -0.9723 -1.3384 -1.4234
11925TIP3    H257267   3.745   1.616  15.775  1.7593  0.9211  1.2283
11926TIP3   OH257268   1.351   1.273  14.545 -0.5373  0.1249  0.2709
11926TIP3    H157269   1.352   1.242  14.636 -2.7757  0.3339  0.3893
11926TIP3    H257270   1.365   1.194  14.493  0.6545 -0.0142  0.7691
11927TIP3   OH257271   3.340   4.426   4.016  0.1549 -0.3501 -0.6395
11927TIP3    H157272   3.395   4.470   4.081 -1.8104  0.6246  0.4152
11927TIP3    H257273   3.267   4.392   4.066 -1.1402 -0.0184 -2.2712
11928TIP3   OH257274   4.718   2.522  12.778 -0.0210 -0.2972 -0.0627
11928TIP3    H157275   4.807   2.506  12.812  0.4279  0.6751 -0.7771
11928TIP3    H257276   4.669   2.444  12.805  0.8633 -0.5144  0.9755
11929TIP3   OH257277   3.200   1.788  14.815 -0.0559  0.2192  0.1543
11929TIP3    H157278   3.238   1.820  14.897 -1.2680 -0.5833  1.0461
11929TIP3    H257279   3.261   1.818  14.747  3.1524 -2.5378  1.6655
11930TIP3   OH257280   4.515   5.804   2.681  0.6088  0.4456  0.1255
11930TIP3    H157281   4.552   5.887   2.651  1.6065  0.6570  1.9177
11930TIP3    H257282   4.459   5.828   2.755 -0.0354 -0.3341 -0.1067
11931TIP3   OH257283   4.205   5.572   1.983  0.5141  0.2852 -1.3584
11931TIP3    H157284   4.147   5.520   1.928 -1.4856  0.2223  0.7154
11931TIP3    H257285   4.240   5.510   2.046 -0.6398  1.0985  0.1280
11932TIP3   OH257286   5.873   0.962   2.383 -0.2400  0.4696  0.3290
11932TIP3    H157287   5.895   1.054   2.374 -3.0789  1.3064  1.3646
11932TIP3    H257288   5.892   0.942   2.475 -0.1173  0.1890  0.2417
11933TIP3   OH257289   2.084   2.697  16.378 -0.5500  0.1501 -1.0208
11933TIP3    H157290   1.992   2.693  16.404  0.2094 -0.4154  1.8223
11933TIP3    H257291   2.097   2.620  16.323 -1.7449  0.1632 -1.3285
11934TIP3   OH257292   4.696   3.690   4.241  0.3070 -0.0746 -0.3505
11934TIP3    H157293   4.680   3.686   4.146  0.6794 -2.8282 -0.3383
11934TIP3    H257294   4.610   3.707   4.279  0.1335  0.9334 -1.1652
11935TIP3   OH257295   1.199   4.591   0.324 -0.0200 -0.0936 -0.2771
11935TIP3    H157296   1.175   4.637   0.405  2.9270  3.1101 -1.1275
11935TIP3    H257297   1.271   4.534   0.351 -1.9815 -2.4464  0.2167
11936TIP3   OH257298   5.424   6.713   2.363  0.5242  0.1229 -0.3405
11936TIP3    H157299   5.483   6.788   2.356  2.3735 -1.2218  0.2867
11936TIP3    H257300   5.383   6.723   2.449  0.5244  0.5864 -0.3936
11937TIP3   OH257301   4.255   4.505  14.080 -0.1442  0.6879 -0.0099
11937TIP3    H157302   4.332   4.447  14.076 -1.3019 -0.7997 -0.9172
11937TIP3    H257303   4.206   4.473  14.156  0.6772  2.3361  1.2252
11938TIP3   OH257304   4.262   4.648   6.348 -0.2507  0.5437  0.1018
11938TIP3    H157305   4.322   4.669   6.420 -2.1193 -0.0117  1.8876
11938TIP3    H257306   4.235   4.557   6.366  0.5098 -0.1769 -2.2297
11939TIP3   OH257307   4.674   3.301  13.436  0.2764 -0.1869 -0.1853
11939TIP3    H157308   4.656   3.381  13.485 -0.4019 -0.0096 -0.7060
11939TIP3    H257309   4.677   3.329  13.345  1.4382 -0.5304 -0.2637
11940TIP3   OH257310   2.772   5.902  14.547  0.0941 -0.5034 -0.0361
11940TIP3    H157311   2.804   5.833  14.489  0.2592 -1.7223  1.4769
11940TIP3    H257312   2.844   5.965  14.553  1.0447 -1.6504  0.8449
11941TIP3   OH257313   3.840   3.157   4.292  0.2446  0.1539 -0.0804
11941TIP3    H157314   3.754   3.181   4.327  0.5535  1.2762 -0.0824
11941TIP3    H257315   3.887   3.240   4.284  1.3659 -0.4637  0.0106
11942TIP3   OH257316   3.087   1.911   4.972  0.1163  0.4103  0.7111
11942TIP3    H157317   3.034   1.875   4.901  1.0100 -2.3157  1.3772
11942TIP3    H257318   3.044   1.881   5.052  1.1030  0.5118  1.2856
11943TIP3   OH257319   0.545   5.042  16.328  0.4135 -0.6090 -0.2823
11943TIP3    H157320   0.568   5.132  16.348 -0.2684 -0.2023 -1.2803
11943TIP3    H257321   0.627   4.993  16.333  0.6121 -0.1554  1.3648
11944TIP3   OH257322   6.531   6.268  16.039  0.0674 -0.8976 -0.5523
11944TIP3    H157323   6.484   6.347  16.066  1.7426  0.7078 -2.2184
11944TIP3    H257324   6.576   6.238  16.118  1.8820  1.5820 -0.5986
11945TIP3   OH257325   1.070   0.622  14.005  0.1805 -0.2952  0.1355
11945TIP3    H157326   1.148   0.631  13.950  0.8279 -2.2902  0.6929
11945TIP3    H257327   1.089   0.674  14.083  0.8097 -0.5029  0.1207
11946TIP3   OH257328   4.477   2.388  17.152 -0.2113 -0.2584  0.6293
11946TIP3    H157329   4.446   2.407  17.063 -1.5681 -0.1171  1.1318
11946TIP3    H257330   4.500   2.295  17.149  1.4085  0.1574 -0.3491
11947TIP3   OH257331   0.247   4.629   4.556 -0.2226  0.2333 -0.0526
11947TIP3    H157332   0.227   4.544   4.597 -0.4501  0.0485 -0.5459
11947TIP3    H257333   0.312   4.668   4.614  1.8645 -1.4087 -1.2058
11948TIP3   OH257334   3.076   2.170   1.308  1.1251 -0.6298  0.5699
11948TIP3    H157335   3.044   2.156   1.397  0.7291 -0.4255  0.4606
11948TIP3    H257336   3.133   2.095   1.291 -0.0398 -1.5124  0.4273
11949TIP3   OH257337   0.246   4.948  15.178 -0.3806 -0.4803 -0.0590
11949TIP3    H157338   0.154   4.970  15.194  0.1213  1.6291  0.0876
11949TIP3    H257339   0.271   5.004  15.105  0.2973 -2.3845 -1.3249
11950TIP3   OH257340   3.344   0.019  12.636  0.5044 -0.0623  0.0744
11950TIP3    H157341   3.257  -0.021  12.633  0.2388  0.4731  0.5633
11950TIP3    H257342   3.327   0.112  12.648  1.1929 -0.1766  1.9591
11951TIP3   OH257343   6.560   4.735   5.745 -0.1119  0.3226  0.3771
11951TIP3    H157344   6.519   4.726   5.660 -0.7187 -0.6146  0.7678
11951TIP3    H257345   6.534   4.823   5.775  0.3845  0.7892 -0.5345
11952TIP3   OH257346   6.187   5.440  11.114 -0.0533 -0.2185  0.2697
11952TIP3    H157347   6.202   5.469  11.023 -2.9890  0.5845  0.0113
11952TIP3    H257348   6.176   5.521  11.163 -1.9515 -0.7343  0.7103
11953TIP3   OH257349   6.643   1.158  15.218 -0.8482 -0.2258 -0.3393
11953TIP3    H157350   6.634   1.251  15.239  2.0760  0.2592 -0.9534
11953TIP3    H257351   6.736   1.140  15.233 -1.6571 -3.4165  1.1781
11954TIP3   OH257352   5.256   2.076   2.644 -0.2257  0.6551 -0.1141
11954TIP3    H157353   5.314   2.018   2.693 -0.2826  0.4104 -0.3334
11954TIP3    H257354   5.240   2.150   2.703  1.9381  1.7262 -0.8101
11955TIP3   OH257355   3.535   5.114  15.320 -0.0734 -0.0218 -0.0652
11955TIP3    H157356   3.507   5.115  15.228 -0.7728 -0.5479  0.1380
11955TIP3    H257357   3.518   5.024  15.349 -0.0098  0.1882  0.6257
11956TIP3   OH257358   6.753   2.161  11.722  0.4405  0.3943 -1.0657
11956TIP3    H157359   6.774   2.234  11.664 -1.7234  0.3221 -1.9998
11956TIP3    H257360   6.669   2.185  11.761 -0.7922 -2.0262 -2.1322
11957TIP3   OH257361   2.460   4.341  12.823 -0.2448  0.1858  0.2787
11957TIP3    H157362   2.473   4.374  12.734  0.0646  1.8486  0.9283
11957TIP3    H257363   2.456   4.246  12.813  2.1178  0.2054 -1.2499
11958TIP3   OH257364   2.860   5.107   4.845  0.3511 -0.0022 -0.1919
11958TIP3    H157365   2.841   5.124   4.753 -0.2848 -0.8002 -0.2116
11958TIP3    H257366   2.794   5.157   4.893  2.3352  2.6186 -0.0760
11959TIP3   OH257367   6.680   4.070  15.889 -0.3593  0.4725 -0.4028
11959TIP3    H157368   6.697   4.046  15.980  0.0871  2.9601  0.2126
11959TIP3    H257369   6.754   4.034  15.840 -0.4479 -0.6184  0.2570
11960TIP3   OH257370   1.366   1.969  16.191 -0.2049  0.8618 -0.0378
11960TIP3    H157371   1.354   2.064  16.187 -0.4889  0.9343  2.0818
11960TIP3    H257372   1.363   1.948  16.284  1.1149 -1.0851 -0.4123
11961TIP3   OH257373   2.074   4.402  11.645 -0.2114 -0.1104  0.4561
11961TIP3    H157374   2.009   4.354  11.594 -0.4230 -0.6880  1.2603
11961TIP3    H257375   2.031   4.485  11.668  0.5244  0.9371 -1.8201
11962TIP3   OH257376   4.639   0.269   3.350 -0.7242 -0.6680 -0.1948
11962TIP3    H157377   4.562   0.276   3.406 -1.3425  1.9614 -1.3052
11962TIP3    H257378   4.679   0.356   3.351  0.3908 -1.1029 -2.2031
11963TIP3   OH257379   1.379   1.324  17.026  0.0203 -0.4473 -0.1610
11963TIP3    H157380   1.407   1.411  16.997 -1.8162  0.4768  0.7623
11963TIP3    H257381   1.449   1.266  16.997  2.3916  1.6477  1.1528
11964TIP3   OH257382   3.022   1.192  12.963 -0.5264 -0.1892 -0.5886
11964TIP3    H157383   2.934   1.174  12.931 -0.3661 -2.9447  0.4013
11964TIP3    H257384   3.080   1.161  12.893 -0.2557 -3.1783  0.9114
11965TIP3   OH257385   1.911   2.384  14.121 -0.3641 -0.0907  0.3241
11965TIP3    H157386   1.844   2.319  14.144  0.4770 -0.3875  2.0673
11965TIP3    H257387   1.862   2.460  14.091 -1.3853 -1.3546 -1.3114
11966TIP3   OH257388   4.345   3.419   1.441  0.1309 -0.1795  0.0340
11966TIP3    H157389   4.317   3.454   1.526  1.7860  0.5626  0.2817
11966TIP3    H257390   4.282   3.349   1.422  1.1675 -1.9718  2.9978
11967TIP3   OH257391   2.879   6.483  13.007  0.1093  0.2729 -0.1904
11967TIP3    H157392   2.876   6.570  13.048  0.5796  0.0479  0.3159
11967TIP3    H257393   2.942   6.493  12.936  1.3100 -0.0609  0.8167
11968TIP3   OH257394   4.759   3.734   5.933  0.5252 -0.5606 -0.1079
11968TIP3    H157395   4.771   3.736   6.027  0.4535 -0.0339 -0.1084
11968TIP3    H257396   4.679   3.785   5.918  0.4351 -0.7979 -0.4312
11969TIP3   OH257397   0.551   0.570  17.257  0.4010 -0.5091  0.3585
11969TIP3    H157398   0.497   0.491  17.265  0.2608 -0.5191 -0.6438
11969TIP3    H257399   0.633   0.548  17.300  0.6590 -1.4839 -0.6137
11970TIP3   OH257400   6.320   6.391   5.507 -0.5329  0.2190  0.2208
11970TIP3    H157401   6.329   6.306   5.549 -0.2284  0.1582  0.0325
11970TIP3    H257402   6.401   6.402   5.457 -0.2540  0.9407  0.8171
11971TIP3   OH257403   1.045   2.355   4.722 -0.2598 -0.4231 -0.6691
11971TIP3    H157404   0.963   2.305   4.718 -0.4156 -0.2357  0.1148
11971TIP3    H257405   1.023   2.439   4.680 -0.6782 -0.0961  0.1919
11972TIP3   OH257406   1.439   1.295   5.138  0.1578  0.4106 -0.0542
11972TIP3    H157407   1.443   1.207   5.101 -1.0641  0.2742  0.1070
11972TIP3    H257408   1.402   1.282   5.226  1.3518  0.9262  0.5313
11973TIP3   OH257409   4.917   0.455   0.773 -0.6806  0.2304  0.5539
11973TIP3    H157410   4.975   0.380   0.792 -2.3964 -1.0814  0.7277
11973TIP3    H257411   4.880   0.478   0.858  0.4730  1.8539  0.6443
11974TIP3   OH257412   6.687   5.117   6.671 -0.2221  0.6332  0.3317
11974TIP3    H157413   6.716   5.202   6.635 -2.0988  1.3339  0.4368
11974TIP3    H257414   6.612   5.139   6.726 -1.4521 -1.2398 -0.5609
11975TIP3   OH257415   6.330   1.258  12.409 -0.0242  0.6791  0.0678
11975TIP3    H157416   6.382   1.337  12.425  0.8514  0.2553 -0.6406
11975TIP3    H257417   6.395   1.191  12.389 -0.7161 -0.4152  1.4462
11976TIP3   OH257418   2.552   4.084  13.095 -0.2163  0.4008  0.8550
11976TIP3    H157419   2.553   4.063  13.002  0.1682 -1.4883  1.2709
11976TIP3    H257420   2.486   4.153  13.103 -0.8697 -0.0301 -0.6949
11977TIP3   OH257421   1.404   1.921   3.255 -0.4732  0.4216 -0.3525
11977TIP3    H157422   1.479   1.924   3.196 -1.2806 -1.6896 -1.5616
11977TIP3    H257423   1.329   1.906   3.197 -1.5679  0.5908  1.0025
11978TIP3   OH257424   5.411   2.664   4.897 -0.2434 -0.2015  0.0168
11978TIP3    H157425   5.462   2.626   4.969 -0.2889 -0.9458 -0.3362
11978TIP3    H257426   5.467   2.733   4.861  0.5885 -1.1109 -0.4590
11979TIP3   OH257427   2.571   1.293  10.923 -0.0478  0.1034 -0.8516
11979TIP3    H157428   2.572   1.307  10.828  1.4493 -1.6142 -1.1253
11979TIP3    H257429   2.556   1.199  10.933  0.9540  0.0724  0.5798
11980TIP3   OH257430   2.853   4.992  16.738 -0.1172 -0.3104 -0.0658
11980TIP3    H157431   2.909   5.039  16.799  1.0077  2.3553 -3.0505
11980TIP3    H257432   2.905   4.917  16.710  1.0810  0.8859 -1.0719
11981TIP3   OH257433   2.617   0.778   3.157  0.0410 -0.0344  0.0249
11981TIP3    H157434   2.707   0.761   3.130  0.0460 -2.0703  1.2495
11981TIP3    H257435   2.590   0.853   3.103  2.4386  0.6032 -0.3560
11982TIP3   OH257436   1.836   4.734   5.940 -0.1617  0.3808 -0.5719
11982TIP3    H157437   1.750   4.726   5.900  0.3272  0.2274 -1.6045
11982TIP3    H257438   1.840   4.660   6.002 -0.3864 -0.1934 -1.2401
11983TIP3   OH257439   1.722   1.901   5.159  0.9353  0.8823 -0.0495
11983TIP3    H157440   1.666   1.961   5.209 -0.0166  0.3836 -0.5014
11983TIP3    H257441   1.666   1.871   5.086  0.9461 -1.5654  0.8997
11984TIP3   OH257442   4.730   0.100  15.041 -0.1822  0.0703 -0.2119
11984TIP3    H157443   4.781   0.027  15.006 -0.7690 -0.8074  0.7301
11984TIP3    H257444   4.684   0.063  15.116 -2.1030  0.8802 -0.9706
11985TIP3   OH257445   6.673   0.251  11.391 -0.1821 -0.0058 -0.3961
11985TIP3    H157446   6.767   0.239  11.406 -0.2283 -0.9007 -0.7676
11985TIP3    H257447   6.666   0.281  11.301 -0.2358  0.2701 -0.2985
11986TIP3   OH257448   2.340   5.818  10.197 -0.1510  0.0648 -0.7416
11986TIP3    H157449   2.390   5.777  10.126 -0.1854 -1.5037  0.1153
11986TIP3    H257450   2.404   5.875  10.240  0.3177 -0.2451 -1.0110
11987TIP3   OH257451   0.052   1.881  16.742  0.2999  0.8683  0.4078
11987TIP3    H157452   0.008   1.910  16.662 -0.1848 -0.7161  0.0822
11987TIP3    H257453  -0.017   1.877  16.808  0.0398 -1.0034  0.0564
11988TIP3   OH257454   2.734   2.700   0.333  0.0774  0.1615 -0.4111
11988TIP3    H157455   2.772   2.750   0.406 -1.0079  1.4117 -0.6918
11988TIP3    H257456   2.660   2.653   0.372  1.4815 -1.7681 -0.0069
11989TIP3   OH257457   2.688   2.434  13.449  0.7496  0.4347 -0.2132
11989TIP3    H157458   2.655   2.508  13.500  0.3168  0.1081 -0.0245
11989TIP3    H257459   2.676   2.461  13.357  0.6117  0.6014 -0.1462
11990TIP3   OH257460   4.109   0.977  13.350  0.4503  0.2060  0.1884
11990TIP3    H157461   4.049   0.957  13.422 -0.2437 -2.4936 -1.0756
11990TIP3    H257462   4.185   1.016  13.393 -0.9999  1.0434  2.1097
11991TIP3   OH257463   0.446   0.366   2.127  0.8011  0.8536 -0.1437
11991TIP3    H157464   0.393   0.378   2.205  1.3266  0.8035  0.2242
11991TIP3    H257465   0.468   0.273   2.126  0.1844  0.7136 -0.7494
11992TIP3   OH257466   6.117   0.821  13.054  0.5050  0.2278  0.5401
11992TIP3    H157467   6.188   0.801  13.114  0.2561 -0.8943  0.4736
11992TIP3    H257468   6.145   0.901  13.010  1.7345 -0.2042  0.5074
11993TIP3   OH257469   6.459   4.731  14.982 -0.0039  0.1170 -0.0291
11993TIP3    H157470   6.393   4.723  15.051 -0.3682  1.4216 -0.1993
11993TIP3    H257471   6.454   4.823  14.955  0.2784 -0.3229 -1.6548
11994TIP3   OH257472   2.469   5.619  13.374  0.0003 -0.1328 -0.3020
11994TIP3    H157473   2.504   5.580  13.454  1.1427  2.4676  0.5305
11994TIP3    H257474   2.377   5.635  13.394  0.1327 -0.0710  0.2665
11995TIP3   OH257475   2.806   6.739   3.621  0.5083 -0.9468 -0.8359
11995TIP3    H157476   2.741   6.763   3.554  1.0205 -0.7317 -1.2583
11995TIP3    H257477   2.754   6.699   3.691 -0.2756  0.7260 -0.4326
11996TIP3   OH257478   4.552   2.224  13.970 -0.0606 -0.0863 -0.1499
11996TIP3    H157479   4.635   2.264  13.944 -0.9450  2.8386  1.3637
11996TIP3    H257480   4.496   2.233  13.893  0.8339 -1.6116 -1.0031
11997TIP3   OH257481   2.322   2.444   5.835 -0.3741  0.0236 -0.5735
11997TIP3    H157482   2.390   2.382   5.861 -1.6073 -0.4703  1.6103
11997TIP3    H257483   2.248   2.390   5.810 -1.0768  0.5917  0.2415
11998TIP3   OH257484   5.633   6.258  12.627 -0.0434 -0.0757 -0.4750
11998TIP3    H157485   5.557   6.310  12.656  0.1933 -0.2493  0.4901
11998TIP3    H257486   5.652   6.290  12.539  0.7333  2.2229  0.4674
11999TIP3   OH257487   2.361   0.606  14.365 -0.0469 -0.1594  0.8432
11999TIP3    H157488   2.394   0.553  14.438 -3.5233 -4.5783 -0.6018
11999TIP3    H257489   2.292   0.659  14.404 -2.0439 -2.6654  0.8513
12000TIP3   OH257490   5.132   2.627   5.125  0.4045  0.2619  0.9480
12000TIP3    H157491   5.121   2.669   5.210 -1.9833 -1.4404  1.5381
12000TIP3    H257492   5.111   2.696   5.061  0.1097  0.9639  1.8005
12001TIP3   OH257493   3.040   3.846   0.710  0.0894  0.3471 -0.2079
12001TIP3    H157494   2.979   3.914   0.738  0.1712  0.7593 -0.9940
12001TIP3    H257495   3.047   3.858   0.615  0.0043 -0.8489 -0.3741
12002TIP3   OH257496   6.661   1.596   2.691 -0.0684 -0.0718 -0.2132
12002TIP3    H157497   6.713   1.633   2.762 -0.1196 -0.2307 -0.0921
12002TIP3    H257498   6.714   1.525   2.656  0.8169  1.2734 -1.6413
12003TIP3   OH257499   1.856   5.293   2.272  0.4957 -0.1212 -0.4123
12003TIP3    H157500   1.824   5.351   2.341  0.0475  1.5756 -2.0085
12003TIP3    H257501   1.950   5.312   2.265  0.4877 -0.0944 -0.4487
12004TIP3   OH257502   1.063   1.396  15.725  0.1078  0.2589  0.0695
12004TIP3    H157503   1.058   1.399  15.821 -0.5962  0.6128  0.0275
12004TIP3    H257504   1.009   1.469  15.696  1.3602  0.9449 -0.5832
12005TIP3   OH257505   2.132   3.710  14.531 -0.5358 -0.2019  0.9104
12005TIP3    H157506   2.196   3.773  14.498 -0.9537 -0.8651 -1.2435
12005TIP3    H257507   2.115   3.738  14.621  1.0512  1.3385  0.7568
12006TIP3   OH257508   5.343   3.374  13.603 -0.0004  1.1413  0.1885
12006TIP3    H157509   5.265   3.399  13.553  0.7052  1.7116 -0.6518
12006TIP3    H257510   5.416   3.393  13.544  0.6743 -1.2346  0.2341
12007TIP3   OH257511   3.199   1.297   0.821  0.6617 -0.0036  0.0827
12007TIP3    H157512   3.107   1.318   0.840  0.1331 -1.5869 -0.6266
12007TIP3    H257513   3.246   1.378   0.839 -0.8817  0.8440  0.4261
12008TIP3   OH257514   1.876   3.167  15.177 -0.1846  0.4561 -0.4840
12008TIP3    H157515   1.792   3.133  15.208  0.9015 -0.9220  1.0520
12008TIP3    H257516   1.892   3.245  15.231  0.7080 -0.7416  1.0190
12009TIP3   OH257517   5.217   3.850   0.262 -0.0153  0.3506  0.5747
12009TIP3    H157518   5.295   3.880   0.216 -1.3465  0.3381 -1.7579
12009TIP3    H257519   5.196   3.921   0.323  0.8177  1.1305 -0.0395
12010TIP3   OH257520   1.859   6.554  10.464  0.1777  0.2859  0.0050
12010TIP3    H157521   1.902   6.626  10.509 -2.0822  0.7527  1.5085
12010TIP3    H257522   1.866   6.480  10.525 -1.5475  0.5127  0.5193
12011TIP3   OH257523   0.642   3.907   4.956 -0.2675  0.0146 -0.0965
12011TIP3    H157524   0.550   3.880   4.957  0.3853 -2.3662 -0.9784
12011TIP3    H257525   0.660   3.926   4.864  0.2889 -0.1341 -0.0203
12012TIP3   OH257526   0.852   5.181  11.763 -0.2753  0.0066  0.5877
12012TIP3    H157527   0.760   5.186  11.786 -0.0867  1.7597  1.0011
12012TIP3    H257528   0.893   5.252  11.812  1.6256 -1.9363  1.9512
12013TIP3   OH257529   5.361   4.186  12.092 -0.1559 -0.1583  1.0749
12013TIP3    H157530   5.355   4.155  12.001 -1.0787  2.8715  0.0121
12013TIP3    H257531   5.438   4.242  12.093  1.4091 -2.2878  2.9005
12014TIP3   OH257532   2.562   0.519   4.388  0.4589 -0.1026  0.1969
12014TIP3    H157533   2.655   0.500   4.374  0.0733 -2.5027  0.6808
12014TIP3    H257534   2.516   0.445   4.349 -1.3440  1.7302 -1.2433
12015TIP3   OH257535   3.396   6.448   3.470 -0.1125  0.0704  0.1260
12015TIP3    H157536   3.400   6.392   3.548  1.7910  0.7735  0.5654
12015TIP3    H257537   3.482   6.439   3.430  0.0922  2.3292 -0.0171
12016TIP3   OH257538   5.891   3.002   5.281 -0.2481 -0.1088  0.1983
12016TIP3    H157539   5.905   2.918   5.325 -1.7634  0.2064  1.3254
12016TIP3    H257540   5.805   2.993   5.240 -0.1054  0.6432 -0.2597
12017TIP3   OH257541   1.113   0.560   1.536  0.1039 -0.2057  0.1972
12017TIP3    H157542   1.105   0.495   1.606  1.7968  0.4464  1.0332
12017TIP3    H257543   1.207   0.570   1.524 -0.1344  2.1250  0.1267
12018TIP3   OH257544   2.044   3.559  13.968 -0.2911 -0.3355  0.3432
12018TIP3    H157545   2.088   3.511  14.038 -1.0087 -1.1871  0.2212
12018TIP3    H257546   1.985   3.619  14.013 -0.9999 -1.1227  0.4697
12019TIP3   OH257547   1.952   5.860   2.142  0.3850 -0.4637 -0.4605
12019TIP3    H157548   1.928   5.909   2.063 -0.4955  1.6938  1.0921
12019TIP3    H257549   2.046   5.876   2.152  0.1292  0.8193 -0.0390
12020TIP3   OH257550   2.622   5.816  11.275 -0.2845  0.0624 -0.0098
12020TIP3    H157551   2.645   5.763  11.199 -0.5245 -1.4299  0.9416
12020TIP3    H257552   2.546   5.771  11.314 -0.1735  0.8132  1.0960
12021TIP3   OH257553   1.271   3.836  15.528  0.2382  0.3207  0.2876
12021TIP3    H157554   1.335   3.818  15.597 -1.7377 -1.0189  1.8542
12021TIP3    H257555   1.205   3.768  15.539 -0.2015  0.1853 -2.8826
12022TIP3   OH257556   6.523   2.477   2.287  0.6338  0.3635 -0.0440
12022TIP3    H157557   6.482   2.508   2.206  1.5421 -0.6302 -0.8966
12022TIP3    H257558   6.468   2.404   2.316  1.7254 -0.9233 -1.1485
12023TIP3   OH257559   0.441   1.433  16.668 -0.0922  0.4828 -0.4791
12023TIP3    H157560   0.408   1.380  16.595 -0.2621 -1.6883  1.1130
12023TIP3    H257561   0.365   1.445  16.725  0.9504 -1.4504  1.4034
12024TIP3   OH257562   6.497   5.952  15.600  0.6750  0.3010 -0.0109
12024TIP3    H157563   6.428   5.948  15.666  2.2216  0.2056  1.6371
12024TIP3    H257564   6.523   6.044  15.598 -0.2430  0.5360 -1.4220
12025TIP3   OH257565   2.806   6.210   2.341  0.1457 -0.1299  0.1126
12025TIP3    H157566   2.856   6.267   2.400  0.4685  0.4631 -0.7354
12025TIP3    H257567   2.770   6.269   2.275 -0.0543 -0.8200 -0.3988
12026TIP3   OH257568   4.391   6.559  12.554 -0.3437  0.2154  0.0874
12026TIP3    H157569   4.453   6.564  12.481 -0.9925  0.3676 -0.4500
12026TIP3    H257570   4.443   6.585  12.631 -0.0881  1.6032 -0.5541
12027TIP3   OH257571   1.348   0.514   2.360 -0.3538  0.9328 -0.1070
12027TIP3    H157572   1.283   0.583   2.365  0.6823  1.9769 -0.9234
12027TIP3    H257573   1.369   0.507   2.267 -1.2954 -1.2758 -0.1812
12028TIP3   OH257574   5.157   5.858  12.826 -0.3667 -0.0215  0.3517
12028TIP3    H157575   5.088   5.849  12.760  0.2496  0.6623 -0.3980
12028TIP3    H257576   5.234   5.818  12.786 -0.0394  0.2186  0.7394
12029TIP3   OH257577   5.168   1.093   1.742 -0.0689  0.5347  0.2743
12029TIP3    H157578   5.129   1.155   1.804 -0.3860  0.6626 -0.0447
12029TIP3    H257579   5.106   1.092   1.669 -0.7876 -1.2464  0.8867
12030TIP3   OH257580   2.531   4.115  13.390 -0.0799 -0.4054  0.0648
12030TIP3    H157581   2.440   4.139  13.371  0.6957  1.3088 -1.5973
12030TIP3    H257582   2.562   4.074  13.310  0.5997 -1.0513  0.6575
12031TIP3   OH257583   4.600   6.685  11.656 -0.2351 -1.5662  0.2873
12031TIP3    H157584   4.512   6.683  11.618 -0.2583 -2.8248  0.3959
12031TIP3    H257585   4.599   6.617  11.724  0.3770 -0.6064  1.2844
12032TIP3   OH257586   3.407   4.391  16.913  0.4127  0.0352  0.1640
12032TIP3    H157587   3.397   4.343  16.830  0.5604 -2.6083  1.6051
12032TIP3    H257588   3.466   4.336  16.965  0.4185  1.7128  1.9756
12033TIP3   OH257589   2.774   2.956   4.374 -0.2709  0.0465  0.0626
12033TIP3    H157590   2.766   2.863   4.393  1.5934 -0.6139 -2.1247
12033TIP3    H257591   2.689   2.993   4.399 -1.3810 -2.3898  0.0765
12034TIP3   OH257592   4.867   4.436  13.959  0.2444  0.5690  0.1636
12034TIP3    H157593   4.914   4.360  13.994 -1.3614 -0.2132  0.6507
12034TIP3    H257594   4.907   4.452  13.873  0.6688 -0.7390  0.1164
12035TIP3   OH257595   3.165   1.484   3.969  0.2105  0.1409 -0.2609
12035TIP3    H157596   3.182   1.401   4.014 -1.5643 -0.1191 -0.0163
12035TIP3    H257597   3.071   1.483   3.952  0.2909  1.7816 -0.9136
12036TIP3   OH257598   4.493   6.179   4.269  0.0016 -0.2578 -0.0967
12036TIP3    H157599   4.434   6.217   4.334  0.4688 -1.0613  0.8075
12036TIP3    H257600   4.571   6.235   4.271 -0.6703  0.7431 -1.2173
12037TIP3   OH257601   2.922   3.403   0.617  0.5815  0.5147 -0.0997
12037TIP3    H157602   2.864   3.453   0.674 -0.1166  2.3488 -2.3371
12037TIP3    H257603   3.008   3.444   0.627  0.7498  0.0075  0.5835
12038TIP3   OH257604   4.651   1.324   1.814 -0.5408 -0.0393 -0.3877
12038TIP3    H157605   4.675   1.415   1.799  0.3939 -0.2691 -0.3007
12038TIP3    H257606   4.612   1.324   1.902 -1.7813  0.4965 -0.9201
12039TIP3   OH257607   5.206   0.749   2.922  0.0607  0.5537  0.1074
12039TIP3    H157608   5.239   0.696   2.995  1.2862 -1.4839 -1.8562
12039TIP3    H257609   5.120   0.712   2.902 -0.5364  1.5023  0.8880
12040TIP3   OH257610   5.159   1.400  13.739 -0.3364 -0.3948  0.4342
12040TIP3    H157611   5.189   1.478  13.787 -1.3228  0.1008  0.2512
12040TIP3    H257612   5.239   1.350  13.723  0.5243  1.3043 -0.7446
12041TIP3   OH257613   2.405   1.345  16.623 -0.0837  0.3017 -0.3463
12041TIP3    H157614   2.482   1.401  16.633  1.2521 -1.2501 -1.5466
12041TIP3    H257615   2.405   1.290  16.701 -0.4746  0.8819  0.0629
12042TIP3   OH257616   6.480   4.905  10.544 -0.4398  0.3488  0.4344
12042TIP3    H157617   6.515   4.826  10.584  1.4130  0.8533 -0.1333
12042TIP3    H257618   6.485   4.972  10.612 -0.5355  0.3709  0.4208
12043TIP3   OH257619   1.122   5.700  12.300 -0.2956 -0.0575  0.3233
12043TIP3    H157620   1.116   5.716  12.206 -1.1370  0.2037  0.4170
12043TIP3    H257621   1.135   5.605  12.308  0.7600  0.0478 -0.0897
12044TIP3   OH257622   0.738   6.351   2.335  0.5901 -0.0115  0.4530
12044TIP3    H157623   0.796   6.336   2.260  0.3938 -0.1043  0.3186
12044TIP3    H257624   0.755   6.441   2.362  0.1149  0.2681 -0.1756
12045TIP3   OH257625   5.172   2.210   6.338 -0.0053  0.2050  0.2249
12045TIP3    H157626   5.195   2.272   6.407 -0.4774  1.3055 -0.5940
12045TIP3    H257627   5.089   2.243   6.302 -0.8225 -1.4918  0.4833
12046TIP3   OH257628   1.619   0.841  16.457 -0.2717  0.9039  0.0820
12046TIP3    H157629   1.555   0.885  16.513 -0.0826  0.4002  0.7119
12046TIP3    H257630   1.703   0.881  16.482  0.0997 -0.8108  1.7214
12047TIP3   OH257631   5.422   2.104  13.708  0.9427  0.3898 -0.4623
12047TIP3    H157632   5.405   2.084  13.800  1.6916  2.4971  0.1867
12047TIP3    H257633   5.342   2.147  13.677  1.0165  0.4797 -0.5316
12048TIP3   OH257634   3.407   1.030  14.605 -0.1396  0.0795  0.1148
12048TIP3    H157635   3.384   1.078  14.685 -1.5851 -0.4439  0.0207
12048TIP3    H257636   3.502   1.016  14.612 -0.2984 -0.1719  1.8485
12049TIP3   OH257637   5.260   3.566  16.046  0.1957 -0.3588 -0.0825
12049TIP3    H157638   5.174   3.553  16.005  1.0778 -1.7252 -1.5588
12049TIP3    H257639   5.305   3.628  15.989  0.9299 -1.2049 -0.4294
12050TIP3   OH257640   0.841   6.682   1.004 -0.6375 -0.5470  0.0341
12050TIP3    H157641   0.878   6.737   1.073 -1.2985  1.8863 -1.4904
12050TIP3    H257642   0.918   6.648   0.958 -0.2155 -0.8187  0.9273
12051TIP3   OH257643   5.560   4.214  17.037 -0.2105  0.3486 -0.0210
12051TIP3    H157644   5.595   4.294  17.075  0.7097  0.5671 -1.2726
12051TIP3    H257645   5.629   4.149  17.052  0.0343  0.3688 -1.0442
12052TIP3   OH257646   1.872   1.674  11.684  0.1581 -0.3703 -0.5227
12052TIP3    H157647   1.843   1.616  11.755  2.2037 -0.5320  0.2111
12052TIP3    H257648   1.878   1.760  11.725 -0.0811 -0.1845 -0.8806
12053TIP3   OH257649   2.525   3.011   5.989 -0.3301 -0.0295 -0.2870
12053TIP3    H157650   2.607   2.965   5.972  0.6932  1.5142  0.3846
12053TIP3    H257651   2.468   2.943   6.026  0.3175 -1.3251 -1.5953
12054TIP3   OH257652   1.404   5.503   1.206 -0.6674  0.0804 -1.4979
12054TIP3    H157653   1.477   5.551   1.247 -1.5343 -0.0934  0.3082
12054TIP3    H257654   1.368   5.564   1.142 -0.6110  1.1808 -0.5060
12055TIP3   OH257655   2.916   5.563   4.024 -0.2893  0.1663  0.1753
12055TIP3    H157656   2.910   5.571   4.119 -0.8433  1.9036  0.0075
12055TIP3    H257657   2.874   5.480   4.003  1.6308 -1.2075  1.6273
12056TIP3   OH257658   0.588   5.695   5.376 -0.1513 -0.3201 -0.2141
12056TIP3    H157659   0.651   5.744   5.324  1.3239 -2.2980 -0.3533
12056TIP3    H257660   0.619   5.703   5.466 -0.1597 -0.6334 -0.1827
12057TIP3   OH257661   6.399   1.485  12.765 -0.1594  0.1942  0.3058
12057TIP3    H157662   6.461   1.437  12.710  0.1798 -0.1913  1.0108
12057TIP3    H257663   6.340   1.418  12.798  1.0638  0.0504  2.2911
12058TIP3   OH257664   6.644   6.378  12.908  0.2595  0.4078 -0.6402
12058TIP3    H157665   6.676   6.395  12.996 -0.5828 -2.6048  0.3087
12058TIP3    H257666   6.723   6.377  12.853  0.9872  0.3694  0.4022
12059TIP3   OH257667   1.697   1.104  11.359 -0.4723 -0.2063  0.2968
12059TIP3    H157668   1.720   1.167  11.290 -0.5360 -0.1618  0.3161
12059TIP3    H257669   1.733   1.143  11.439  1.1428 -1.1125  0.0214
12060TIP3   OH257670   6.000   2.443  11.666 -0.9529 -0.1416  0.0630
12060TIP3    H157671   6.093   2.459  11.683 -1.3922  0.3645  2.1035
12060TIP3    H257672   5.964   2.530  11.647 -0.9316 -0.3974 -1.1855
12061TIP3   OH257673   1.655   3.401   1.945 -0.0584 -0.0694  0.2581
12061TIP3    H157674   1.665   3.312   1.914  0.7302  0.7409 -1.8725
12061TIP3    H257675   1.687   3.398   2.036  2.4350 -1.3951 -0.6279
12062TIP3   OH257676   6.776   0.534  16.259  0.1646  0.1892  0.2757
12062TIP3    H157677   6.857   0.586  16.252 -0.6727  1.0973 -4.0256
12062TIP3    H257678   6.710   0.597  16.289 -0.1533  0.8672 -1.7987
12063TIP3   OH257679   3.862   6.475   0.096  0.3070 -0.2029  0.2755
12063TIP3    H157680   3.955   6.461   0.077  0.5166 -0.2680  1.3091
12063TIP3    H257681   3.859   6.563   0.135 -0.2894  0.4812 -1.3046
12064TIP3   OH257682   0.808   5.682   0.815  0.4543  1.0125 -0.0119
12064TIP3    H157683   0.903   5.682   0.814  0.5058 -1.8588  0.2889
12064TIP3    H257684   0.783   5.687   0.723  1.0054 -1.7811 -0.3661
12065TIP3   OH257685   4.250   3.507  14.311  0.3782  0.7421 -0.0090
12065TIP3    H157686   4.342   3.503  14.336  0.4026  0.5132 -0.1272
12065TIP3    H257687   4.227   3.416  14.290  0.4304  0.9590 -1.0728
12066TIP3   OH257688   2.233   5.020   2.754  0.0819 -0.4156 -0.4071
12066TIP3    H157689   2.149   5.065   2.757  1.4112  2.1236  2.0421
12066TIP3    H257690   2.260   5.025   2.663 -0.3195  2.9336 -0.3962
12067TIP3   OH257691   6.548   3.906  11.967 -0.7901  0.3883 -0.2476
12067TIP3    H157692   6.469   3.958  11.983 -0.9972 -0.1419  0.5257
12067TIP3    H257693   6.600   3.958  11.907 -2.0024  0.4916 -1.2388
12068TIP3   OH257694   5.049   3.392   5.138 -0.0848  0.2077  0.5643
12068TIP3    H157695   5.062   3.398   5.232 -2.2238  0.1045  0.8822
12068TIP3    H257696   5.120   3.445   5.101  1.1566 -0.2766  2.1803
12069TIP3   OH257697   1.092   0.516   3.930 -0.4227  0.7295 -0.5016
12069TIP3    H157698   1.158   0.557   3.986  0.9622  1.4048 -2.5913
12069TIP3    H257699   1.039   0.464   3.991  0.4427  2.1879  1.5764
12070TIP3   OH257700   1.930   1.197   2.928 -0.1310  0.1431  0.7614
12070TIP3    H157701   2.013   1.168   2.964  0.0350  0.2974  0.5051
12070TIP3    H257702   1.952   1.232   2.841 -0.6018 -0.7238  0.2882
12071TIP3   OH257703   3.658   3.218  16.436  0.0339  0.0282  0.0528
12071TIP3    H157704   3.579   3.177  16.470  0.8007 -0.1760  1.6412
12071TIP3    H257705   3.726   3.153  16.447  0.7786  0.8369  0.3110
12072TIP3   OH257706   6.496   2.299   2.801  0.0243  0.0106  0.0949
12072TIP3    H157707   6.502   2.211   2.840  0.0129 -0.8200 -1.7080
12072TIP3    H257708   6.404   2.324   2.811 -0.4691 -1.1378 -1.3270
12073TIP3   OH257709   3.139   6.136   3.034 -0.4359  0.0030  0.2768
12073TIP3    H157710   3.153   6.202   2.966 -1.3758 -0.5373 -0.4493
12073TIP3    H257711   3.174   6.177   3.114 -0.7752  1.2711 -0.2055
12074TIP3   OH257712   6.096   1.487   1.254 -0.0828 -0.3178  0.0013
12074TIP3    H157713   6.094   1.541   1.174  2.2391  0.3541  0.3561
12074TIP3    H257714   6.042   1.535   1.317  1.3995  1.2767  0.0954
12075TIP3   OH257715   0.461   5.447   6.557  0.4065  0.5863 -0.2165
12075TIP3    H157716   0.424   5.402   6.633  0.9127 -0.0037 -0.3138
12075TIP3    H257717   0.385   5.481   6.510 -0.0988 -1.4640 -0.9362
12076TIP3   OH257718   2.372   6.327   1.644  0.1854  0.2165  0.5971
12076TIP3    H157719   2.281   6.356   1.646 -0.0998 -0.7594  1.8524
12076TIP3    H257720   2.402   6.333   1.734  1.5057  0.9175  0.1416
12077TIP3   OH257721   5.476   2.802   6.825 -0.5592  0.1607  0.6143
12077TIP3    H157722   5.413   2.752   6.877  0.6374 -2.4379 -0.3010
12077TIP3    H257723   5.561   2.777   6.861  0.3116 -1.8222 -2.5571
12078TIP3   OH257724   4.665   3.783   1.902 -0.1700 -0.1304  0.6421
12078TIP3    H157725   4.749   3.760   1.864 -1.1718 -0.3932 -1.5229
12078TIP3    H257726   4.661   3.734   1.984  1.2347 -1.1225  0.1296
12079TIP3   OH257727   1.662   6.746  14.240  0.1720 -0.2860  0.4202
12079TIP3    H157728   1.753   6.771  14.224  0.3887  0.4734  2.6747
12079TIP3    H257729   1.666   6.682  14.310 -0.9687 -1.0864 -0.2270
12080TIP3   OH257730   3.272   5.985  15.460  0.4168 -0.1662 -0.6118
12080TIP3    H157731   3.279   5.976  15.555 -0.4552  0.9610 -0.4402
12080TIP3    H257732   3.268   5.894  15.428 -0.8649 -0.5346  0.5448
12081TIP3   OH257733   6.612   2.255   3.154  0.4278  0.2814 -0.2547
12081TIP3    H157734   6.689   2.266   3.210  0.5881  1.1677 -0.6420
12081TIP3    H257735   6.546   2.217   3.211  0.4382  1.6124  0.6675
12082TIP3   OH257736   2.015   0.665   3.319  0.1707  0.6940  0.5853
12082TIP3    H157737   1.941   0.687   3.375 -1.2420  0.7468 -1.2581
12082TIP3    H257738   2.092   0.682   3.374 -1.1802 -0.7358  3.0259
12083TIP3   OH257739   6.508   4.069   1.411 -0.9468  0.3932  0.2350
12083TIP3    H157740   6.420   4.033   1.404 -1.7052  1.7075  2.5277
12083TIP3    H257741   6.565   4.002   1.372 -2.7647 -1.2146  0.2844
12084TIP3   OH257742   3.870   0.598   2.840 -0.0241 -0.2115 -0.1931
12084TIP3    H157743   3.955   0.623   2.876  0.2020 -0.8093 -0.2985
12084TIP3    H257744   3.888   0.579   2.748 -0.1854 -0.7741 -0.1083
12085TIP3   OH257745   2.687   4.803  15.439 -0.0838  0.1327  0.6123
12085TIP3    H157746   2.713   4.724  15.392  1.3901  0.5440  0.7096
12085TIP3    H257747   2.720   4.875  15.384 -1.9226  0.7152  0.2183
12086TIP3   OH257748   2.037   3.599   6.735 -0.3621 -0.2611 -0.0425
12086TIP3    H157749   2.127   3.579   6.711 -0.6794 -1.2201 -0.4485
12086TIP3    H257750   1.990   3.516   6.725 -0.7698 -0.4059  2.6674
12087TIP3   OH257751   4.300   5.994   0.954 -0.2525 -0.5256  0.1397
12087TIP3    H157752   4.327   6.081   0.985 -1.2665  0.3996 -1.4839
12087TIP3    H257753   4.215   5.979   0.995  0.4853 -1.3217  1.4135
12088TIP3   OH257754   0.186   5.010  10.499  0.1737 -0.1801  0.0945
12088TIP3    H157755   0.116   5.055  10.545 -0.0039  0.9395 -1.2530
12088TIP3    H257756   0.200   4.930  10.550 -0.4888  0.6803  1.6846
12089TIP3   OH257757   5.841   2.990   5.748 -0.1124 -0.3807  0.5046
12089TIP3    H157758   5.918   3.034   5.784 -0.4077  0.4618  0.1194
12089TIP3    H257759   5.865   2.898   5.745  0.5460 -0.2407  1.2477
12090TIP3   OH257760   1.445   3.589  15.520  0.3497 -0.8576  0.0370
12090TIP3    H157761   1.498   3.553  15.591 -1.0961 -1.2057  0.9779
12090TIP3    H257762   1.355   3.587  15.555  0.0251  2.1003 -0.5022
12091TIP3   OH257763   6.148   6.164  11.513 -0.6893 -0.1642  0.5179
12091TIP3    H157764   6.240   6.164  11.486  0.1554  1.0706  3.1916
12091TIP3    H257765   6.110   6.088  11.469  1.3644 -0.1077 -1.4098
12092TIP3   OH257766   4.290   5.517   5.652 -0.0071 -0.0856  0.0199
12092TIP3    H157767   4.353   5.452   5.621  1.0836  0.5483  0.8698
12092TIP3    H257768   4.328   5.601   5.627 -0.7915  0.2888  0.0602
12093TIP3   OH257769   0.173   4.033   5.601 -0.1261  0.3651 -0.1530
12093TIP3    H157770   0.171   4.004   5.510  1.6574  0.3956 -0.2219
12093TIP3    H257771   0.089   4.006   5.637 -0.1647 -1.1530 -1.3544
12094TIP3   OH257772   5.107   3.904   2.049 -0.1345 -0.2291  0.3617
12094TIP3    H157773   5.049   3.938   2.117  0.5810  1.1457  0.3079
12094TIP3    H257774   5.108   3.809   2.063 -1.9692 -0.2142  0.6796
12095TIP3   OH257775   5.653   4.565   5.177 -0.4510  0.2512  0.3183
12095TIP3    H157776   5.672   4.500   5.109  0.2244  0.7409  0.0372
12095TIP3    H257777   5.674   4.520   5.259  1.3909  0.5777  0.0457
12096TIP3   OH257778   3.558   4.172  15.204  0.1388  0.2175 -0.6347
12096TIP3    H157779   3.542   4.208  15.116 -0.5429  1.3321 -0.0633
12096TIP3    H257780   3.573   4.079  15.188  2.1611  0.7575 -2.1510
12097TIP3   OH257781   2.880   0.603  17.181 -0.1123 -0.0095  0.7713
12097TIP3    H157782   2.901   0.623  17.090  1.3813 -0.7305  0.9429
12097TIP3    H257783   2.825   0.677  17.210 -2.5679 -0.9103 -1.3792
12098TIP3   OH257784   2.372   0.907   5.736  0.4565 -0.3039 -0.0486
12098TIP3    H157785   2.461   0.930   5.709  0.1759 -1.0058 -1.6082
12098TIP3    H257786   2.382   0.824   5.782  0.5042 -0.8189 -0.9793
12099TIP3   OH257787   0.053   1.481  16.992  0.5478  0.2959 -0.1472
12099TIP3    H157788   0.099   1.399  16.976 -0.7212 -0.2344 -1.2548
12099TIP3    H257789   0.067   1.532  16.912 -1.6352 -0.3139 -0.9707
12100TIP3   OH257790   6.217   1.121  17.071  0.0883  0.0138 -0.3530
12100TIP3    H157791   6.126   1.145  17.082 -0.4012 -1.6539 -0.5419
12100TIP3    H257792   6.263   1.165  17.143 -0.9925  0.1560  0.2547
12101TIP3   OH257793   4.112   4.666  13.859  0.0472  0.0998 -0.1657
12101TIP3    H157794   4.042   4.632  13.915  1.8740 -1.5541  1.1810
12101TIP3    H257795   4.184   4.684  13.919  0.4765  2.7961 -1.3936
12102TIP3   OH257796   2.228   5.323  10.931  0.1806 -0.1102  0.2144
12102TIP3    H157797   2.168   5.333  10.857  3.2136  1.6308 -2.1788
12102TIP3    H257798   2.193   5.382  10.998 -1.0747  0.4717 -0.9255
12103TIP3   OH257799   1.126   1.424   1.457  0.0000  0.1482  0.4377
12103TIP3    H157800   1.095   1.365   1.525  0.7356  0.8650  1.4130
12103TIP3    H257801   1.053   1.485   1.442 -0.2037 -0.0825  0.4924
12104TIP3   OH257802   2.849   0.649  14.967  0.2017  0.2059 -0.4870
12104TIP3    H157803   2.776   0.668  15.026 -0.2908 -2.0007 -0.3493
12104TIP3    H257804   2.924   0.634  15.025 -0.4402 -2.6700 -0.3104
12105TIP3   OH257805   3.694   6.375   2.691 -0.1780 -0.3134 -0.0669
12105TIP3    H157806   3.709   6.313   2.620  2.0752  0.2305 -0.0986
12105TIP3    H257807   3.763   6.441   2.681 -1.5499  1.3185  0.9350
12106TIP3   OH257808   2.324   4.068  15.114 -0.0184  0.2177 -0.4894
12106TIP3    H157809   2.264   4.132  15.154  0.0427  0.9758 -1.5752
12106TIP3    H257810   2.278   3.985  15.121  0.5848  0.0950  2.3817
12107TIP3   OH257811   2.936   2.079   2.273  0.2389 -0.5539 -0.4923
12107TIP3    H157812   2.946   1.992   2.311 -1.8212 -0.3987  0.4591
12107TIP3    H257813   2.946   2.139   2.347 -0.1040 -0.0731 -0.8346
12108TIP3   OH257814   5.755   3.234  13.920 -0.2715  0.6909 -0.6625
12108TIP3    H157815   5.691   3.261  13.854 -0.5299  0.6745 -0.4213
12108TIP3    H257816   5.837   3.274  13.892 -0.6356  1.7092 -0.3358
12109TIP3   OH257817   0.533   1.391   4.665  0.2915 -0.3517  0.3096
12109TIP3    H157818   0.437   1.388   4.673  0.2917 -1.1602  0.0154
12109TIP3    H257819   0.560   1.300   4.667  1.0261 -0.1437 -0.0442
12110TIP3   OH257820   4.087   0.298  15.459  0.4190  0.0572  0.0427
12110TIP3    H157821   4.112   0.268  15.371  0.5255  0.2221  0.0163
12110TIP3    H257822   4.147   0.369  15.478  1.2325 -0.8170  0.7753
12111TIP3   OH257823   2.881   6.065   1.674  0.5075 -0.5357  0.2557
12111TIP3    H157824   2.790   6.071   1.704  0.4509 -1.4579  0.2665
12111TIP3    H257825   2.901   6.153   1.642 -0.7854 -0.6632 -0.9117
12112TIP3   OH257826   5.585   5.721   4.427 -0.2214 -0.0058 -0.5862
12112TIP3    H157827   5.528   5.649   4.400  0.4285 -1.2167  1.1870
12112TIP3    H257828   5.537   5.765   4.497  0.3043  0.0170 -0.2456
12113TIP3   OH257829   5.476   2.091   0.992  0.4774 -0.2617  0.4490
12113TIP3    H157830   5.429   2.080   1.074 -3.6576  2.2872 -1.4249
12113TIP3    H257831   5.502   2.183   0.991  0.2455 -0.1978 -1.2071
12114TIP3   OH257832   2.450   5.033   1.198 -0.0332 -0.6367 -0.3982
12114TIP3    H157833   2.542   5.037   1.174  0.2132 -1.5090  0.3802
12114TIP3    H257834   2.442   4.953   1.251 -0.6063  1.0140  2.1217
12115TIP3   OH257835   3.240   5.215  13.021 -0.2798 -0.0490 -0.3437
12115TIP3    H157836   3.251   5.154  13.093 -2.7534  0.2105  0.2769
12115TIP3    H257837   3.282   5.296  13.051  1.0840 -0.7633 -0.3028
12116TIP3   OH257838   5.092   0.083   5.756 -0.1221 -0.3179  0.3597
12116TIP3    H157839   5.112   0.014   5.692 -0.5429  0.7099 -0.9040
12116TIP3    H257840   5.106   0.165   5.708 -0.8729  0.4669  1.4516
12117TIP3   OH257841   4.571   5.938   3.379 -0.0210 -0.0621 -0.3144
12117TIP3    H157842   4.547   5.863   3.433 -0.9576  1.2487  1.1105
12117TIP3    H257843   4.491   5.991   3.375  0.5048  0.6537 -1.6813
12118TIP3   OH257844   1.812   0.408   4.436  0.3668  0.1693 -0.2806
12118TIP3    H157845   1.850   0.388   4.521  0.3504 -2.5621 -0.8699
12118TIP3    H257846   1.765   0.491   4.449  0.4516 -0.1507  2.3106
12119TIP3   OH257847   0.556   2.479   0.055  0.0624  0.4805  0.1971
12119TIP3    H157848   0.586   2.506  -0.032  0.9339 -2.4924 -0.5054
12119TIP3    H257849   0.608   2.400   0.074 -1.4282  0.0482  2.6120
12120TIP3   OH257850   0.302   3.043   5.146  0.5974  0.4777 -0.0060
12120TIP3    H157851   0.327   3.136   5.140  0.7046  0.7119  3.1828
12120TIP3    H257852   0.207   3.044   5.131  0.9322  0.7897 -2.2822
12121TIP3   OH257853   6.176   0.434  14.740 -0.0367 -0.3271 -0.2235
12121TIP3    H157854   6.108   0.370  14.719 -0.2021 -0.4079  0.5262
12121TIP3    H257855   6.258   0.385  14.732 -0.1513 -0.5946  0.1689
12122TIP3   OH257856   3.438   2.749  16.227  0.4413 -0.0572  0.2434
12122TIP3    H157857   3.355   2.718  16.191 -0.0257 -1.1288  2.1865
12122TIP3    H257858   3.503   2.721  16.163 -0.3348 -2.1857  0.3274
12123TIP3   OH257859   4.178   5.913  14.705  0.2267 -0.0314  0.1784
12123TIP3    H157860   4.263   5.913  14.662  0.1587 -2.6291 -0.0164
12123TIP3    H257861   4.183   5.843  14.769 -0.8258  1.6436  2.1603
12124TIP3   OH257862   5.332   6.374   0.440  0.0589 -0.2139 -0.2322
12124TIP3    H157863   5.401   6.429   0.476  1.4633 -1.8621 -0.3599
12124TIP3    H257864   5.376   6.293   0.415 -2.3024 -2.1530  1.6857
12125TIP3   OH257865   4.284   2.748   5.363  0.5588 -0.1221 -0.3651
12125TIP3    H157866   4.230   2.772   5.288  2.8806 -0.6737 -2.2693
12125TIP3    H257867   4.337   2.674   5.332  0.3696 -1.4547  2.3479
12126TIP3   OH257868   2.525   1.547   2.615 -0.0467 -0.3969  0.6845
12126TIP3    H157869   2.486   1.626   2.651 -0.5652 -0.2134 -0.2801
12126TIP3    H257870   2.518   1.557   2.520  0.3421 -1.3646  0.5476
12127TIP3   OH257871   0.331   5.135   4.964 -0.5563 -0.8790 -0.0971
12127TIP3    H157872   0.332   5.224   5.000 -0.1940 -0.5489 -0.9256
12127TIP3    H257873   0.420   5.102   4.978 -0.8271 -1.3070  0.6753
12128TIP3   OH257874   2.314   6.234   1.909 -0.4371 -0.4270 -0.0185
12128TIP3    H157875   2.360   6.315   1.930  0.8613 -1.2496  0.3689
12128TIP3    H257876   2.222   6.252   1.932 -0.3352  1.2365 -0.8396
12129TIP3   OH257877   5.245   2.722  14.656  0.0391 -0.3580  0.1373
12129TIP3    H157878   5.308   2.780  14.700 -1.4540  1.1537  0.3618
12129TIP3    H257879   5.264   2.731  14.563 -0.3676  0.7297  0.1546
12130TIP3   OH257880   4.835   4.002  15.680 -0.6441 -0.1559 -0.0294
12130TIP3    H157881   4.908   4.061  15.662 -1.3640  1.3583  1.8449
12130TIP3    H257882   4.859   3.957  15.761 -1.2398 -0.5373 -0.0620
12131TIP3   OH257883   6.102   2.164   2.540 -0.0240 -0.7540  0.1518
12131TIP3    H157884   6.118   2.092   2.479 -1.7208 -0.9613 -0.0874
12131TIP3    H257885   6.117   2.125   2.627 -2.0120 -1.7581  0.0887
12132TIP3   OH257886   1.979   3.267   5.772  0.5965 -0.4553  0.3704
12132TIP3    H157887   2.063   3.268   5.726 -0.7373 -1.3198 -2.1426
12132TIP3    H257888   1.981   3.187   5.824  0.8794 -1.0169 -0.5054
12133TIP3   OH257889   6.203   3.784   4.891 -0.3878  0.0857  0.5625
12133TIP3    H157890   6.177   3.759   4.802 -1.6191  2.7511  0.1120
12133TIP3    H257891   6.293   3.816   4.882 -0.1806 -0.5166  0.4570
12134TIP3   OH257892   1.570   3.222   4.294  0.0107 -0.2787  0.2335
12134TIP3    H157893   1.514   3.205   4.219 -2.1011  0.8292  1.5075
12134TIP3    H257894   1.654   3.184   4.271 -0.2276  1.1431 -3.2052
12135TIP3   OH257895   5.819   0.446   2.775  0.1534  0.2774  0.2029
12135TIP3    H157896   5.858   0.366   2.810 -0.0120  0.0348 -0.1594
12135TIP3    H257897   5.869   0.517   2.814 -0.7655  0.0460  1.8362
12136TIP3   OH257898   6.382   3.245  11.982  0.1639  0.6509 -0.3691
12136TIP3    H157899   6.360   3.199  11.901 -1.1817 -0.1422  0.4338
12136TIP3    H257900   6.308   3.305  11.996  0.8938  1.5434 -0.2710
12137TIP3   OH257901   1.149   3.033   2.296  0.2194 -0.0986 -0.4244
12137TIP3    H157902   1.197   3.002   2.373  2.7293  0.0727 -1.8767
12137TIP3    H257903   1.093   2.959   2.272  1.0647 -0.9713  0.2538
12138TIP3   OH257904   1.825   2.833   5.449 -0.1322 -0.4297 -0.6289
12138TIP3    H157905   1.774   2.759   5.482  0.9377 -0.7304  0.3593
12138TIP3    H257906   1.904   2.793   5.413  0.8949  0.3001  0.7691
12139TIP3   OH257907   1.049   0.751  14.590 -0.0541 -0.2091 -0.8493
12139TIP3    H157908   1.115   0.806  14.547 -0.0901 -0.0056 -0.6452
12139TIP3    H257909   1.048   0.671  14.538  1.1209 -0.6423 -0.2292
12140TIP3   OH257910   0.062   3.039  16.357  0.1934 -0.0725 -0.5425
12140TIP3    H157911   0.034   3.128  16.335 -0.5361 -0.2438 -0.3340
12140TIP3    H257912   0.152   3.048  16.387  0.1690  0.5738 -0.6688
12141TIP3   OH257913   5.849   0.431   4.974  0.1465 -0.2931  0.3681
12141TIP3    H157914   5.799   0.448   5.054 -0.2300 -1.9554  0.4928
12141TIP3    H257915   5.828   0.505   4.917 -2.2662 -0.8242  0.5175
12142TIP3   OH257916   3.023   5.892   4.091  0.2993  0.5144  0.2115
12142TIP3    H157917   2.995   5.983   4.087 -0.0135  0.3827 -0.7158
12142TIP3    H257918   2.943   5.841   4.080  0.7340  0.1390 -1.5440
12143TIP3   OH257919   0.742   3.886  16.507  0.1370  0.8488 -0.6869
12143TIP3    H157920   0.807   3.879  16.438 -0.8010  2.2446 -1.7409
12143TIP3    H257921   0.782   3.942  16.573 -0.1608  2.0493 -1.5257
12144TIP3   OH257922   0.865   1.406   4.175  0.2706  0.0095  0.0360
12144TIP3    H157923   0.804   1.353   4.225 -1.1889  0.1602 -1.5259
12144TIP3    H257924   0.895   1.473   4.237 -1.1874 -0.0419  0.8266
12145TIP3   OH257925   5.106   0.368  14.737  0.2480  0.4339  0.6027
12145TIP3    H157926   5.169   0.417  14.790 -0.4298  0.6757  1.1966
12145TIP3    H257927   5.039   0.340  14.800 -0.9045  1.2760 -0.2428
12146TIP3   OH257928   3.012   2.799   0.891 -0.2060 -0.0264  0.0128
12146TIP3    H157929   3.015   2.861   0.818 -1.3510  0.9322  0.7532
12146TIP3    H257930   2.943   2.737   0.868  2.6849 -2.6338 -1.9397
12147TIP3   OH257931   4.963   4.129   1.623 -0.0064 -0.1336 -0.5874
12147TIP3    H157932   4.955   4.164   1.534  0.4165 -0.5873 -0.8105
12147TIP3    H257933   4.942   4.202   1.680  0.3672  0.3451 -1.0549
12148TIP3   OH257934   1.035   4.638  12.663 -0.1629  0.3501  0.5277
12148TIP3    H157935   1.010   4.726  12.633  0.8403 -0.3930 -2.6578
12148TIP3    H257936   1.124   4.649  12.697  1.0883  0.0982 -2.5057
12149TIP3   OH257937   6.696   5.577  14.484 -0.2813  0.0632  0.3073
12149TIP3    H157938   6.745   5.653  14.518  1.1959  0.2815 -2.1690
12149TIP3    H257939   6.682   5.522  14.560  1.8224  1.1212  1.5231
12150TIP3   OH257940   0.449   0.492   4.133 -0.2342  0.0491  0.7394
12150TIP3    H157941   0.436   0.448   4.217  1.1359 -1.4180  0.2279
12150TIP3    H257942   0.460   0.420   4.070 -3.2846  1.0940 -1.0838
12151TIP3   OH257943   6.028   3.604  16.486 -0.2337 -0.3598  0.0565
12151TIP3    H157944   6.018   3.572  16.397  0.4041 -1.2685  0.2926
12151TIP3    H257945   6.084   3.681  16.479  0.1868 -0.6953 -0.2829
12152TIP3   OH257946   4.633   1.351   2.498  0.2493  0.2298 -0.1907
12152TIP3    H157947   4.671   1.327   2.413  1.0222  0.2983  0.1248
12152TIP3    H257948   4.539   1.349   2.484  0.3696  0.1578 -1.0319
12153TIP3   OH257949   4.597   2.862  14.290  1.1750  0.5217  0.0551
12153TIP3    H157950   4.580   2.913  14.369  1.5867  0.6849  0.0388
12153TIP3    H257951   4.684   2.889  14.263  1.5341 -0.4536  0.2421
12154TIP3   OH257952   5.787   6.767  11.673  0.1132 -0.0797 -0.2191
12154TIP3    H157953   5.791   6.672  11.661  3.0181 -0.0049 -0.1457
12154TIP3    H257954   5.839   6.784  11.751  0.4000  1.6504 -0.7633
12155TIP3   OH257955   3.339   5.258   0.588 -0.5772  0.2028  0.3548
12155TIP3    H157956   3.431   5.238   0.604 -0.4110  0.8487  0.1787
12155TIP3    H257957   3.318   5.327   0.650 -0.8975  0.1833  0.2698
12156TIP3   OH257958   0.057   4.508   3.778  0.3976 -0.2000 -0.7714
12156TIP3    H157959   0.113   4.507   3.855  1.9977  0.2929 -1.8882
12156TIP3    H257960   0.103   4.564   3.715 -1.2702  0.0810 -1.7923
12157TIP3   OH257961   4.276   3.948   4.660  0.2301  0.6363 -0.2142
12157TIP3    H157962   4.352   3.935   4.604  0.8905 -0.5875  0.9086
12157TIP3    H257963   4.250   3.859   4.685 -0.4710  1.1256  0.8395
12158TIP3   OH257964   4.379   2.931   0.141 -0.1038 -0.7008  0.6351
12158TIP3    H157965   4.376   3.019   0.103 -2.3079 -0.4717  1.3007
12158TIP3    H257966   4.290   2.899   0.135 -0.1182 -1.4251  3.7985
12159TIP3   OH257967   2.341   4.503   3.114  0.4390  0.3788 -0.5263
12159TIP3    H157968   2.297   4.535   3.035  1.1727  0.2227 -1.0040
12159TIP3    H257969   2.291   4.426   3.140 -1.0612  1.6248  0.3648
12160TIP3   OH257970   1.307   5.741  15.751  0.3995  0.4908  0.3465
12160TIP3    H157971   1.230   5.712  15.799  0.1974 -1.1325 -0.9199
12160TIP3    H257972   1.282   5.827  15.716  0.5631  1.7158  3.1032
12161TIP3   OH257973   3.797   3.502  11.898  0.2607  0.4373 -0.1951
12161TIP3    H157974   3.836   3.572  11.846  1.1834  0.4269  0.4698
12161TIP3    H257975   3.759   3.546  11.974 -0.2382  0.3400 -0.3811
12162TIP3   OH257976   1.730   4.226   3.067 -0.3801  0.0162  0.3557
12162TIP3    H157977   1.800   4.186   3.118  0.1539  0.2749 -0.1663
12162TIP3    H257978   1.670   4.263   3.133 -0.2320 -0.5457  0.8076
12163TIP3   OH257979   0.883   3.853   1.159  0.3616  0.8776  0.8338
12163TIP3    H157980   0.871   3.880   1.068  0.3136 -0.4908  0.4170
12163TIP3    H257981   0.954   3.908   1.191  0.3978  1.3558 -0.0443
12164TIP3   OH257982   0.931   1.723   0.464  0.2311 -0.0957  0.0266
12164TIP3    H157983   0.888   1.682   0.389  0.3661 -0.3560  0.0896
12164TIP3    H257984   0.860   1.759   0.517  0.1022 -0.3585  0.0333
12165TIP3   OH257985   6.722   1.352  13.746 -0.2497 -0.5100  0.6308
12165TIP3    H157986   6.781   1.361  13.820 -1.2642 -0.2681  1.4299
12165TIP3    H257987   6.637   1.331  13.786 -0.9143  0.1005 -0.4355
12166TIP3   OH257988   2.422   1.161  11.677  0.7353  0.4197 -1.0552
12166TIP3    H157989   2.448   1.220  11.606  2.3110  0.1854 -0.6921
12166TIP3    H257990   2.340   1.197  11.710  0.9334  1.5692 -1.7925
12167TIP3   OH257991   5.257   1.960  15.627  0.0416 -0.2354 -0.2273
12167TIP3    H157992   5.309   1.988  15.702  0.5660 -1.3887 -0.1369
12167TIP3    H257993   5.321   1.939  15.559 -0.3908  0.0261 -0.7245
12168TIP3   OH257994   2.241   0.723   3.467 -0.2571  0.2124  0.4273
12168TIP3    H157995   2.283   0.777   3.400 -1.0512 -0.6899 -0.8291
12168TIP3    H257996   2.289   0.641   3.465 -0.1106  0.2777  1.1617
12169TIP3   OH257997   1.504   0.078   3.529 -0.1095 -0.6381  0.0173
12169TIP3    H157998   1.422   0.112   3.564  0.1836  0.7149 -0.5512
12169TIP3    H257999   1.550   0.156   3.497  0.3335 -1.6231 -1.8679
12170TIP3   OH258000   2.014   5.589  12.684 -0.0713 -0.0009  0.0588
12170TIP3    H158001   1.932   5.562  12.725 -0.1261 -2.4305 -1.5383
12170TIP3    H258002   2.081   5.573  12.752 -0.6415 -0.1585  0.5857
12171TIP3   OH258003   1.620   6.488  12.119 -0.2586 -0.0808 -0.2887
12171TIP3    H158004   1.566   6.412  12.098 -1.8958  1.1294 -0.5998
12171TIP3    H258005   1.580   6.525  12.198 -0.9281  1.7517 -1.4293
12172TIP3   OH258006   3.520   4.112   4.688 -0.3539  0.5761 -0.0022
12172TIP3    H158007   3.501   4.176   4.619  1.0894  0.7099 -0.2918
12172TIP3    H258008   3.462   4.137   4.760 -0.8241  1.3343 -0.6292
12173TIP3   OH258009   4.783   6.136   4.491  0.4127 -0.5092 -0.2068
12173TIP3    H158010   4.862   6.151   4.544  0.5572 -1.1993 -0.2253
12173TIP3    H258011   4.770   6.218   4.444  0.1368  0.2113  1.0889
12174TIP3   OH258012   0.484   3.260  14.843  0.2251  0.2467 -0.8440
12174TIP3    H158013   0.507   3.181  14.795 -0.8961 -0.5924 -0.0052
12174TIP3    H258014   0.488   3.235  14.935  0.8191  1.4249 -0.5407
12175TIP3   OH258015   3.805   4.640  10.887  0.7900  0.0525  0.6799
12175TIP3    H158016   3.801   4.733  10.862  1.4855  0.2069  1.1445
12175TIP3    H258017   3.854   4.598  10.816 -0.3839 -0.1326 -0.0281
12176TIP3   OH258018   2.136   2.451  16.248 -0.2780 -0.0212 -0.2201
12176TIP3    H158019   2.158   2.392  16.176  0.9654 -0.6328  0.6561
12176TIP3    H258020   2.043   2.432  16.266 -0.8628  0.7630 -2.2273
12177TIP3   OH258021   5.522   4.737  11.686 -0.5957 -0.0411 -0.2658
12177TIP3    H158022   5.609   4.709  11.658 -0.7147  0.2821 -0.9571
12177TIP3    H258023   5.511   4.823  11.647 -1.0218  0.1386  0.2517
12178TIP3   OH258024   5.544   6.189  15.029  0.3832  0.4500 -0.2545
12178TIP3    H158025   5.606   6.121  15.005 -0.8767 -0.8299  0.0476
12178TIP3    H258026   5.528   6.238  14.948  0.2514 -0.4820 -0.7952
12179TIP3   OH258027   1.542   3.514  14.044  0.4625  0.6252  0.4831
12179TIP3    H158028   1.596   3.472  13.977  1.2673 -0.1272  1.5914
12179TIP3    H258029   1.576   3.603  14.051  1.5092  0.1834  1.1055
12180TIP3   OH258030   1.993   3.891  16.222 -0.1296  0.8965 -0.3537
12180TIP3    H158031   1.954   3.910  16.307 -0.0712  2.2806 -0.6143
12180TIP3    H258032   1.918   3.873  16.165 -0.0738 -2.0529  0.4292
12181TIP3   OH258033   6.700   4.889  12.910  0.1628  0.0848 -0.0364
12181TIP3    H158034   6.746   4.815  12.949 -2.3282 -1.1984  0.5527
12181TIP3    H258035   6.711   4.878  12.816  2.4308  0.7270  0.1296
12182TIP3   OH258036   6.595   1.033  13.012 -0.0148 -0.0610 -0.0121
12182TIP3    H158037   6.600   1.023  12.917  0.0684  1.4857 -0.1711
12182TIP3    H258038   6.622   1.123  13.029  0.5528 -0.4957  1.5312
12183TIP3   OH258039   3.056   0.324  15.946 -0.4763  0.4070 -0.1632
12183TIP3    H158040   3.027   0.373  15.869  1.6606 -0.4869 -1.5776
12183TIP3    H258041   2.993   0.253  15.955 -2.1176  1.8970  0.3733
12184TIP3   OH258042   4.310   4.427  14.583 -0.1394 -0.0747 -0.9505
12184TIP3    H158043   4.313   4.487  14.658 -1.5041 -0.1483 -0.8241
12184TIP3    H258044   4.220   4.431  14.552 -0.1547 -1.7646 -1.1912
12185TIP3   OH258045   2.637   4.196  15.346 -0.3502  0.3247  0.5274
12185TIP3    H158046   2.585   4.116  15.332 -3.0144  2.1732 -0.4722
12185TIP3    H258047   2.640   4.238  15.260  1.8600  0.8479  0.8366
12186TIP3   OH258048   4.813   2.017   3.855 -0.0994 -0.5730 -0.1093
12186TIP3    H158049   4.798   1.945   3.917 -0.8232 -1.5332 -1.3845
12186TIP3    H258050   4.735   2.017   3.799 -0.1710  1.3004 -0.0380
12187TIP3   OH258051   2.074   4.465   1.322  0.1558 -0.1746 -0.1476
12187TIP3    H158052   2.088   4.432   1.411 -1.3920 -0.2403  0.0730
12187TIP3    H258053   2.074   4.387   1.267  0.4000 -0.1886 -0.1317
12188TIP3   OH258054   3.144   0.271   2.308  0.8996 -0.1394 -0.3522
12188TIP3    H158055   3.203   0.315   2.369  0.4670  1.3998 -1.0138
12188TIP3    H258056   3.137   0.182   2.341 -1.6459  1.3861  3.6226
12189TIP3   OH258057   0.505   1.253  13.511  0.1097  0.2145 -0.4837
12189TIP3    H158058   0.417   1.263  13.475  0.4729  0.3811 -1.3257
12189TIP3    H258059   0.550   1.335  13.490 -0.2803  1.1641  2.1021
12190TIP3   OH258060   1.852   1.261   6.079 -0.2995  0.2000  0.0259
12190TIP3    H158061   1.910   1.337   6.085  3.3967 -2.4603 -0.3057
12190TIP3    H258062   1.850   1.225   6.168  0.4277 -1.0092 -0.4311
12191TIP3   OH258063   6.245   0.078   4.089 -0.6395 -0.4272 -0.4475
12191TIP3    H158064   6.197  -0.004   4.101 -0.6350 -0.2303  1.0460
12191TIP3    H258065   6.190   0.129   4.029 -2.3144 -0.2213  1.2135
12192TIP3   OH258066   2.385   4.446  14.222  0.4274  0.3272  0.2237
12192TIP3    H158067   2.403   4.527  14.174 -0.0733 -0.0485 -0.6190
12192TIP3    H258068   2.311   4.407  14.176  0.9371 -0.8243  0.3553
12193TIP3   OH258069   3.731   2.041  15.745 -0.9821  0.1816 -0.0463
12193TIP3    H158070   3.738   1.947  15.760 -0.4153  0.0635 -1.0063
12193TIP3    H258071   3.703   2.077  15.829 -1.0351 -0.8261  0.3708
12194TIP3   OH258072   3.385   0.883  12.440  0.3105 -0.1441  0.0712
12194TIP3    H158073   3.349   0.874  12.352  0.9030 -0.7185 -0.1127
12194TIP3    H258074   3.372   0.797  12.480  1.0208 -0.2040  0.1747
12195TIP3   OH258075   6.168   5.772   4.544  0.2714 -0.3376  0.3706
12195TIP3    H158076   6.176   5.783   4.639  2.4277  0.7006  0.0861
12195TIP3    H258077   6.116   5.692   4.534  1.5351 -1.4644  2.4260
12196TIP3   OH258078   4.175   0.161  17.242  0.1289  0.0171  0.3215
12196TIP3    H158079   4.231   0.192  17.170 -0.8967  0.5022 -0.2780
12196TIP3    H258080   4.086   0.167  17.207 -0.4262  0.7876  1.8293
12197TIP3   OH258081   3.556   4.761  13.402  0.2177 -0.2214  0.4677
12197TIP3    H158082   3.607   4.808  13.335  1.3731  3.1201  3.4959
12197TIP3    H258083   3.611   4.687  13.426  0.8813 -0.0941 -0.6241
12198TIP3   OH258084   0.576   1.681  16.709 -0.1152  0.8886  0.0978
12198TIP3    H158085   0.641   1.615  16.732 -0.5869  0.9484  1.6101
12198TIP3    H258086   0.498   1.632  16.683  0.3811  0.8240 -1.3123
12199TIP3   OH258087   3.548   5.392   0.431  0.2283  0.1079 -0.1013
12199TIP3    H158088   3.494   5.334   0.378 -0.5870 -0.0016  0.8419
12199TIP3    H258089   3.485   5.446   0.480  0.9602  0.0816  0.8876
12200TIP3   OH258090   0.703   5.687   0.559  0.5141  0.1589  0.1624
12200TIP3    H158091   0.768   5.639   0.507  1.0111 -0.9266  1.7249
12200TIP3    H258092   0.715   5.779   0.535  1.8446 -0.1622 -0.4249
12201TIP3   OH258093   2.632   5.176   3.816 -0.4249  0.0270 -0.2628
12201TIP3    H158094   2.575   5.138   3.749 -0.4875  1.7354 -1.2164
12201TIP3    H258095   2.572   5.212   3.881 -0.4477  1.3027 -0.9714
12202TIP3   OH258096   1.026   5.323   2.000 -0.3774  0.3683 -0.3136
12202TIP3    H158097   1.114   5.288   2.012 -0.4898 -0.1629 -1.0305
12202TIP3    H258098   1.039   5.417   1.992 -0.0632  0.4939  1.5217
12203TIP3   OH258099   3.809   2.603   0.997 -0.0230  0.2957  1.1201
12203TIP3    H158100   3.816   2.508   0.995  1.7310  0.4274 -0.5625
12203TIP3    H258101   3.877   2.631   1.059 -0.0395  0.4942  1.0498
12204TIP3   OH258102   5.722   6.645   5.273  0.1781 -0.3780  0.0528
12204TIP3    H158103   5.668   6.717   5.306  0.3442  0.1913 -0.9108
12204TIP3    H258104   5.709   6.575   5.337 -1.1367 -0.0033  0.2261
12205TIP3   OH258105   1.297   6.159  17.162 -0.3619 -0.0815  0.2909
12205TIP3    H158106   1.361   6.140  17.093 -0.4469 -0.1592  0.2313
12205TIP3    H258107   1.289   6.077  17.210  0.0364  0.1021  0.6758
12206TIP3   OH258108   2.218   2.105   3.698  0.1595  0.7336 -0.1881
12206TIP3    H158109   2.251   2.021   3.664 -0.3186 -0.0307  1.1680
12206TIP3    H258110   2.146   2.080   3.756  0.3499  2.0471  0.6391
12207TIP3   OH258111   2.859   4.016  12.776 -0.8348  0.2015  0.0687
12207TIP3    H158112   2.872   3.969  12.859 -3.8041 -1.1906 -0.1798
12207TIP3    H258113   2.806   4.091  12.800  0.5273  1.2628 -0.1918
12208TIP3   OH258114   0.291   6.627  11.906 -0.4330  0.6028 -0.3838
12208TIP3    H158115   0.367   6.607  11.960 -0.4833 -0.3773 -0.6624
12208TIP3    H258116   0.227   6.664  11.966 -0.6434 -0.8525  0.3156
12209TIP3   OH258117   2.148   0.952  14.913 -0.5680 -0.0752  0.4584
12209TIP3    H158118   2.112   1.025  14.963  0.9763  0.7434  0.4140
12209TIP3    H258119   2.141   0.877  14.972 -0.2045  0.5628  1.3249
12210TIP3   OH258120   3.035   6.306  17.227  0.4476 -0.3104  0.3804
12210TIP3    H158121   2.940   6.298  17.237  0.5000 -1.1745  0.2386
12210TIP3    H258122   3.049   6.305  17.132  0.3931  2.4798  0.3058
12211TIP3   OH258123   0.270   4.483  10.921  0.4016  0.0486  1.2329
12211TIP3    H158124   0.311   4.420  10.862  1.5262  1.9262 -0.0254
12211TIP3    H258125   0.194   4.515  10.873 -0.4594 -0.6557  2.0753
12212TIP3   OH258126   2.172   0.769  12.798 -0.0014 -0.9631  0.2641
12212TIP3    H158127   2.102   0.748  12.736 -0.2820 -0.8656  0.5435
12212TIP3    H258128   2.232   0.825  12.749 -1.5794  1.3439  0.8317
12213TIP3   OH258129   6.597   3.456  16.874  0.0821  0.0023 -0.0888
12213TIP3    H158130   6.522   3.490  16.826  0.7294  0.0317 -1.0963
12213TIP3    H258131   6.611   3.518  16.945 -0.6760  0.1471 -0.0657
12214TIP3   OH258132   0.708   2.280  15.309 -0.1216 -0.2324 -0.7982
12214TIP3    H158133   0.660   2.319  15.382 -0.8617  1.6820 -2.2735
12214TIP3    H258134   0.800   2.292  15.331 -0.2374 -2.9274  1.5166
12215TIP3   OH258135   2.858   1.928   3.758 -0.3298 -0.3507 -0.2898
12215TIP3    H158136   2.899   1.966   3.681 -0.0896  0.3335  0.1795
12215TIP3    H258137   2.764   1.945   3.746 -0.3137 -0.4194 -0.5223
12216TIP3   OH258138   1.375   5.081   4.391 -0.8755  0.6155 -0.2443
12216TIP3    H158139   1.317   5.144   4.434 -2.8824 -0.7716 -0.8131
12216TIP3    H258140   1.371   5.104   4.298  0.8718  1.5937 -0.0779
12217TIP3   OH258141   3.990   3.506  17.190  0.1824 -0.4857  0.3302
12217TIP3    H158142   4.019   3.488  17.280 -1.9265 -1.9740  0.7463
12217TIP3    H258143   3.988   3.420  17.148 -1.3321 -0.1248 -0.3657
12218TIP3   OH258144   2.016   4.817  11.980 -0.5545 -0.5319  0.0894
12218TIP3    H158145   1.925   4.794  11.960 -0.3549  0.3869 -2.0635
12218TIP3    H258146   2.019   4.823  12.076 -3.0682  0.6705  0.1307
12219TIP3   OH258147   6.170   4.286  14.976  0.1450 -0.3395 -0.0562
12219TIP3    H158148   6.198   4.231  14.903  0.0827 -0.3961 -0.0372
12219TIP3    H258149   6.078   4.263  14.989  0.1020 -0.1905 -0.0867
12220TIP3   OH258150   5.158   0.366  17.288 -0.2076 -0.0381 -0.1376
12220TIP3    H158151   5.120   0.337  17.206 -1.1433  2.1076 -0.4973
12220TIP3    H258152   5.251   0.376  17.270 -0.2725 -0.4393 -0.6800
12221TIP3   OH258153   2.556   3.175   6.203 -0.1359  0.1360 -0.1009
12221TIP3    H158154   2.579   3.119   6.129  0.2957  0.7470 -0.4254
12221TIP3    H258155   2.593   3.130   6.279  0.3524  0.0632 -0.3818
12222TIP3   OH258156   4.611   6.170   5.903  0.3469  0.4980  0.0775
12222TIP3    H158157   4.548   6.213   5.960  1.0847 -0.8430  1.9354
12222TIP3    H258158   4.556   6.117   5.843 -0.3139 -0.6262  1.6450
12223TIP3   OH258159   6.286   3.374   2.800  0.6086  0.1131  0.0473
12223TIP3    H158160   6.210   3.429   2.781 -0.0825 -1.1644 -0.9479
12223TIP3    H258161   6.355   3.436   2.823 -0.3182  1.3594 -0.4832
12224TIP3   OH258162   1.296   6.325  14.360  0.6180  0.1339  0.8294
12224TIP3    H158163   1.359   6.334  14.289 -1.2439  0.6721 -0.7944
12224TIP3    H258164   1.272   6.232  14.359  0.9066  0.0567  1.0367
12225TIP3   OH258165   0.962   1.315  16.722 -0.1526 -0.8029 -0.0767
12225TIP3    H158166   1.030   1.382  16.718 -2.1310  1.2960  0.3239
12225TIP3    H258167   0.929   1.309  16.632 -0.7301 -0.4332  0.1079
12226TIP3   OH258168   3.049   4.534   3.198  0.0992 -0.1142 -0.2740
12226TIP3    H158169   3.069   4.451   3.241  2.8913 -0.2841 -1.7897
12226TIP3    H258170   3.020   4.510   3.110 -0.7802  0.4722 -0.1630
12227TIP3   OH258171   3.326   3.578   3.267 -0.8458  0.5769 -0.3044
12227TIP3    H158172   3.321   3.604   3.175  2.5373 -0.0792 -0.7268
12227TIP3    H258173   3.409   3.531   3.275 -2.2398 -1.5920  2.5528
12228TIP3   OH258174   5.429   4.578  16.216 -0.2888 -0.4825 -0.4740
12228TIP3    H158175   5.504   4.561  16.273 -0.2127 -0.8374 -0.6853
12228TIP3    H258176   5.432   4.509  16.150  1.6065  1.8334 -2.9379
12229TIP3   OH258177   5.080   1.992   0.250 -1.1069 -0.3223  0.0813
12229TIP3    H158178   5.062   2.080   0.217  0.4955  0.8638  2.2241
12229TIP3    H258179   5.175   1.989   0.259 -1.1833 -2.0851  0.5615
12230TIP3   OH258180   1.487   1.594   4.124 -0.1017  0.1264  0.1162
12230TIP3    H158181   1.430   1.540   4.178 -1.1180 -0.6916 -1.7309
12230TIP3    H258182   1.444   1.680   4.123 -1.1137 -0.3793 -0.9437
12231TIP3   OH258183   4.402   1.957  13.006 -0.1630  0.0402 -0.5876
12231TIP3    H158184   4.309   1.943  13.021  0.4307 -3.0317  0.6851
12231TIP3    H258185   4.445   1.905  13.074  2.4822  0.7096 -1.6889
12232TIP3   OH258186   4.901   0.900   1.553  0.1622  0.2502 -0.3008
12232TIP3    H158187   4.870   0.841   1.622 -2.0217  1.8453  0.1448
12232TIP3    H258188   4.820   0.934   1.513  1.2781  4.2198  0.5938
12233TIP3   OH258189   5.125   6.102  14.391  0.4774  0.0078 -0.0070
12233TIP3    H158190   5.132   6.194  14.369 -0.9651  0.4376  1.2228
12233TIP3    H258191   5.174   6.057  14.322 -1.1301  1.5068 -2.2001
12234TIP3   OH258192   1.682   0.935  14.693  0.5740 -0.3570 -0.3457
12234TIP3    H158193   1.777   0.941  14.706  0.3311  0.7853  1.1031
12234TIP3    H258194   1.670   0.950  14.599  1.7736  0.4358 -0.3946
12235TIP3   OH258195   5.794   0.552  10.410  0.0609 -0.2315  0.4065
12235TIP3    H158196   5.804   0.647  10.410  0.1555 -0.1999  3.3307
12235TIP3    H258197   5.859   0.521  10.474  0.0200 -2.2556 -0.4968
12236TIP3   OH258198   1.437   1.286   0.197 -0.1571 -0.1365 -0.5264
12236TIP3    H158199   1.398   1.341   0.129  2.5989  1.7338 -0.6565
12236TIP3    H258200   1.395   1.317   0.278 -0.7022  0.1949 -0.9275
12237TIP3   OH258201   6.778   2.361  13.391 -0.3062 -0.4376 -0.6431
12237TIP3    H158202   6.872   2.369  13.407 -0.6496  0.2598  1.1265
12237TIP3    H258203   6.761   2.267  13.399  0.2951 -0.6178 -1.3640
12238TIP3   OH258204   2.120   2.328  16.529  0.3819  0.0943 -0.1493
12238TIP3    H158205   2.126   2.261  16.462  0.9473  0.1566 -0.1676
12238TIP3    H258206   2.205   2.371  16.528 -0.1319  1.1144 -0.4515
12239TIP3   OH258207   1.107   6.645   0.861 -0.0773  0.5370 -0.0436
12239TIP3    H158208   1.124   6.631   0.768  0.0467 -0.5833  0.1450
12239TIP3    H258209   1.166   6.717   0.885 -2.6725  3.2958 -1.6360
12240TIP3   OH258210   1.200   4.354   3.538 -0.2448 -0.0904  0.3558
12240TIP3    H158211   1.142   4.290   3.578 -0.4309 -0.3293 -0.2912
12240TIP3    H258212   1.144   4.401   3.475 -0.7026  2.2594  2.4403
12241TIP3   OH258213   0.315   5.097  16.207  0.5228  0.3197  0.1899
12241TIP3    H158214   0.377   5.079  16.278 -0.2920  1.1511  1.1087
12241TIP3    H258215   0.339   5.184  16.176  1.5496 -0.4531 -1.2739
12242TIP3   OH258216   0.762   5.648   3.661  0.3602  0.5949 -0.1554
12242TIP3    H158217   0.838   5.622   3.715  1.0807  0.6487 -1.1367
12242TIP3    H258218   0.740   5.736   3.693 -0.3392 -0.0851  1.2701
12243TIP3   OH258219   5.205   5.019  15.911  0.0119  0.0771  0.5675
12243TIP3    H158220   5.125   5.043  15.958  0.2043  1.1373  0.3641
12243TIP3    H258221   5.233   4.937  15.952 -1.5872 -0.7045  0.1366
12244TIP3   OH258222   3.944   6.816  13.046  0.0833  0.4210  0.6556
12244TIP3    H158223   3.849   6.824  13.052 -0.0273 -1.1525  1.1309
12244TIP3    H258224   3.976   6.843  13.133 -0.1325 -1.7880  1.4506
12245TIP3   OH258225   3.905   2.242   3.365 -0.0464  0.4539 -0.4939
12245TIP3    H158226   3.968   2.299   3.320 -0.3525 -0.9106 -2.6878
12245TIP3    H258227   3.863   2.300   3.429  0.5414  2.3965 -1.8018
12246TIP3   OH258228   3.550   4.391   4.916  0.3424  0.0987 -0.7962
12246TIP3    H158229   3.533   4.314   4.970  1.5679 -1.3092 -2.3838
12246TIP3    H258230   3.519   4.465   4.969  3.1727 -1.0291  2.6180
12247TIP3   OH258231   2.621   3.501   5.652 -0.3884 -0.2207  0.3985
12247TIP3    H158232   2.633   3.586   5.608  0.8074 -0.2419  0.6709
12247TIP3    H258233   2.527   3.486   5.648 -0.3360 -0.1447 -2.0314
12248TIP3   OH258234   3.400   6.459   5.494  0.1337  0.3681 -0.5288
12248TIP3    H158235   3.332   6.470   5.560  1.0061  0.4022  0.3861
12248TIP3    H258236   3.443   6.377   5.516 -1.2556 -0.9775 -2.6455
12249TIP3   OH258237   3.949   6.740   1.884  0.6496  0.0422 -0.1220
12249TIP3    H158238   3.974   6.652   1.856 -0.6971 -0.1651 -0.7229
12249TIP3    H258239   4.011   6.762   1.954  0.6235 -1.6223  0.4408
12250TIP3   OH258240   6.412   4.300  14.653  0.5037 -0.0517  0.1463
12250TIP3    H158241   6.501   4.307  14.688  0.8257  0.1497 -0.7071
12250TIP3    H258242   6.375   4.387  14.664  1.0524  0.3559 -1.2091
12251TIP3   OH258243   1.436   4.533   5.127 -0.3290  0.6344 -0.2678
12251TIP3    H158244   1.466   4.444   5.111  0.8408  1.2414 -1.5105
12251TIP3    H258245   1.351   4.523   5.170 -0.1604 -1.0682 -0.3323
12252TIP3   OH258246   3.036   6.220  14.249  0.0872  0.1355  0.1467
12252TIP3    H158247   3.131   6.217  14.255  0.0485  0.3300  0.9053
12252TIP3    H258248   3.009   6.273  14.324 -0.5823  0.5397 -0.3818
12253TIP3   OH258249   3.392   1.948   5.464  0.3555  0.5965 -0.3134
12253TIP3    H158250   3.342   1.887   5.411  1.3968  0.1906 -0.8420
12253TIP3    H258251   3.365   1.930   5.554  2.4151 -2.3475 -0.2098
12254TIP3   OH258252   0.036   1.936   6.235 -0.0271 -0.1452 -0.0987
12254TIP3    H158253   0.096   1.874   6.275 -0.2356  0.3214  0.9484
12254TIP3    H258254   0.089   2.014   6.218 -0.0762 -0.1348 -0.2084
12255TIP3   OH258255   0.091   3.322   5.701 -0.4902  0.0686 -0.5854
12255TIP3    H158256   0.143   3.316   5.621  1.6784 -0.5790  0.8476
12255TIP3    H258257   0.110   3.409   5.736 -0.0974 -0.2992  0.1252
12256TIP3   OH258258   2.802   5.252  12.291 -0.4697 -0.2538 -0.0750
12256TIP3    H158259   2.711   5.282  12.290 -0.1256  0.9856  2.3085
12256TIP3    H258260   2.850   5.323  12.333  2.2024  0.5932 -4.1797
12257TIP3   OH258261   2.937   3.277   5.103 -0.2664  0.4640 -0.0820
12257TIP3    H158262   2.848   3.251   5.080  0.5354 -2.6068  0.0815
12257TIP3    H258263   2.992   3.225   5.044  1.4419  1.6728  0.4271
12258TIP3   OH258264   0.424   0.693   0.287  0.3490 -0.3551  0.0443
12258TIP3    H158265   0.329   0.681   0.288  0.3948 -0.6855  1.0010
12258TIP3    H258266   0.449   0.693   0.379  0.8137  3.4605  0.0065
12259TIP3   OH258267   5.313   3.987   4.645  0.0936 -0.1541 -0.1050
12259TIP3    H158268   5.308   4.014   4.736  0.1240 -0.3648 -0.0405
12259TIP3    H258269   5.363   3.905   4.647 -0.0477 -0.2453 -0.2912
12260TIP3   OH258270   6.249   2.192  13.219 -0.1671 -0.1331  0.6989
12260TIP3    H158271   6.173   2.239  13.186 -0.1411 -1.7342 -1.8202
12260TIP3    H258272   6.214   2.112  13.257  0.1313 -0.0819  1.0883
12261TIP3   OH258273   1.314   1.788   4.745  0.0393  0.2491  0.0393
12261TIP3    H158274   1.264   1.829   4.815 -0.7889 -2.0570  0.8370
12261TIP3    H258275   1.299   1.844   4.669 -2.6236  0.3796  0.6179
12262TIP3   OH258276   4.699   4.500   6.726 -0.1055 -0.6211  0.1124
12262TIP3    H158277   4.789   4.490   6.695 -0.6480 -2.1306 -1.0480
12262TIP3    H258278   4.686   4.426   6.785 -1.4100 -1.9320 -1.7723
12263TIP3   OH258279   0.889   4.245  11.048 -0.2245 -0.0354 -0.2145
12263TIP3    H158280   0.942   4.179  11.003 -0.1656 -0.2298  0.1364
12263TIP3    H258281   0.914   4.237  11.140 -0.2866  0.4134 -0.1593
12264TIP3   OH258282   1.294   0.796   5.198  0.2650  0.2341 -0.0831
12264TIP3    H158283   1.307   0.812   5.292  0.7899  0.2762 -0.1613
12264TIP3    H258284   1.221   0.853   5.174 -0.3258 -0.3015  0.4508
12265TIP3   OH258285   0.285   5.945  16.247 -1.0343  0.3048  0.0679
12265TIP3    H158286   0.315   5.964  16.159 -1.8592 -0.0352 -0.2891
12265TIP3    H258287   0.328   5.862  16.270 -0.4574  0.6336  0.1602
12266TIP3   OH258288   3.240   4.139   2.166 -0.3144 -0.0009 -0.8834
12266TIP3    H158289   3.230   4.232   2.187  0.7146 -0.0892  0.0745
12266TIP3    H258290   3.156   4.100   2.190  0.7766 -0.1133  3.2905
12267TIP3   OH258291   3.295   0.481  13.586 -0.0039  0.5650 -0.3189
12267TIP3    H158292   3.230   0.430  13.537 -0.7104  1.0416  0.1135
12267TIP3    H258293   3.342   0.530  13.518 -0.3961  0.5593 -0.5989
12268TIP3   OH258294   6.211   3.275  16.263  0.3295  0.3814 -0.4497
12268TIP3    H158295   6.165   3.206  16.310 -0.7550  0.4332 -1.4207
12268TIP3    H258296   6.284   3.231  16.219  0.9253  0.2205  0.6677
12269TIP3   OH258297   4.515   4.506  11.476  0.0761  0.2688 -0.0753
12269TIP3    H158298   4.442   4.556  11.438  0.6847  0.1743 -1.3855
12269TIP3    H258299   4.517   4.534  11.568 -2.9375 -1.3046  0.5171
12270TIP3   OH258300   1.219   3.124  14.126 -0.9454 -0.2532 -0.2218
12270TIP3    H158301   1.276   3.180  14.073 -1.8402 -0.8671 -1.8884
12270TIP3    H258302   1.215   3.166  14.212  1.0858  0.4107 -0.4348
12271TIP3   OH258303   4.536   4.851  12.421  0.1293  0.6598  0.1109
12271TIP3    H158304   4.447   4.821  12.442 -0.5627  1.4646 -1.6136
12271TIP3    H258305   4.586   4.835  12.501 -0.6877 -3.2086 -0.0192
12272TIP3   OH258306   2.262   0.608  12.183  0.3557  0.6246  0.0353
12272TIP3    H158307   2.324   0.680  12.192  1.0662 -0.0503  0.6223
12272TIP3    H258308   2.266   0.584  12.091 -0.4713  1.8517 -0.3280
12273TIP3   OH258309   1.652   1.479   4.426 -0.4077 -0.5034 -0.1912
12273TIP3    H158310   1.573   1.494   4.373  0.3493  3.3351 -0.3842
12273TIP3    H258311   1.724   1.493   4.365  0.4710 -2.0495  0.4692
12274TIP3   OH258312   6.156   0.748  11.903 -0.2425  0.6475  0.2672
12274TIP3    H158313   6.066   0.741  11.937  0.0838  1.0011  1.2201
12274TIP3    H258314   6.149   0.810  11.831 -0.6949  1.0166  0.6181
12275TIP3   OH258315   0.741   5.015  14.366  0.2872 -0.0257  0.6063
12275TIP3    H158316   0.710   4.964  14.291  2.4035  1.3362 -1.2530
12275TIP3    H258317   0.808   4.960  14.406 -1.3480 -1.0617  1.9517
12276TIP3   OH258318   0.166   2.442   2.039 -0.7598 -0.3073 -0.0277
12276TIP3    H158319   0.193   2.457   2.129  1.9032 -0.8659 -0.6882
12276TIP3    H258320   0.115   2.520   2.016 -0.5794  0.3191  1.6228
12277TIP3   OH258321   3.040   3.747   0.072  0.1736  0.2399  0.2942
12277TIP3    H158322   3.041   3.703   0.157  2.3079  1.5153  0.9755
12277TIP3    H258323   3.032   3.840   0.093  0.3565  0.5392 -0.9066
12278TIP3   OH258324   0.825   2.779  12.709  0.0906  0.2557  0.4201
12278TIP3    H158325   0.893   2.750  12.647  0.7071 -1.1000  1.7090
12278TIP3    H258326   0.743   2.774  12.658  0.8435  1.1950 -0.9159
12279TIP3   OH258327   0.429   6.443   1.922  0.4959  0.2306  0.0446
12279TIP3    H158328   0.518   6.409   1.921  0.2057 -0.5525 -1.9761
12279TIP3    H258329   0.375   6.369   1.892 -0.6109  1.2463 -0.4937
12280TIP3   OH258330   4.844   0.246   2.313 -0.5506  0.4752  0.9391
12280TIP3    H158331   4.760   0.232   2.357 -0.3214  0.7067  1.4575
12280TIP3    H258332   4.821   0.257   2.221 -1.0088 -0.3069  0.9514
12281TIP3   OH258333   5.240   0.277   2.476  0.4490 -0.4803  0.1956
12281TIP3    H158334   5.174   0.285   2.407  0.6281 -1.6435 -0.1303
12281TIP3    H258335   5.311   0.336   2.449  0.5386 -0.9659 -0.6492
12282TIP3   OH258336   2.844   5.182   1.163  0.2882  0.3598 -0.1835
12282TIP3    H158337   2.857   5.256   1.104 -0.7711  0.2944 -0.5231
12282TIP3    H258338   2.792   5.217   1.235 -0.1732 -0.0228 -0.3211
12283TIP3   OH258339   2.492   1.791   0.131 -0.7693  0.3362  0.1732
12283TIP3    H158340   2.525   1.798   0.041 -0.6563 -0.7579  0.1194
12283TIP3    H258341   2.480   1.881   0.159  1.5348  0.7695 -0.0979
12284TIP3   OH258342   2.821   1.713  16.880 -0.3919  0.0305  0.7016
12284TIP3    H158343   2.767   1.782  16.843  1.3088  1.5446  0.9436
12284TIP3    H258344   2.825   1.733  16.974  0.7102  0.0436  0.6613
12285TIP3   OH258345   2.928   6.405  11.452  0.6058 -0.5775  0.3087
12285TIP3    H158346   2.908   6.463  11.525 -2.8017 -2.0145  0.6518
12285TIP3    H258347   2.849   6.406  11.398  2.6911 -0.3136 -2.8609
12286TIP3   OH258348   5.240   0.744   1.475  0.0719 -0.0398 -0.5423
12286TIP3    H158349   5.190   0.709   1.549  1.9657 -1.4082  0.1272
12286TIP3    H258350   5.203   0.700   1.399  0.1932 -0.9888 -0.0639
12287TIP3   OH258351   4.465   0.646  14.948  0.2936 -0.7921 -1.0823
12287TIP3    H158352   4.531   0.589  14.987  1.6957  1.5680  0.1726
12287TIP3    H258353   4.501   0.669  14.862  0.1911 -1.0204 -1.1869
12288TIP3   OH258354   0.468   5.602   0.810  0.5152 -0.1151  0.2923
12288TIP3    H158355   0.449   5.678   0.755 -0.3331 -1.2113 -0.9475
12288TIP3    H258356   0.532   5.634   0.873 -0.1338  1.7450  0.0477
12289TIP3   OH258357   2.497   5.982  14.220 -0.3817  0.1449 -0.5316
12289TIP3    H158358   2.510   5.923  14.294 -1.4674  0.1101 -0.3688
12289TIP3    H258359   2.557   5.949  14.152 -1.2867 -1.4033 -0.5979
12290TIP3   OH258360   2.751   0.972   5.344  0.5729 -0.0439 -0.6384
12290TIP3    H158361   2.812   0.971   5.418  0.5288 -0.8593 -0.6003
12290TIP3    H258362   2.798   1.018   5.274  0.6224  0.7141 -0.1140
12291TIP3   OH258363   1.595   1.229  13.916  0.1174 -0.3018  0.3262
12291TIP3    H158364   1.603   1.139  13.948 -1.9083 -0.8977 -0.7156
12291TIP3    H258365   1.677   1.271  13.942  1.3521 -2.6005  0.3422
12292TIP3   OH258366   4.854   1.582   4.076 -0.6353  0.1735  0.3256
12292TIP3    H158367   4.835   1.488   4.084 -1.2955  0.5125  3.1502
12292TIP3    H258368   4.941   1.593   4.116  0.0796  0.5855 -1.2737
12293TIP3   OH258369   1.217   6.625  11.171 -0.4097  0.1221  0.2552
12293TIP3    H158370   1.295   6.677  11.194  0.2227 -0.5318 -0.4180
12293TIP3    H258371   1.224   6.610  11.077 -0.4849 -1.3619  0.4745
12294TIP3   OH258372   4.681   1.510  17.052  0.7272  0.3588 -0.5608
12294TIP3    H158373   4.774   1.527  17.040  0.6649  1.9271  0.9835
12294TIP3    H258374   4.677   1.419  17.081  1.9232  0.7615  0.9246
12295TIP3   OH258375   1.568   0.044  10.507 -0.0822  0.3592 -0.5673
12295TIP3    H158376   1.603   0.034  10.595  0.1643 -2.5371 -0.9386
12295TIP3    H258377   1.474   0.056  10.519 -0.1968 -1.0670  0.0805
12296TIP3   OH258378   1.721   5.631  11.235  0.2700  0.2012 -0.5850
12296TIP3    H158379   1.629   5.648  11.216  0.0957 -0.6269 -0.5076
12296TIP3    H258380   1.729   5.649  11.329  0.6713  2.3162 -1.0115
12297TIP3   OH258381   1.875   2.588  14.523 -0.6470  0.3662  0.9109
12297TIP3    H158382   1.797   2.625  14.482  0.6329  1.0095 -1.0165
12297TIP3    H258383   1.873   2.495  14.499 -0.4589  0.5302  0.2370
12298TIP3   OH258384   2.926   4.255  15.851  0.0827  0.2480  0.3072
12298TIP3    H158385   2.895   4.167  15.830 -0.9950  1.1322 -2.0275
12298TIP3    H258386   3.009   4.263  15.805 -0.8956  1.1923 -1.3539
12299TIP3   OH258387   0.868   5.186   6.125  0.6096  0.3350 -0.4139
12299TIP3    H158388   0.882   5.265   6.074  1.8128 -0.4153 -1.2896
12299TIP3    H258389   0.907   5.116   6.073  0.5533 -0.6781  0.8509
12300TIP3   OH258390   6.590   0.255   6.039  0.1526  0.5059  0.4678
12300TIP3    H158391   6.529   0.322   6.010  0.4649 -0.9130 -3.7751
12300TIP3    H258392   6.541   0.205   6.105 -2.2541  1.1645 -0.7525
12301TIP3   OH258393   5.519   2.538   2.715 -0.1047  0.3442 -0.2793
12301TIP3    H158394   5.505   2.618   2.765  1.7319  0.9000 -0.5867
12301TIP3    H258395   5.521   2.468   2.780 -1.3416  0.5909  0.0303
12302TIP3   OH258396   1.697   4.549   4.491 -0.0711 -0.2829 -0.4854
12302TIP3    H158397   1.628   4.608   4.460  0.6081  0.4767 -0.5650
12302TIP3    H258398   1.690   4.472   4.435 -0.3339  0.1310 -1.0243
12303TIP3   OH258399   6.219   3.260  17.192  0.7310  0.0784  0.4093
12303TIP3    H158400   6.167   3.191  17.234  2.1143 -0.5399  1.1577
12303TIP3    H258401   6.306   3.251  17.231  1.7212  0.3364 -1.6494
12304TIP3   OH258402   2.834   4.558  15.404 -0.2402  0.7614 -0.0292
12304TIP3    H158403   2.844   4.473  15.363 -0.9160  0.5797  0.1722
12304TIP3    H258404   2.834   4.539  15.498 -2.8793  0.6815 -0.0130
12305TIP3   OH258405   6.623   5.186  17.046  0.2867  0.7589  0.2030
12305TIP3    H158406   6.691   5.219  16.987  2.1158  0.4282  2.0586
12305TIP3    H258407   6.602   5.261  17.102  0.1444  0.4591  0.5536
12306TIP3   OH258408   6.601   6.182   3.000 -0.1518  0.0324 -0.6690
12306TIP3    H158409   6.558   6.111   3.048  1.8559 -1.8481 -1.5310
12306TIP3    H258410   6.540   6.205   2.931 -1.0196 -0.5646 -0.1045
12307TIP3   OH258411   2.040   5.472  12.197  0.1769 -0.0752 -0.0523
12307TIP3    H158412   2.094   5.449  12.121  1.7677  1.3837  0.6103
12307TIP3    H258413   2.096   5.453  12.273 -0.7670  0.0932  0.6892
12308TIP3   OH258414   5.623   6.242  12.042  0.6900  0.1920 -0.6075
12308TIP3    H158415   5.603   6.307  11.975 -1.6311 -0.2159 -0.3366
12308TIP3    H258416   5.612   6.158  11.999 -0.0065 -0.0613  0.0457
12309TIP3   OH258417   5.650   6.500   0.501 -0.4663 -0.6382  0.3554
12309TIP3    H158418   5.698   6.518   0.582  0.7816 -1.3324 -0.2011
12309TIP3    H258419   5.639   6.586   0.460 -0.6034 -0.3490  0.9982
12310TIP3   OH258420   5.044   1.854   2.170  0.4436 -0.4520  0.2203
12310TIP3    H158421   4.950   1.838   2.181  0.7257 -1.0732  1.8836
12310TIP3    H258422   5.051   1.900   2.087 -1.6039  2.0060  1.3295
12311TIP3   OH258423   4.752   4.067  12.173  0.0522 -0.3354  0.2435
12311TIP3    H158424   4.691   4.100  12.239  0.5169  0.3449  0.3412
12311TIP3    H258425   4.713   3.985  12.143  0.3069 -1.1471  2.0428
12312TIP3   OH258426   3.413   1.179   1.407  0.3187  0.1572 -0.9468
12312TIP3    H158427   3.342   1.143   1.355 -1.2732 -0.1474  1.3640
12312TIP3    H258428   3.399   1.143   1.495  3.1926  0.2748 -0.3937
12313TIP3   OH258429   4.463   3.380  11.581 -0.1901  0.3131 -0.3735
12313TIP3    H158430   4.407   3.421  11.515 -0.0706 -1.2185 -1.4576
12313TIP3    H258431   4.529   3.333  11.530 -0.8197 -1.8934  0.7885
12314TIP3   OH258432   0.561   2.325  15.535 -0.3393  0.3215  0.4462
12314TIP3    H158433   0.492   2.268  15.501 -1.7938  0.1540  3.4848
12314TIP3    H258434   0.520   2.370  15.609  2.4451  1.1731  1.5361
12315TIP3   OH258435   1.201   0.601  12.349  0.3268 -0.6009 -0.0745
12315TIP3    H158436   1.236   0.518  12.383  0.1596 -1.4828 -1.9986
12315TIP3    H258437   1.113   0.606  12.385 -0.0013 -1.7269 -0.7063
12316TIP3   OH258438   5.487   3.164  13.006  0.0009 -0.3637  0.1585
12316TIP3    H158439   5.467   3.078  12.969  1.0520 -1.6690  2.5095
12316TIP3    H258440   5.573   3.186  12.970 -0.7915  0.3167 -1.4084
12317TIP3   OH258441   3.328   3.478  16.204  0.3240 -0.0961 -0.6914
12317TIP3    H158442   3.392   3.411  16.231 -2.1315 -1.8984  0.9788
12317TIP3    H258443   3.351   3.555  16.256  1.4245 -0.5507 -0.4767
12318TIP3   OH258444   5.265   4.130  11.822 -0.3053  0.0274  0.5704
12318TIP3    H158445   5.320   4.191  11.773  0.8842  0.0432  1.9058
12318TIP3    H258446   5.176   4.165  11.813  0.3027  1.6788  0.9246
12319TIP3   OH258447   2.952   1.618   4.265 -0.4770 -0.3671  0.0088
12319TIP3    H158448   2.873   1.645   4.313  1.0003  3.3297  0.5625
12319TIP3    H258449   2.936   1.647   4.175 -0.1043 -0.3197 -0.0418
12320TIP3   OH258450   1.618   1.468   0.043 -0.1790  0.2280 -0.4729
12320TIP3    H158451   1.595   1.412  -0.031  0.1853 -0.3509 -0.1533
12320TIP3    H258452   1.609   1.557   0.010 -1.6435  0.0008 -0.7314
12321TIP3   OH258453   0.659   6.517  14.557 -0.2140  0.6906 -0.4003
12321TIP3    H158454   0.623   6.491  14.641 -1.1168  1.5119 -0.5325
12321TIP3    H258455   0.707   6.598  14.575  0.3583  0.3828 -0.5067
12322TIP3   OH258456   6.284   3.322  14.885 -0.0862 -0.0477 -0.1414
12322TIP3    H158457   6.189   3.311  14.880 -0.1116  0.1528 -0.1129
12322TIP3    H258458   6.316   3.242  14.926 -0.2181 -0.2221 -0.3782
12323TIP3   OH258459   3.212   1.271   1.992  0.5419  0.0963  0.0693
12323TIP3    H158460   3.261   1.353   1.983  2.5191 -1.1867 -0.9751
12323TIP3    H258461   3.165   1.262   1.909  1.4359 -0.5361 -0.3730
12324TIP3   OH258462   6.684   6.352   0.198  0.1693 -0.4189 -0.1871
12324TIP3    H158463   6.717   6.262   0.202  2.6704  0.4866  0.2615
12324TIP3    H258464   6.718   6.393   0.278 -0.4179  1.1068 -0.7150
12325TIP3   OH258465   5.742   3.257   1.299 -0.1007  0.6173 -0.0650
12325TIP3    H158466   5.735   3.178   1.245 -0.5637 -0.2140  1.1883
12325TIP3    H258467   5.695   3.235   1.380  0.3559  1.9374  0.5714
12326TIP3   OH258468   0.594   4.497  13.936 -0.3420 -0.4959  0.4903
12326TIP3    H158469   0.609   4.441  13.860  0.3124  0.6440 -0.2439
12326TIP3    H258470   0.546   4.442  13.998 -2.3712 -0.9010 -1.4185
12327TIP3   OH258471   1.723   6.793  11.546 -0.4426  0.2969 -0.0264
12327TIP3    H158472   1.767   6.716  11.582 -0.3250  0.0808 -0.6357
12327TIP3    H258473   1.629   6.772  11.553 -0.4661  0.8255  1.4242
12328TIP3   OH258474   0.868   4.789   4.759 -0.5898 -0.6855  0.7180
12328TIP3    H158475   0.814   4.867   4.751  0.3449 -0.1758 -0.9469
12328TIP3    H258476   0.806   4.716   4.765 -1.4689 -0.1016 -1.0723
12329TIP3   OH258477   2.447   5.620  11.702  0.3998  0.0960 -0.1584
12329TIP3    H158478   2.542   5.630  11.714  0.1044  1.1673  1.4065
12329TIP3    H258479   2.409   5.655  11.783 -1.2747 -1.7906 -0.0990
12330TIP3   OH258480   2.409   5.397  12.505 -0.0932 -0.2535  0.4422
12330TIP3    H158481   2.462   5.441  12.572  1.3199 -1.0914 -0.1084
12330TIP3    H258482   2.333   5.454  12.492  0.7056  0.9800  1.1992
12331TIP3   OH258483   6.642   5.759  14.796 -0.1687  0.1861  0.5803
12331TIP3    H158484   6.710   5.692  14.801 -0.6121 -0.3555 -0.5137
12331TIP3    H258485   6.685   5.834  14.754 -0.8968 -1.0518 -2.5361
12332TIP3   OH258486   0.986   4.937   3.138 -0.0072  0.5720 -0.0992
12332TIP3    H158487   0.937   4.979   3.068 -1.6817 -2.4423 -0.8209
12332TIP3    H258488   1.053   4.885   3.093  1.6414  1.9602  0.7339
12333TIP3   OH258489   6.003   5.219   1.614 -0.6154 -0.3998 -0.2890
12333TIP3    H158490   5.942   5.271   1.562 -2.4734  0.4156  2.6421
12333TIP3    H258491   6.071   5.280   1.640 -2.5334  0.5439  2.7279
12334TIP3   OH258492   6.027   3.927  14.895  0.1730 -0.0580  0.7793
12334TIP3    H158493   6.065   3.891  14.976  0.1055 -0.7983  0.4907
12334TIP3    H258494   6.103   3.949  14.842  0.2585 -3.3610 -0.5981
12335TIP3   OH258495   1.786   5.607   0.532  0.3569 -0.2845  0.1216
12335TIP3    H158496   1.790   5.581   0.441  0.6009  0.3276 -0.0438
12335TIP3    H258497   1.812   5.529   0.581 -2.9216 -1.6375 -0.1775
12336TIP3   OH258498   1.040   1.353  11.975  0.3023 -0.2163 -0.0319
12336TIP3    H158499   1.004   1.433  11.937 -0.9841 -0.1859  1.2196
12336TIP3    H258500   1.020   1.285  11.910  0.1094  0.2168 -0.4298
12337TIP3   OH258501   1.257   6.311  10.531  0.0771  0.1690  0.2977
12337TIP3    H158502   1.199   6.368  10.481  3.1461  1.0821 -2.4574
12337TIP3    H258503   1.223   6.223  10.516  0.2043  0.5494 -2.5376
12338TIP3   OH258504   0.504   3.755  16.484  0.2211  0.1952  0.1418
12338TIP3    H158505   0.579   3.813  16.500  1.9970 -2.0417  0.1030
12338TIP3    H258506   0.441   3.780  16.551  0.8259  2.3539 -0.0304
12339TIP3   OH258507   3.190   2.433  12.338  0.1153 -0.6465 -0.2758
12339TIP3    H158508   3.165   2.499  12.273  1.3232  1.2146  1.0913
12339TIP3    H258509   3.280   2.455  12.361 -0.0719 -1.6894  1.5427
12340TIP3   OH258510   1.265   1.998  14.183  0.0798 -0.0886  0.2276
12340TIP3    H158511   1.208   2.042  14.119  0.5250 -1.0274 -0.8338
12340TIP3    H258512   1.219   2.007  14.266 -0.2061  1.7158 -0.1081
12341TIP3   OH258513   0.079   1.124  15.318  0.3977 -0.1960  0.0795
12341TIP3    H158514   0.153   1.170  15.277  0.0632  1.0863  0.8995
12341TIP3    H258515   0.057   1.178  15.394  1.0248 -2.5448  1.9748
12342TIP3   OH258516   5.659   4.281  13.729 -0.0585  0.2250 -0.1842
12342TIP3    H158517   5.618   4.351  13.678  0.3297  0.5030 -0.1154
12342TIP3    H258518   5.703   4.326  13.801  0.9941 -0.0027 -0.6717
12343TIP3   OH258519   2.202   6.468  12.943 -0.2917 -0.0209  0.1287
12343TIP3    H158520   2.196   6.394  12.883  0.8460 -0.5509  0.6645
12343TIP3    H258521   2.119   6.514  12.932 -0.3352 -0.4387 -1.4181
12344TIP3   OH258522   0.269   0.716   4.838  0.1979  0.3422  0.3574
12344TIP3    H158523   0.333   0.682   4.902 -2.4486 -1.9786  1.9065
12344TIP3    H258524   0.200   0.755   4.892 -0.9551  0.4754 -1.1829
12345TIP3   OH258525   6.366   0.223  14.176  0.3076  0.2918  0.0865
12345TIP3    H158526   6.445   0.198  14.128  0.5699  0.2230  0.5571
12345TIP3    H258527   6.397   0.255  14.260 -0.2527 -1.0449  0.8213
12346TIP3   OH258528   0.327   6.105   5.249  0.1303  0.6171 -0.3310
12346TIP3    H158529   0.322   6.023   5.199  0.7100  0.6741 -0.4824
12346TIP3    H258530   0.395   6.156   5.205  0.7711  0.5954  0.6286
12347TIP3   OH258531   3.777   2.478  12.371 -0.1222 -0.1899  0.1151
12347TIP3    H158532   3.788   2.505  12.462 -0.8532  0.1815  0.0948
12347TIP3    H258533   3.682   2.475  12.358 -0.0129  0.3278 -0.8140
12348TIP3   OH258534   2.825   6.543  13.265 -0.3294  0.0321 -0.1274
12348TIP3    H158535   2.832   6.466  13.209  0.4464 -0.4155  0.5745
12348TIP3    H258536   2.807   6.507  13.352  0.0312  0.6384  0.1981
12349TIP3   OH258537   1.952   4.091   3.201 -0.1391 -0.9584 -0.0120
12349TIP3    H158538   2.000   4.052   3.128  0.8442 -0.8409  0.5624
12349TIP3    H258539   1.991   4.178   3.211 -1.6782 -0.1778 -0.6808
12350TIP3   OH258540   4.665   0.214  16.288 -0.1820 -0.1130  0.2255
12350TIP3    H158541   4.626   0.131  16.316 -1.8258  0.6430  0.2364
12350TIP3    H258542   4.687   0.259  16.370  1.1749 -0.7456  0.2160
12351TIP3   OH258543   6.050   2.556  14.724  0.3800 -0.7376 -0.2480
12351TIP3    H158544   5.964   2.598  14.712 -0.5054 -2.9778 -2.0084
12351TIP3    H258545   6.031   2.476  14.772  1.5703 -1.0293 -0.2560
12352TIP3   OH258546   3.638   2.025   4.050 -0.2240  0.2925  0.4408
12352TIP3    H158547   3.646   1.936   4.014 -2.9776 -0.2478  1.0613
12352TIP3    H258548   3.600   2.077   3.980 -0.0107  0.6331  0.5775
12353TIP3   OH258549   5.592   1.373   6.714 -0.2234 -0.0116  0.1011
12353TIP3    H158550   5.571   1.422   6.793 -0.0304 -1.9477  1.3838
12353TIP3    H258551   5.686   1.386   6.701 -0.3037  0.5123  0.0378
12354TIP3   OH258552   2.683   0.258  11.119 -0.0176 -0.4894 -0.0799
12354TIP3    H158553   2.636   0.328  11.074  0.2090  0.1168  0.6183
12354TIP3    H258554   2.643   0.177  11.087 -2.2256  0.0322  1.2769
12355TIP3   OH258555   3.166   6.725  14.899  0.0793  0.5702  0.3784
12355TIP3    H158556   3.071   6.716  14.897  0.2999 -2.3237  0.7545
12355TIP3    H258557   3.197   6.667  14.830  1.7366 -1.8588  3.0506
12356TIP3   OH258558   3.868   1.909   1.412 -0.0377 -0.0987  0.7647
12356TIP3    H158559   3.927   1.849   1.458 -0.4538 -0.5356  0.7350
12356TIP3    H258560   3.820   1.854   1.351  1.0317  0.6066 -0.7252
12357TIP3   OH258561   5.349   2.302   5.984 -0.4333  0.4293  0.4730
12357TIP3    H158562   5.406   2.329   5.913 -0.2263 -0.4957  0.2762
12357TIP3    H258563   5.328   2.383   6.031 -0.4101  1.0091 -0.5151
12358TIP3   OH258564   5.848   0.912  10.488 -0.2796 -0.4052 -0.0353
12358TIP3    H158565   5.903   0.981  10.524 -0.2581 -0.5982  0.3097
12358TIP3    H258566   5.773   0.907  10.548  0.0621 -1.1497  0.3386
12359TIP3   OH258567   4.389   4.078  16.160 -0.2798 -0.3836 -0.2406
12359TIP3    H158568   4.476   4.112  16.182 -0.1949  0.0269 -1.1963
12359TIP3    H258569   4.378   4.002  16.217  0.8718 -0.6850 -0.4025
12360TIP3   OH258570   4.598   0.470   6.496 -0.5669 -0.0152 -0.1601
12360TIP3    H158571   4.606   0.562   6.473 -0.0792  0.1909  0.7913
12360TIP3    H258572   4.655   0.425   6.434  0.1846  0.4572  0.1745
12361TIP3   OH258573   5.446   5.622   5.582 -0.1471 -0.5289 -0.3463
12361TIP3    H158574   5.404   5.649   5.664 -1.9303 -1.3025 -0.9669
12361TIP3    H258575   5.473   5.531   5.598 -0.1572 -0.5541 -0.4655
12362TIP3   OH258576   1.593   5.197   1.984 -0.3934  0.0867 -0.5819
12362TIP3    H158577   1.646   5.152   2.050 -1.8981 -0.4093  0.3080
12362TIP3    H258578   1.639   5.181   1.902  1.6966  1.0051  0.3698
12363TIP3   OH258579   0.633   1.037   2.002  0.4591  0.0707  0.2212
12363TIP3    H158580   0.728   1.036   2.006  0.4508 -0.0859  0.3579
12363TIP3    H258581   0.613   1.035   1.908  0.6232  2.0360  0.1192
12364TIP3   OH258582   5.872   4.239   5.489  0.1504 -0.0064 -0.5394
12364TIP3    H158583   5.841   4.156   5.526  2.5411 -1.7010 -2.1554
12364TIP3    H258584   5.910   4.286   5.563  0.9709 -1.4381 -0.0209
12365TIP3   OH258585   5.288   4.046  13.974  0.2713 -0.3704  0.9704
12365TIP3    H158586   5.321   4.071  13.888  0.2551 -0.2388  1.0015
12365TIP3    H258587   5.263   3.954  13.966 -1.5647  0.1648  0.2801
12366TIP3   OH258588   4.209   4.665   2.351 -0.0613 -0.2303 -0.3277
12366TIP3    H158589   4.179   4.696   2.436  0.0595 -0.2286 -0.2848
12366TIP3    H258590   4.177   4.730   2.289 -1.9077 -1.2986 -0.5312
12367TIP3   OH258591   3.936   2.159   3.071 -0.0639  0.2754 -0.4415
12367TIP3    H158592   3.891   2.209   3.139 -0.6706  0.4235 -0.9486
12367TIP3    H258593   3.876   2.089   3.048  0.5915 -0.4210 -0.0651
12368TIP3   OH258594   2.939   5.442  15.232 -0.5886  0.3815 -0.2173
12368TIP3    H158595   2.932   5.379  15.303 -1.6704  0.7056 -0.0310
12368TIP3    H258596   2.978   5.393  15.160  0.5489  0.0649  0.6104
12369TIP3   OH258597   5.714   0.510  16.227  0.8944  0.0252  0.1398
12369TIP3    H158598   5.736   0.511  16.133 -1.2083 -1.6514 -0.3895
12369TIP3    H258599   5.619   0.503  16.229  1.1013 -2.7228  2.4133
12370TIP3   OH258600   6.408   1.819   2.324 -0.5728 -0.4023 -0.1761
12370TIP3    H158601   6.408   1.835   2.230  0.3322 -0.2916 -0.1628
12370TIP3    H258602   6.447   1.732   2.334 -0.5741 -0.3722  0.0976
12371TIP3   OH258603   0.769   0.135  12.026  0.3211 -0.1516 -0.1758
12371TIP3    H158604   0.833   0.196  12.065  0.4299 -0.1003 -0.4330
12371TIP3    H258605   0.720   0.189  11.963 -0.2114 -0.1078  0.2743
12372TIP3   OH258606   2.260   5.477  15.362 -0.4240  0.4622 -0.7544
12372TIP3    H158607   2.248   5.527  15.281  1.4798 -0.2124 -1.4729
12372TIP3    H258608   2.309   5.535  15.419 -0.3673  0.3405 -0.6799
12373TIP3   OH258609   1.967   1.783  10.648 -0.3289 -0.2712 -0.3862
12373TIP3    H158610   1.964   1.763  10.741 -0.3254 -0.2355 -0.3790
12373TIP3    H258611   2.046   1.740  10.615  0.5049  1.0000 -0.0706
12374TIP3   OH258612   0.002   3.844  16.437  0.1473 -0.3386 -0.4039
12374TIP3    H158613   0.085   3.877  16.403  0.3786 -0.2824  0.2054
12374TIP3    H258614  -0.064   3.904  16.404  0.5072  0.4190  0.2502
12375TIP3   OH258615   4.208   2.593   3.851  0.3481 -0.7293  0.6806
12375TIP3    H158616   4.173   2.616   3.765  2.3035  3.1411  0.8100
12375TIP3    H258617   4.237   2.502   3.843  0.5236 -0.4046 -2.7300
12376TIP3   OH258618   3.319   2.173  11.805  0.7076  0.0578 -0.1972
12376TIP3    H158619   3.313   2.242  11.871  1.2518  1.7217 -1.8221
12376TIP3    H258620   3.230   2.138  11.797  0.5720  0.1050  1.1343
12377TIP3   OH258621   1.045   2.312  12.933 -0.0664  0.2395 -0.1785
12377TIP3    H158622   1.121   2.270  12.893 -0.3753  1.2737 -1.8991
12377TIP3    H258623   1.033   2.267  13.017  0.4643 -2.1203 -1.3544
12378TIP3   OH258624   4.143   5.606  11.719 -0.6263  0.3672  0.2136
12378TIP3    H158625   4.125   5.690  11.761 -0.2744  0.0201  1.0530
12378TIP3    H258626   4.176   5.629  11.632 -2.6406  1.0688 -0.4020
12379TIP3   OH258627   3.523   6.638  14.706  0.9228  0.7318 -0.1496
12379TIP3    H158628   3.589   6.670  14.645  2.3536 -0.3581  0.7880
12379TIP3    H258629   3.571   6.579  14.765 -1.0111 -0.5998  0.1417
12380TIP3   OH258630   6.276   4.800   5.906 -0.3122 -0.3934 -0.4021
12380TIP3    H158631   6.300   4.857   5.833 -0.1102  1.1742  0.8693
12380TIP3    H258632   6.180   4.803   5.909 -0.2280  1.9817  1.2661
12381TIP3   OH258633   3.059   4.611   0.383  0.2353 -0.0815 -0.4230
12381TIP3    H158634   3.108   4.682   0.425  0.5787 -0.0853 -0.8122
12381TIP3    H258635   3.071   4.536   0.442 -0.8922  0.4182  0.4658
12382TIP3   OH258636   5.193   3.857  11.947  0.0393  0.2745  0.1761
12382TIP3    H158637   5.229   3.936  11.907  1.2857  0.8634  2.3270
12382TIP3    H258638   5.111   3.885  11.987 -0.3493  0.0923 -0.4979
12383TIP3   OH258639   1.823   2.990   1.428  0.0861  0.1506  0.8010
12383TIP3    H158640   1.868   3.061   1.382  0.4097 -0.9016 -0.5021
12383TIP3    H258641   1.887   2.919   1.431 -0.9617 -0.8142  0.2838
12384TIP3   OH258642   5.840   6.714   4.542 -0.7108 -0.1134  0.0305
12384TIP3    H158643   5.812   6.630   4.578 -1.2062  0.1482  0.2668
12384TIP3    H258644   5.759   6.765   4.537 -0.4243  0.3139 -0.2003
12385TIP3   OH258645   3.352   1.347  15.978  0.3580 -0.1648 -0.9294
12385TIP3    H158646   3.370   1.441  15.983  0.7551 -0.2556 -0.7027
12385TIP3    H258647   3.428   1.310  15.933  0.4255 -0.4468 -0.5844
12386TIP3   OH258648   0.748   1.385   5.536  0.3404  0.1417  0.3464
12386TIP3    H158649   0.743   1.439   5.457  0.0590 -1.9909 -1.1132
12386TIP3    H258650   0.839   1.358   5.541 -0.3889 -2.7987 -1.3705
12387TIP3   OH258651   2.709   2.855  11.921 -0.1186 -1.2923 -0.5581
12387TIP3    H158652   2.747   2.828  11.838 -0.0206  1.1329 -1.3348
12387TIP3    H258653   2.762   2.929  11.949 -0.5429 -1.6776  1.3643
12388TIP3   OH258654   3.793   1.090  11.253 -0.1380 -0.3732 -0.6543
12388TIP3    H158655   3.887   1.070  11.262 -0.1537 -0.2829 -0.2881
12388TIP3    H258656   3.755   1.062  11.336 -0.0279  1.9461  0.2261
12389TIP3   OH258657   3.183   4.050  11.369  0.0449  0.4323  0.3530
12389TIP3    H158658   3.111   4.010  11.418 -1.0439  0.9932 -0.7851
12389TIP3    H258659   3.159   4.142  11.360  0.5190  0.4668 -0.6988
12390TIP3   OH258660   1.778   0.747   2.872  0.0249  0.3051 -0.5619
12390TIP3    H158661   1.834   0.817   2.837  0.5589  0.6293  0.8935
12390TIP3    H258662   1.729   0.788   2.943  1.1663 -1.0406  1.0562
12391TIP3   OH258663   1.891   3.256   4.695  0.2779 -0.6261  0.8386
12391TIP3    H158664   1.797   3.261   4.713  0.1689  1.3498 -0.1284
12391TIP3    H258665   1.898   3.259   4.600  1.3946  1.1629  0.9557
12392TIP3   OH258666   5.441   4.772   2.214 -0.6810 -0.2037  1.0073
12392TIP3    H158667   5.419   4.763   2.122  0.3956 -1.1134  0.8230
12392TIP3    H258668   5.536   4.783   2.215 -0.6579 -0.4310  2.0181
12393TIP3   OH258669   3.993   4.139   1.061  0.3352 -0.9356 -0.2050
12393TIP3    H158670   3.913   4.163   1.013 -0.3545 -0.9754  0.9121
12393TIP3    H258671   3.971   4.057   1.105  0.3325  0.0378  1.6678
12394TIP3   OH258672   6.453   0.105  13.125  0.4557 -0.3302  0.6467
12394TIP3    H158673   6.411   0.180  13.166  1.0744 -0.1455  0.9540
12394TIP3    H258674   6.542   0.106  13.160  0.5666 -1.0049  0.3867
12395TIP3   OH258675   5.465   0.055  12.292 -0.1954  0.1058 -0.1038
12395TIP3    H158676   5.546   0.105  12.295  0.6917 -1.1329 -2.0448
12395TIP3    H258677   5.397   0.120  12.277  0.9022  0.7908 -2.3052
12396TIP3   OH258678   3.577   5.604  11.536  0.2610  0.3186  0.3526
12396TIP3    H158679   3.602   5.613  11.628 -0.7965 -0.6296  0.7419
12396TIP3    H258680   3.644   5.652  11.488  2.3378 -1.4136  1.4423
12397TIP3   OH258681   3.159   5.919  16.507 -0.0264 -0.7353 -0.2950
12397TIP3    H158682   3.118   5.965  16.580  1.7196 -2.0579  1.5784
12397TIP3    H258683   3.167   5.829  16.537 -0.7619 -1.6591 -2.7744
12398TIP3   OH258684   1.915   2.227  17.251 -0.1375 -0.6981  0.6226
12398TIP3    H158685   1.861   2.299  17.219 -0.2315  0.7748  3.8629
12398TIP3    H258686   1.999   2.268  17.271  0.5262 -1.9533  0.4541
12399TIP3   OH258687   1.639   0.550  13.541  0.5793  0.0078  0.6734
12399TIP3    H158688   1.596   0.468  13.517  1.1116  0.1922 -0.9468
12399TIP3    H258689   1.724   0.523  13.575  0.7429 -0.1096  0.1685
12400TIP3   OH258690   1.186   5.618  13.549  0.1620 -0.4892 -0.1184
12400TIP3    H158691   1.266   5.671  13.559 -1.0845  1.1546  1.3079
12400TIP3    H258692   1.132   5.668  13.488 -1.1854  0.1105  1.5285
12401TIP3   OH258693   3.501   0.865  11.564  0.8407  0.5754  0.4039
12401TIP3    H158694   3.441   0.795  11.589 -0.1428  1.5740  0.8736
12401TIP3    H258695   3.565   0.822  11.507  0.4266 -0.7628  0.9144
12402TIP3   OH258696   1.454   6.037   5.527 -0.1552  0.8899 -0.3032
12402TIP3    H158697   1.424   6.120   5.490  1.3616  1.2508 -0.7371
12402TIP3    H258698   1.466   6.055   5.620 -1.0074  0.8100 -0.1689
12403TIP3   OH258699   1.950   2.789   1.617  0.1212  0.5124 -0.1832
12403TIP3    H158700   1.975   2.815   1.705 -1.2667 -3.4191  1.4431
12403TIP3    H258701   2.019   2.729   1.588  0.0603  1.0100 -1.4060
12404TIP3   OH258702   2.920   4.127  16.341  0.2165 -0.3332 -0.0202
12404TIP3    H158703   2.951   4.214  16.363 -0.7491  0.1380 -0.4872
12404TIP3    H258704   2.989   4.088  16.288  1.7780 -0.8004  2.2830
12405TIP3   OH258705   1.037   0.310   3.760 -0.0365  0.1924  0.5220
12405TIP3    H158706   0.964   0.273   3.810  0.0191  0.2437  0.6387
12405TIP3    H258707   1.054   0.395   3.801  1.8828 -0.9644  2.2238
12406TIP3   OH258708   4.426   2.345   0.642  0.4389 -0.0125  0.0476
12406TIP3    H158709   4.451   2.253   0.630  0.8028 -0.1092  1.4513
12406TIP3    H258710   4.475   2.393   0.575  1.0454 -0.7213 -0.0179
12407TIP3   OH258711   1.352   1.512  13.016 -0.4933 -0.2356 -0.0939
12407TIP3    H158712   1.445   1.489  13.017 -0.9476 -2.0865  0.2509
12407TIP3    H258713   1.326   1.513  13.108 -0.3945  2.1508 -0.0458
12408TIP3   OH258714   2.922   0.874  16.497  0.1450 -0.1562 -0.5010
12408TIP3    H158715   2.912   0.967  16.475  1.6106  0.9390  2.9872
12408TIP3    H258716   2.841   0.851  16.543  0.8300  0.1826  0.9240
12409TIP3   OH258717   5.145   0.050   1.354  0.5178  0.0625  0.3207
12409TIP3    H158718   5.171   0.062   1.263 -1.8298 -1.5531 -0.6350
12409TIP3    H258719   5.190  -0.029   1.382  1.4290  0.6940  0.6475
12410TIP3   OH258720   6.109   6.480   0.489  0.0592  0.1101  0.2034
12410TIP3    H158721   6.189   6.526   0.513 -0.7497  0.4050  2.3974
12410TIP3    H258722   6.103   6.491   0.394  1.8472  1.3229  0.2095
12411TIP3   OH258723   2.014   3.572   0.929 -0.7914  0.2699  0.6179
12411TIP3    H158724   2.105   3.571   0.960 -0.2484 -0.7039 -0.9447
12411TIP3    H258725   2.012   3.506   0.859 -2.8748 -0.2367  1.1293
12412TIP3   OH258726   1.656   5.902  12.593 -0.7190 -0.0346 -0.0116
12412TIP3    H158727   1.607   5.824  12.618 -0.4515 -0.1873  0.0335
12412TIP3    H258728   1.747   5.881  12.614 -0.7278  0.5381  0.6104
12413TIP3   OH258729   5.998   2.821   4.408  0.5999  0.2328 -0.3351
12413TIP3    H158730   6.003   2.889   4.341  2.5877  0.8284  0.3626
12413TIP3    H258731   6.080   2.830   4.457 -0.7351 -0.2455  2.1040
12414TIP3   OH258732   4.705   0.860  17.165  0.3439 -0.2831 -0.1199
12414TIP3    H158733   4.786   0.895  17.202  0.8649 -0.3863 -1.1515
12414TIP3    H258734   4.637   0.922  17.194  0.9992  0.5944 -0.4414
12415TIP3   OH258735   4.361   2.501   2.474 -0.3617  0.2022  0.0944
12415TIP3    H158736   4.280   2.551   2.483 -0.7031 -0.1490 -0.8882
12415TIP3    H258737   4.430   2.566   2.467 -0.5900  0.5069  0.7089
12416TIP3   OH258738   2.067   4.351  16.652  0.0975 -0.0917 -0.5763
12416TIP3    H158739   1.995   4.361  16.715  0.3450  1.5219 -0.5332
12416TIP3    H258740   2.145   4.381  16.700  0.2114  1.6363 -1.8020
12417TIP3   OH258741   3.335   0.484   0.456 -0.2416  0.3449  0.5771
12417TIP3    H158742   3.393   0.416   0.492 -0.8165 -0.5071 -0.0708
12417TIP3    H258743   3.276   0.505   0.528 -0.3203 -0.1397  0.6568
12418TIP3   OH258744   6.602   0.998  12.734  0.4049  0.4790  0.2602
12418TIP3    H158745   6.513   1.010  12.701  0.2397 -1.7372 -0.1889
12418TIP3    H258746   6.658   1.016  12.659  0.2490  0.3426  0.1095
12419TIP3   OH258747   2.918   4.490   1.685 -0.2023 -0.2919 -0.8257
12419TIP3    H158748   2.995   4.474   1.741 -0.3343  0.2257 -0.4896
12419TIP3    H258749   2.954   4.531   1.606 -0.2886  1.4196 -0.0044
12420TIP3   OH258750   0.557   3.522   3.089 -0.1907  0.1097  0.6965
12420TIP3    H158751   0.473   3.498   3.048  0.2269  0.3100 -0.3078
12420TIP3    H258752   0.598   3.580   3.025  0.9342 -0.3950  0.9539
12421TIP3   OH258753   4.638   6.697   5.852 -0.3023 -0.0714 -0.2892
12421TIP3    H158754   4.680   6.619   5.887 -2.3674 -0.9782  0.2265
12421TIP3    H258755   4.683   6.770   5.894  0.8448 -1.0178  0.1354
12422TIP3   OH258756   1.831   6.663   5.821 -0.2433 -0.6785 -0.0136
12422TIP3    H158757   1.839   6.705   5.735 -2.2164 -1.7358 -0.7338
12422TIP3    H258758   1.793   6.731   5.877  0.1659 -0.2947 -0.1933
12423TIP3   OH258759   4.225   5.490   2.253 -0.4735 -0.3631 -0.5761
12423TIP3    H158760   4.200   5.474   2.344 -1.0691 -0.0657 -0.6841
12423TIP3    H258761   4.276   5.571   2.255 -0.8863 -0.1026 -0.5688
12424TIP3   OH258762   3.485   0.248   4.390  0.1976  0.3398 -0.6713
12424TIP3    H158763   3.530   0.281   4.313  1.8366  1.1211  0.5936
12424TIP3    H258764   3.398   0.287   4.386 -0.3875 -1.1066 -3.0848
12425TIP3   OH258765   5.141   3.734  15.467 -0.0759 -0.0855 -0.3724
12425TIP3    H158766   5.110   3.646  15.485  0.9362 -0.5968 -1.1052
12425TIP3    H258767   5.237   3.728  15.472 -0.0185  1.1265  0.3291
12426TIP3   OH258768   2.540   4.427  13.061  0.3415  0.0998  0.2756
12426TIP3    H158769   2.522   4.398  12.972  0.5126  1.4193 -0.1988
12426TIP3    H258770   2.565   4.347  13.107  0.4369 -0.5662 -0.9028
12427TIP3   OH258771   1.594   5.349   1.026  0.3920 -0.1001 -0.3891
12427TIP3    H158772   1.523   5.376   1.083  0.5519 -0.0541 -0.2132
12427TIP3    H258773   1.621   5.429   0.981 -0.0654 -0.2283 -0.8986
12428TIP3   OH258774   1.458   3.168   1.225  0.4358 -0.0093  0.2075
12428TIP3    H158775   1.505   3.137   1.303  0.7903 -0.8526 -0.3291
12428TIP3    H258776   1.455   3.263   1.235  1.7900  0.0142  0.5252
12429TIP3   OH258777   2.619   5.106  11.785  0.1917  0.1309 -0.2087
12429TIP3    H158778   2.706   5.146  11.795  0.1500  0.0965  0.2850
12429TIP3    H258779   2.559   5.180  11.777  0.1402  0.1589  0.4867
12430TIP3   OH258780   4.157   3.250  14.442  0.3256 -0.2065 -0.0760
12430TIP3    H158781   4.192   3.212  14.523 -1.9780 -1.4984  0.3859
12430TIP3    H258782   4.082   3.302  14.472  0.3555  0.4946 -1.2304
12431TIP3   OH258783   4.368   2.428  16.211 -0.4871  0.0085  0.8584
12431TIP3    H158784   4.379   2.521  16.233  2.1473  0.0491 -0.3945
12431TIP3    H258785   4.439   2.384  16.258 -2.0752 -1.4861  1.9087
12432TIP3   OH258786   5.264   6.537  14.811 -0.0039  0.0154 -0.0998
12432TIP3    H158787   5.250   6.446  14.783 -0.5941  0.4442 -1.1999
12432TIP3    H258788   5.326   6.572  14.748  0.7199  0.1966  0.7058
12433TIP3   OH258789   2.732   0.876   3.612  0.2473  0.3112 -0.1446
12433TIP3    H158790   2.749   0.836   3.527  0.9051  0.4914 -0.1012
12433TIP3    H258791   2.640   0.901   3.609 -0.0197 -0.6863 -0.3836
12434TIP3   OH258792   2.387   0.628   3.077  0.5175 -0.7187 -0.2867
12434TIP3    H158793   2.429   0.589   3.001  0.5877 -2.3411  0.5675
12434TIP3    H258794   2.459   0.660   3.131  0.4379  1.6713 -1.4908
12435TIP3   OH258795   1.934   3.634  12.475  0.1840 -0.1821 -0.3578
12435TIP3    H158796   1.906   3.723  12.498 -0.4455  0.1759 -2.4135
12435TIP3    H258797   2.027   3.643  12.453  0.9824 -0.6579  2.6368
12436TIP3   OH258798   1.004   1.994  13.144  0.2113  0.0478  0.1061
12436TIP3    H158799   0.947   1.942  13.088 -0.7827  1.4893 -0.2600
12436TIP3    H258800   0.944   2.045  13.199  1.1590 -1.5868  2.7643
12437TIP3   OH258801   4.132   5.696   2.737  0.2400 -0.3956 -0.5211
12437TIP3    H158802   4.171   5.696   2.825  1.7008  0.8720 -1.1532
12437TIP3    H258803   4.112   5.787   2.719 -1.8090 -0.8599 -0.7755
12438TIP3   OH258804   1.799   6.791  16.523 -0.0705 -0.4164  0.6405
12438TIP3    H158805   1.808   6.877  16.564  1.6887  0.4572 -1.5100
12438TIP3    H258806   1.706   6.784  16.503  0.1181  2.0612 -1.3469
12439TIP3   OH258807   1.843   1.509  12.563  0.0862  0.2525 -0.2979
12439TIP3    H158808   1.794   1.570  12.508  0.0414  1.4700  1.0671
12439TIP3    H258809   1.899   1.564  12.617 -0.2458 -0.8782  1.2427
12440TIP3   OH258810   5.746   5.655  17.102 -0.1862  0.2170 -0.1212
12440TIP3    H158811   5.792   5.658  17.018 -1.5071  0.7409 -0.8415
12440TIP3    H258812   5.764   5.740  17.142  0.7325 -0.1668  0.2863
12441TIP3   OH258813   0.769   1.824   0.653  0.5692 -0.3523 -0.6700
12441TIP3    H158814   0.675   1.822   0.639  0.6433  1.1743 -1.5058
12441TIP3    H258815   0.788   1.915   0.675  2.0084 -0.3917 -1.6651
12442TIP3   OH258816   5.947   2.749   3.514  0.0515  0.0004  0.1030
12442TIP3    H158817   5.906   2.805   3.448 -2.0496 -2.7622 -0.9889
12442TIP3    H258818   6.028   2.719   3.473 -0.1611  0.0447 -0.3452
12443TIP3   OH258819   2.975   0.909   0.414 -0.1507 -0.2279 -0.1469
12443TIP3    H158820   3.020   0.965   0.477 -3.2383  2.4880 -0.2211
12443TIP3    H258821   2.944   0.835   0.466  0.2672  0.2729  0.8296
12444TIP3   OH258822   5.910   5.269   5.346  0.3959  0.0050 -0.1544
12444TIP3    H158823   5.970   5.211   5.392 -1.2277 -1.2317  0.4811
12444TIP3    H258824   5.838   5.211   5.318 -0.3954  1.3927 -1.0751
12445TIP3   OH258825   1.629   6.367  14.457 -0.5212 -0.2389 -0.1991
12445TIP3    H158826   1.574   6.361  14.379 -0.2308  0.1616 -0.4429
12445TIP3    H258827   1.700   6.305  14.441 -0.3452 -0.0023 -0.3582
12446TIP3   OH258828   6.158   1.467   5.956  0.0047  0.0885 -0.2033
12446TIP3    H158829   6.067   1.480   5.984  0.0148  1.2988 -0.6897
12446TIP3    H258830   6.210   1.515   6.021  0.1766  0.8216 -0.8629
12447TIP3   OH258831   4.227   2.883   6.215 -0.1370  0.5665  0.2366
12447TIP3    H158832   4.180   2.843   6.288 -0.9884 -0.2666 -0.7543
12447TIP3    H258833   4.225   2.977   6.233  0.2895  0.3161  1.6406
12448TIP3   OH258834   3.786   5.541  10.378  0.0602  0.2415 -0.1182
12448TIP3    H158835   3.783   5.452  10.415  0.1990  0.0387 -0.5986
12448TIP3    H258836   3.741   5.534  10.294  1.8476  0.1746 -1.0887
12449TIP3   OH258837   2.956   2.246   2.506 -0.3590 -0.0780  0.1160
12449TIP3    H158838   3.005   2.174   2.546 -0.1790 -0.1124 -0.1648
12449TIP3    H258839   2.877   2.253   2.559 -0.0516 -0.0235  0.5723
12450TIP3   OH258840   1.702   4.810  13.622  0.1245  0.7735  0.0426
12450TIP3    H158841   1.651   4.840  13.697 -0.2220 -0.4675  0.3054
12450TIP3    H258842   1.779   4.767  13.660 -0.2966 -0.2952 -0.3067
12451TIP3   OH258843   0.913   2.978  16.566 -0.6272 -0.0386 -0.6340
12451TIP3    H158844   0.881   2.889  16.585 -1.2933  0.4160  0.4068
12451TIP3    H258845   0.838   3.035  16.585  0.3467  0.9144  0.4503
12452TIP3   OH258846   6.534   2.379  13.552 -0.0905  0.3088  0.2063
12452TIP3    H158847   6.479   2.448  13.516 -0.2511  0.6010  1.0160
12452TIP3    H258848   6.613   2.380  13.498  0.1121  1.4420  0.5284
12453TIP3   OH258849   3.886   0.204   2.162  0.1368 -0.1216  0.2338
12453TIP3    H158850   3.893   0.285   2.111 -0.5059  0.6030  1.2784
12453TIP3    H258851   3.840   0.144   2.105 -1.7656  1.1089  0.4210
12454TIP3   OH258852   1.919   4.459  14.913  0.7043 -0.1090 -0.5699
12454TIP3    H158853   1.936   4.536  14.858 -1.9857  0.6190 -0.4560
12454TIP3    H258854   1.869   4.493  14.987  0.0636 -1.8808 -0.1741
12455TIP3   OH258855   5.345   1.993  15.249  0.3505  0.0394  0.2680
12455TIP3    H158856   5.408   1.976  15.319  2.6760  0.6577 -1.5969
12455TIP3    H258857   5.394   2.043  15.184 -1.0390 -2.4829 -2.8723
12456TIP3   OH258858   3.125   1.229   3.102  0.2872 -0.3852 -0.0719
12456TIP3    H158859   3.041   1.185   3.092  1.6861 -3.1025 -0.5299
12456TIP3    H258860   3.161   1.193   3.184  1.0901  0.6096  0.0274
12457TIP3   OH258861   5.450   2.970  13.414  0.5179 -0.0961  0.1380
12457TIP3    H158862   5.442   3.059  13.380 -0.8806 -0.1960  0.1734
12457TIP3    H258863   5.533   2.938  13.379  1.2234  1.3531  0.4413
12458TIP3   OH258864   0.189   6.742   5.035 -0.1835  0.4402  0.1706
12458TIP3    H158865   0.264   6.800   5.051  0.3822  0.4482 -2.2514
12458TIP3    H258866   0.193   6.725   4.941 -0.3673 -3.5095  0.8241
12459TIP3   OH258867   6.376   3.066  15.441  0.7128 -0.1659  0.1144
12459TIP3    H158868   6.345   3.145  15.397  2.9862 -0.6307 -2.4211
12459TIP3    H258869   6.408   3.009  15.371  0.9947 -2.5184  2.0568
12460TIP3   OH258870   0.427   3.633   5.598  0.1817  0.0873  0.2207
12460TIP3    H158871   0.497   3.688   5.562  0.3949  0.6067  1.4316
12460TIP3    H258872   0.472   3.555   5.631 -0.0359 -0.4765 -0.7714
12461TIP3   OH258873   3.025   4.508  10.794 -0.1371 -0.4797 -0.0088
12461TIP3    H158874   2.999   4.591  10.755 -0.4796 -1.1434 -1.2227
12461TIP3    H258875   2.945   4.456  10.795 -0.1178 -0.5037  1.5275
12462TIP3   OH258876   4.726   4.637   4.502 -0.3531  0.4326 -0.1621
12462TIP3    H158877   4.772   4.608   4.423  0.8821  0.0415  0.7025
12462TIP3    H258878   4.683   4.558   4.535 -0.6586  0.5415 -0.2969
12463TIP3   OH258879   6.592   5.171   4.918 -0.2643 -0.3054 -0.9146
12463TIP3    H158880   6.595   5.250   4.864  0.2241  0.4483  0.1806
12463TIP3    H258881   6.506   5.173   4.959  0.1835  0.2752  0.0055
12464TIP3   OH258882   6.679   0.428   3.865 -0.1035 -0.3275  0.3500
12464TIP3    H158883   6.638   0.480   3.934  0.3815 -0.1913  0.5350
12464TIP3    H258884   6.767   0.410   3.897  1.2193  2.3659 -1.5869
12465TIP3   OH258885   3.803   5.399   4.403  0.0705  0.0730  0.0097
12465TIP3    H158886   3.833   5.465   4.341 -0.4283 -0.8008 -1.1804
12465TIP3    H258887   3.845   5.422   4.486  1.4231  0.7403 -0.8586
12466TIP3   OH258888   4.758   1.889   5.691 -0.1396  0.2766 -0.4314
12466TIP3    H158889   4.822   1.953   5.722 -0.9337  0.9268 -0.1336
12466TIP3    H258890   4.777   1.810   5.743  0.5244  0.4117 -0.4632
12467TIP3   OH258891   5.250   1.731  12.023 -0.3148 -0.0029  0.0209
12467TIP3    H158892   5.332   1.752  11.978 -0.6074 -0.5170 -0.7662
12467TIP3    H258893   5.183   1.779  11.974 -0.4970  0.3090  0.5807
12468TIP3   OH258894   3.495   1.203   3.628  0.3658  0.3484 -0.7780
12468TIP3    H158895   3.550   1.157   3.564  2.9327  2.1458  0.0488
12468TIP3    H258896   3.531   1.292   3.632 -1.4510  1.0542  1.1902
12469TIP3   OH258897   0.621   1.615  13.159 -0.0670  0.3812  0.4715
12469TIP3    H158898   0.565   1.679  13.114 -1.2366  0.1562  1.5856
12469TIP3    H258899   0.697   1.606  13.102  0.1769  2.8845  0.3483
12470TIP3   OH258900   1.309   1.602   6.544  0.2988  0.2160 -0.2964
12470TIP3    H158901   1.337   1.601   6.453  1.4875 -1.4090  0.0571
12470TIP3    H258902   1.217   1.579   6.541 -0.0979  1.8333 -1.1952
12471TIP3   OH258903   1.631   0.111  14.843  0.2351 -0.0456  0.7188
12471TIP3    H158904   1.647   0.089  14.752  1.1704  0.5857  0.7267
12471TIP3    H258905   1.559   0.054  14.869  0.9575 -1.2958  0.0226
12472TIP3   OH258906   5.852   4.562   1.276  0.3800 -0.3376  0.0159
12472TIP3    H158907   5.946   4.564   1.259  0.3951  0.4342  0.1531
12472TIP3    H258908   5.839   4.627   1.345 -0.1846 -0.8113  0.3613
12473TIP3   OH258909   5.816   4.970  14.444 -0.3058 -0.1583 -0.1369
12473TIP3    H158910   5.769   4.927  14.372 -0.4572 -1.0798  0.5082
12473TIP3    H258911   5.756   5.038  14.474 -0.1053  0.4650 -1.0987
12474TIP3   OH258912   5.564   4.013  14.081  0.0553  0.6855 -0.2517
12474TIP3    H158913   5.570   4.109  14.081 -0.2361  0.7020  0.0570
12474TIP3    H258914   5.476   3.994  14.051  0.9953  0.4575 -2.9776
12475TIP3   OH258915   5.676   0.036  12.943 -0.0543 -0.6609 -0.3764
12475TIP3    H158916   5.759   0.024  12.896  1.0236 -0.0558  1.2949
12475TIP3    H258917   5.620  -0.035  12.913  1.1763 -1.2487 -1.3175
12476TIP3   OH258918   5.774   2.548  14.115  0.4725 -0.0195  0.0254
12476TIP3    H158919   5.765   2.456  14.091  0.2766  0.5915 -2.3313
12476TIP3    H258920   5.697   2.590  14.077  0.3135  1.0620  1.5033
12477TIP3   OH258921   2.782   2.134   2.791  0.0096  0.2175 -0.3951
12477TIP3    H158922   2.737   2.214   2.819 -1.3739 -0.1845 -1.3938
12477TIP3    H258923   2.724   2.064   2.820  2.0615 -0.5430  2.0382
12478TIP3   OH258924   0.758   5.118  11.472  0.1837 -0.8213  0.6612
12478TIP3    H158925   0.794   5.148  11.555  0.9475 -2.5290  0.9514
12478TIP3    H258926   0.663   5.132  11.480  0.4807  1.3682  0.8281
12479TIP3   OH258927   2.112   3.994  11.830  0.4275  0.0777 -0.2745
12479TIP3    H158928   2.187   4.052  11.816 -0.3405  0.9831 -0.7807
12479TIP3    H258929   2.141   3.932  11.896  1.3313  0.9626  0.1800
12480TIP3   OH258930   0.103   3.670  11.929 -0.6151 -0.3869 -0.1367
12480TIP3    H158931   0.172   3.614  11.893  2.1296  1.6689  1.6888
12480TIP3    H258932   0.095   3.641  12.020 -1.8150 -0.2780 -0.2106
12481TIP3   OH258933   5.701   1.880  13.933 -0.5162  0.1410 -0.3046
12481TIP3    H158934   5.742   1.867  13.847  0.3327 -0.3817  0.1692
12481TIP3    H258935   5.689   1.975  13.938  1.9737  0.4887  0.1079
12482TIP3   OH258936   0.831   2.342   0.979 -0.1588  0.4706 -0.1715
12482TIP3    H158937   0.920   2.341   0.943 -0.4022 -0.7386 -0.7688
12482TIP3    H258938   0.839   2.301   1.065  0.0332  1.3165  0.2213
12483TIP3   OH258939   0.521   3.532  14.828 -0.2631 -0.3941 -0.8208
12483TIP3    H158940   0.583   3.536  14.755 -0.6434 -0.6883 -1.1649
12483TIP3    H258941   0.504   3.439  14.841 -0.3616 -0.3319 -0.4979
12484TIP3   OH258942   3.447   5.564  10.959  0.1825 -0.3348 -0.0009
12484TIP3    H158943   3.376   5.566  10.895 -0.0540  0.7513  0.2879
12484TIP3    H258944   3.406   5.529  11.039  0.2649 -0.8409 -0.1777
12485TIP3   OH258945   4.832   2.698  17.204  0.2022 -0.0865 -0.0559
12485TIP3    H158946   4.748   2.735  17.233  0.4489  0.9387 -0.6161
12485TIP3    H258947   4.807   2.622  17.152 -0.4489  0.7006 -0.9379
12486TIP3   OH258948   1.053   0.905  14.927 -0.0638 -0.1489  0.0128
12486TIP3    H158949   0.977   0.883  14.872  0.0481 -1.0902  0.2266
12486TIP3    H258950   1.020   0.971  14.988 -0.3140  0.5629 -0.8809
12487TIP3   OH258951   4.888   6.729   5.980  0.0531 -0.1696 -0.5271
12487TIP3    H158952   4.929   6.788   5.916  0.5257  1.4543  1.2123
12487TIP3    H258953   4.958   6.712   6.043 -1.4451  1.3086  1.5901
12488TIP3   OH258954   3.424   4.995  16.657  0.0076 -0.1510 -0.0369
12488TIP3    H158955   3.418   4.922  16.596  0.7162 -1.3121  1.2516
12488TIP3    H258956   3.510   4.984  16.699  0.2330  1.5664 -0.0104
12489TIP3   OH258957   4.383   4.431   1.156  0.3008 -0.2725 -0.8326
12489TIP3    H158958   4.294   4.394   1.164 -0.7233  1.9895 -1.3419
12489TIP3    H258959   4.422   4.384   1.083 -0.9542 -0.3960 -1.4330
12490TIP3   OH258960   4.849   6.740   5.611 -0.8519  0.3212 -0.1407
12490TIP3    H158961   4.793   6.662   5.605 -0.9887 -0.0053  3.8918
12490TIP3    H258962   4.937   6.707   5.597 -1.0083 -0.3806  0.5213
12491TIP3   OH258963   1.502   4.133   2.544  0.4586 -0.0714  0.6712
12491TIP3    H158964   1.575   4.119   2.605  0.5938 -1.1654  0.2785
12491TIP3    H258965   1.540   4.117   2.458 -0.0606  0.1517  0.4000
12492TIP3   OH258966   2.080   4.266   6.497 -0.1214  0.3020 -0.3675
12492TIP3    H158967   2.045   4.224   6.575 -0.7233  0.1734 -0.7023
12492TIP3    H258968   2.134   4.338   6.530  0.9972 -0.7838  0.2171
12493TIP3   OH258969   6.505   3.339   1.029 -0.2295  0.0778  0.1180
12493TIP3    H158970   6.462   3.347   0.944 -0.0263  0.0713  0.0139
12493TIP3    H258971   6.513   3.429   1.060 -0.1723  0.0924  0.0624
12494TIP3   OH258972   2.491   0.174   1.425 -0.3798 -0.0094 -0.1302
12494TIP3    H158973   2.502   0.249   1.366  3.7835  0.2756  0.7966
12494TIP3    H258974   2.518   0.208   1.511 -0.1758 -2.0804  0.6411
12495TIP3   OH258975   3.413   1.905  11.685 -0.4347  0.1831 -0.4884
12495TIP3    H158976   3.414   1.876  11.594  1.8485 -0.0873 -0.4172
12495TIP3    H258977   3.442   1.997  11.681 -0.9466  0.3622 -0.1010
12496TIP3   OH258978   1.261   5.231   4.839 -0.9385  0.9747  0.2522
12496TIP3    H158979   1.189   5.195   4.787  0.3915 -0.2048 -0.7950
12496TIP3    H258980   1.325   5.261   4.775 -0.6727  2.4664  1.1684
12497TIP3   OH258981   1.475   0.398   4.225  0.0081  0.1569 -0.1804
12497TIP3    H158982   1.506   0.424   4.138  1.7848 -0.7056  0.1595
12497TIP3    H258983   1.513   0.462   4.285  0.0416 -0.1279  0.1080
12498TIP3   OH258984   4.187   4.280   3.172 -0.2885 -0.1908  0.2308
12498TIP3    H158985   4.105   4.239   3.145 -0.5632  0.5842 -0.1417
12498TIP3    H258986   4.165   4.332   3.249 -0.3149  0.5940 -0.2923
12499TIP3   OH258987   2.551   4.068   2.459  0.1611 -0.4519  0.4960
12499TIP3    H158988   2.632   4.065   2.408 -0.6845  0.5638 -0.9200
12499TIP3    H258989   2.555   3.989   2.514  0.8779 -1.8028 -1.4409
12500TIP3   OH258990   3.260   3.403   4.262 -0.1200 -0.2163 -0.5105
12500TIP3    H158991   3.175   3.372   4.293  0.5493 -1.9113 -0.3196
12500TIP3    H258992   3.260   3.383   4.168  0.2357 -0.6189 -0.4257
12501TIP3   OH258993   3.136   0.400  10.681  0.0335  0.1148 -0.1355
12501TIP3    H158994   3.111   0.310  10.663  0.8703 -0.3951  1.1996
12501TIP3    H258995   3.215   0.413  10.628 -0.5755  0.3598 -1.0049
12502TIP3   OH258996   2.226   1.266   2.511 -0.5358  0.0912  0.1361
12502TIP3    H158997   2.305   1.296   2.466 -0.8236  2.0540  0.9021
12502TIP3    H258998   2.167   1.239   2.440  0.5258 -0.6887 -0.4716
12503TIP3   OH258999   6.408   3.007   0.178  0.4591  0.3153  0.0577
12503TIP3    H159000   6.387   3.080   0.121 -0.2296 -0.7373 -1.0564
12503TIP3    H259001   6.375   3.034   0.264  1.0324  1.6834 -0.1389
12504TIP3   OH259002   0.571   5.647   3.142 -0.3479  0.0058 -0.0075
12504TIP3    H159003   0.636   5.612   3.203 -0.1399 -0.3261 -0.4116
12504TIP3    H259004   0.573   5.586   3.068 -4.1527 -2.4049  1.7670
12505TIP3   OH259005   5.339   1.354   1.375  0.9536  0.4214  0.1535
12505TIP3    H159006   5.352   1.285   1.440  0.4338  0.0374 -0.1488
12505TIP3    H259007   5.309   1.429   1.425  3.5236  1.1035  0.7818
12506TIP3   OH259008   6.211   6.616   2.408  0.0350  0.1042  0.2730
12506TIP3    H159009   6.171   6.538   2.445 -0.0565  0.1837  0.3454
12506TIP3    H259010   6.304   6.607   2.426  0.3375 -1.0859 -1.7222
12507TIP3   OH259011   5.346   6.728  10.364  0.0604 -0.5285  0.0832
12507TIP3    H159012   5.364   6.692  10.450 -1.3474  0.4614  0.8169
12507TIP3    H259013   5.382   6.663  10.303  0.4621 -1.5681  1.3990
12508TIP3   OH259014   4.366   5.661   1.756  0.3963  0.3305  0.2786
12508TIP3    H159015   4.335   5.580   1.797  1.8143 -0.4472 -0.1267
12508TIP3    H259016   4.333   5.731   1.812 -0.5739 -0.5504  0.8196
12509TIP3   OH259017   1.943   6.027  16.476 -0.0640 -0.5030 -0.6067
12509TIP3    H159018   1.887   6.100  16.450  2.3159  0.7910 -2.2977
12509TIP3    H259019   1.969   5.987  16.393  2.3773 -0.3644  0.0541
12510TIP3   OH259020   4.010   4.615  15.391  0.4680  0.1101 -0.0505
12510TIP3    H159021   4.047   4.555  15.327 -1.3273 -0.0135 -0.9981
12510TIP3    H259022   4.075   4.686  15.398  1.0486 -0.2790 -1.3799
12511TIP3   OH259023   3.285   6.101   1.964 -0.0452 -0.3658 -0.2307
12511TIP3    H159024   3.327   6.055   2.037 -1.0669  0.2324  0.7420
12511TIP3    H259025   3.197   6.065   1.960 -0.2206  0.1099 -0.7104
12512TIP3   OH259026   0.615   6.049  14.302 -0.0558 -0.4138 -0.6207
12512TIP3    H159027   0.533   6.055  14.351  0.1808  1.0607 -0.3953
12512TIP3    H259028   0.667   6.123  14.333  1.6060 -1.6650 -0.3297
12513TIP3   OH259029   5.983   2.774  13.936 -0.3402 -0.0335  0.0636
12513TIP3    H159030   5.942   2.778  14.023  1.3472  1.7254  0.7980
12513TIP3    H259031   6.020   2.686  13.931 -0.1191 -0.0188  1.2989
12514TIP3   OH259032   3.804   6.813  11.198 -0.2850 -0.1506 -0.0305
12514TIP3    H159033   3.834   6.843  11.284 -1.3312 -0.5885  0.4957
12514TIP3    H259034   3.709   6.822  11.201 -0.2487  0.9405 -1.5801
12515TIP3   OH259035   5.256   5.018  14.260  0.2230 -0.0872 -0.4413
12515TIP3    H159036   5.166   5.012  14.229  0.2552  0.6034 -0.6747
12515TIP3    H259037   5.304   5.061  14.189  0.9366 -1.3238 -0.7250
12516TIP3   OH259038   6.218   6.287   6.011  0.1245 -0.0835 -0.0017
12516TIP3    H159039   6.193   6.339   5.935 -0.6245  1.0541  0.9995
12516TIP3    H259040   6.136   6.248   6.041 -0.2813  2.4131  2.3781
12517TIP3   OH259041   2.776   0.535  11.619  0.0547 -0.2074 -0.1321
12517TIP3    H159042   2.807   0.531  11.529 -0.8530 -0.1802 -0.4593
12517TIP3    H259043   2.683   0.511  11.613  0.0728 -0.5376  0.8408
12518TIP3   OH259044   1.041   5.696   5.770 -0.3848 -0.2728  0.0327
12518TIP3    H159045   0.981   5.729   5.703  0.3490  0.7442 -0.1286
12518TIP3    H259046   0.983   5.669   5.842 -1.0379  0.7981 -0.0846
12519TIP3   OH259047   2.603   4.062  11.863 -0.1910 -0.6952  0.0068
12519TIP3    H159048   2.629   4.147  11.829  1.8445 -1.0226  0.6630
12519TIP3    H259049   2.674   4.003  11.837 -1.4137 -2.1323 -0.1550
12520TIP3   OH259050   5.429   1.447   2.426 -0.1145 -0.3509 -0.2379
12520TIP3    H159051   5.362   1.392   2.385  0.2654  0.9441 -2.6683
12520TIP3    H259052   5.512   1.417   2.389 -0.0182  2.7455 -2.8285
12521TIP3   OH259053   3.785   0.772   2.271  0.0846  0.3578  0.4247
12521TIP3    H159054   3.738   0.819   2.202  0.9015  0.4580 -0.0596
12521TIP3    H259055   3.872   0.811   2.272 -0.5385  1.8182  2.9171
12522TIP3   OH259056   4.232   3.564  12.868 -0.0077  0.0735 -0.1192
12522TIP3    H159057   4.303   3.567  12.804 -1.5623  1.4294 -1.8180
12522TIP3    H259058   4.191   3.650  12.861 -0.0421  0.3570  2.9085
12523TIP3   OH259059   2.965   5.376   6.066 -0.3623  0.0114  0.0855
12523TIP3    H159060   3.059   5.374   6.050  0.0329  0.7678  2.1846
12523TIP3    H259061   2.926   5.367   5.979  1.6526  1.8050 -1.0498
12524TIP3   OH259062   6.707   0.239  14.279  0.1567  0.1722  0.0052
12524TIP3    H159063   6.802   0.230  14.275 -0.0027 -1.6443 -0.2737
12524TIP3    H259064   6.690   0.330  14.255  1.8413  0.6035  0.4027
12525TIP3   OH259065   0.756   0.894  12.559 -0.2313  0.4007 -0.1573
12525TIP3    H159066   0.753   0.982  12.522 -2.1515  0.7568  0.8201
12525TIP3    H259067   0.684   0.891  12.622 -1.0058 -2.2589 -1.0804
12526TIP3   OH259068   1.899   6.776   2.667 -0.1096  0.0240  0.0479
12526TIP3    H159069   1.874   6.835   2.596  0.6248 -0.1688 -0.3744
12526TIP3    H259070   1.841   6.800   2.739 -0.8641  0.2122 -0.6169
12527TIP3   OH259071   3.704   1.807  15.112  0.5509 -0.1686  0.0182
12527TIP3    H159072   3.680   1.888  15.066 -2.3261 -0.3970  1.0493
12527TIP3    H259073   3.627   1.751  15.105  1.3896 -1.6350  1.9794
12528TIP3   OH259074   2.300   1.687  16.131 -0.7346  0.5051  0.5827
12528TIP3    H159075   2.232   1.733  16.081  0.7358  1.7472 -0.3352
12528TIP3    H259076   2.294   1.596  16.101 -3.3005  0.1712  1.9969
12529TIP3   OH259077   0.421   0.318   4.358 -0.6310  0.1061  0.2815
12529TIP3    H159078   0.439   0.238   4.407 -0.0336 -0.8242 -1.4340
12529TIP3    H259079   0.331   0.342   4.383 -1.6237 -2.3273 -0.8758
12530TIP3   OH259080   4.485   3.629  12.225  0.1143  0.4240 -0.0615
12530TIP3    H159081   4.533   3.585  12.295  0.5869 -0.2795 -0.8331
12530TIP3    H259082   4.504   3.722  12.238  1.0779  0.2072  0.0881
12531TIP3   OH259083   0.140   1.696   2.290 -0.0841 -0.2473  0.3210
12531TIP3    H159084   0.056   1.651   2.283 -0.5424  0.7448 -0.7355
12531TIP3    H259085   0.169   1.709   2.199  2.2978 -2.5243  0.6733
12532TIP3   OH259086   5.680   4.008   5.931  0.1867  0.6097  0.6639
12532TIP3    H159087   5.626   3.994   6.009 -2.3988  0.1459 -1.1521
12532TIP3    H259088   5.744   3.937   5.933 -1.7638 -1.1901  0.7837
12533TIP3   OH259089   3.501   1.152   5.769  0.0163  0.0553 -0.2949
12533TIP3    H159090   3.441   1.186   5.836 -0.5745 -0.3754 -0.5994
12533TIP3    H259091   3.444   1.131   5.695  0.2136 -2.5501  0.2401
12534TIP3   OH259092   6.793   4.765  13.207  0.2351  0.0098  0.1903
12534TIP3    H159093   6.886   4.787  13.207  0.0052  1.1322 -2.0462
12534TIP3    H259094   6.752   4.831  13.263  0.6846 -0.0766  0.6228
12535TIP3   OH259095   5.267   1.677  15.145  0.8362 -0.5603  0.0145
12535TIP3    H159096   5.352   1.719  15.160  0.2574  0.2859  1.0360
12535TIP3    H259097   5.214   1.744  15.102  0.5294 -0.9188 -0.1693
12536TIP3   OH259098   6.323   1.776  11.940  0.5020 -0.1697 -0.3432
12536TIP3    H159099   6.240   1.767  11.987  0.1911 -1.4700 -1.1082
12536TIP3    H259100   6.297   1.798  11.850  0.9635 -1.2249 -0.7340
12537TIP3   OH259101   4.341   3.858  16.291 -0.6638 -0.3892 -0.0407
12537TIP3    H159102   4.304   3.858  16.380 -1.6508 -0.7367 -0.4485
12537TIP3    H259103   4.372   3.768  16.278  0.1454 -0.1584  0.2119
12538TIP3   OH259104   5.165   2.263  13.322 -0.5320 -0.4087 -0.1398
12538TIP3    H159105   5.098   2.196  13.315 -0.4108 -0.5374 -0.0691
12538TIP3    H259106   5.121   2.344  13.296 -0.4316 -0.6664 -1.1048
12539TIP3   OH259107   5.687   6.724  14.128  0.0645 -0.1438 -0.3874
12539TIP3    H159108   5.697   6.817  14.150 -0.7186  0.1087 -1.0912
12539TIP3    H259109   5.756   6.707  14.064  1.1797 -0.4340  0.8551
12540TIP3   OH259110   2.600   4.745   4.980 -1.3390 -0.8243  0.0371
12540TIP3    H159111   2.615   4.797   5.059 -0.3900  2.2341 -2.0522
12540TIP3    H259112   2.630   4.657   5.003  3.2754  1.0186  1.7026
12541TIP3   OH259113   2.427   6.750   0.392 -0.0672  0.2002 -0.2134
12541TIP3    H159114   2.491   6.747   0.321 -2.2098 -1.5473 -2.1449
12541TIP3    H259115   2.453   6.680   0.451  1.0508  0.9169  0.1638
12542TIP3   OH259116   2.089   6.116   3.216 -0.6808 -0.2907  0.2254
12542TIP3    H159117   2.095   6.212   3.217 -2.4660 -0.1426 -0.4469
12542TIP3    H259118   2.031   6.095   3.289 -0.8977 -0.7962 -0.0900
12543TIP3   OH259119   6.280   6.138  16.985 -0.6903 -0.0806 -0.5410
12543TIP3    H159120   6.314   6.182  16.908  2.8746  1.8400  1.9929
12543TIP3    H259121   6.358   6.113  17.035 -2.8776 -0.2549  2.9748
12544TIP3   OH259122   0.508   6.626  16.320 -0.0842 -0.2694  0.2101
12544TIP3    H159123   0.427   6.655  16.278  0.2440  1.2297  0.6016
12544TIP3    H259124   0.503   6.530  16.318 -0.1916 -0.2432 -3.0092
12545TIP3   OH259125   6.552   1.016   6.017 -0.3574 -0.8076 -0.2176
12545TIP3    H159126   6.461   1.018   6.048 -0.3724 -1.2040 -0.2317
12545TIP3    H259127   6.586   0.932   6.050  0.0758 -0.5456  0.0040
12546TIP3   OH259128   1.967   2.622  11.620  0.0407 -0.2621 -0.0390
12546TIP3    H159129   2.045   2.649  11.573 -0.7429  1.1349 -0.5817
12546TIP3    H259130   1.985   2.533  11.649  1.6518 -0.1001 -0.5237
12547TIP3   OH259131   5.576   1.832   6.190 -0.2855 -0.1589  0.5471
12547TIP3    H159132   5.612   1.890   6.124 -0.6102 -0.7043 -0.1189
12547TIP3    H259133   5.485   1.860   6.200  0.0301  0.5608  1.4881
12548TIP3   OH259134   6.255   4.908   5.352  0.2813 -0.5321  0.0578
12548TIP3    H159135   6.342   4.913   5.314 -0.3774 -0.3869 -1.4584
12548TIP3    H259136   6.197   4.943   5.285 -0.8720  0.0407  1.3264
12549TIP3   OH259137   5.580   5.211  12.436  0.4367  0.5738 -0.0472
12549TIP3    H159138   5.584   5.239  12.345 -2.3143  1.1021 -0.0533
12549TIP3    H259139   5.531   5.129  12.434  2.7181 -0.8602  0.6944
12550TIP3   OH259140   2.785   2.433   4.588 -0.1739 -0.5076  0.1489
12550TIP3    H159141   2.783   2.450   4.682  0.7422  0.1472  0.0518
12550TIP3    H259142   2.860   2.482   4.556 -1.9161  1.2602 -1.3319
12551TIP3   OH259143   0.292   2.002   1.537 -0.1130 -0.1848 -0.1768
12551TIP3    H159144   0.283   1.969   1.447 -0.2787  0.8333 -0.5436
12551TIP3    H259145   0.223   2.068   1.545  1.4180  1.4661 -0.1112
12552TIP3   OH259146   3.807   6.570   3.282  0.4189 -0.1216  0.3436
12552TIP3    H159147   3.810   6.665   3.298  0.0451 -0.1041  0.3125
12552TIP3    H259148   3.765   6.561   3.197  0.2997 -0.3263  0.4244
12553TIP3   OH259149   5.874   6.514  16.777  0.2725  0.3570  0.3641
12553TIP3    H159150   5.965   6.487  16.763 -0.1170  0.2865 -2.2894
12553TIP3    H259151   5.824   6.467  16.711 -1.5253  1.4871  0.8635
12554TIP3   OH259152   6.665   2.665  11.291 -0.0453 -0.5306 -0.1579
12554TIP3    H159153   6.689   2.574  11.304  0.3267 -0.1288  2.2399
12554TIP3    H259154   6.724   2.696  11.222  0.7017 -1.7563 -0.0772
12555TIP3   OH259155   2.905   2.082  11.092 -0.1655  0.3487 -0.4842
12555TIP3    H159156   2.837   2.146  11.113  0.9797  1.4048  0.0952
12555TIP3    H259157   2.956   2.124  11.023  0.7033  0.1492  0.0338
12556TIP3   OH259158   0.346   2.008  15.728 -0.2372  0.0618  0.2705
12556TIP3    H159159   0.368   1.947  15.798 -1.2596  0.3715  0.8632
12556TIP3    H259160   0.255   1.986  15.705 -0.3304  0.8146 -0.0791
12557TIP3   OH259161   3.216   0.043  11.115  0.6642  0.0630 -0.3856
12557TIP3    H159162   3.232  -0.051  11.115  2.2050  0.3104 -0.0635
12557TIP3    H259163   3.272   0.077  11.185 -1.0579  1.0272  0.5631
12558TIP3   OH259164   6.219   5.202   3.559 -0.5018  0.8064  0.1060
12558TIP3    H159165   6.207   5.256   3.480 -0.0589  1.7404  0.6673
12558TIP3    H259166   6.307   5.224   3.589 -0.7407  0.5875  0.9608
12559TIP3   OH259167   5.198   4.509   5.345 -0.0685 -0.2738  0.3420
12559TIP3    H159168   5.105   4.513   5.368  0.0527 -1.2624  1.0363
12559TIP3    H259169   5.199   4.479   5.254 -0.4548  0.6232  0.0393
12560TIP3   OH259170   5.588   0.179  13.628  0.0390 -0.3080  0.6059
12560TIP3    H159171   5.609   0.181  13.721 -0.7573 -0.7044  0.7957
12560TIP3    H259172   5.538   0.260  13.613 -0.1904 -0.4484  0.6096
12561TIP3   OH259173   2.312   2.850  13.796 -0.0994  0.1838 -0.3087
12561TIP3    H159174   2.352   2.824  13.712 -1.3128  0.1958 -0.9039
12561TIP3    H259175   2.312   2.771  13.848 -2.2700 -0.6704 -1.5163
12562TIP3   OH259176   2.679   2.388   2.888  0.4371  0.0950  0.0448
12562TIP3    H159177   2.631   2.450   2.943  1.0086  0.9509 -0.4160
12562TIP3    H259178   2.771   2.409   2.904  0.6841 -1.7939  1.2233
12563TIP3   OH259179   5.193   2.798  16.516 -0.6481 -0.1295 -0.2587
12563TIP3    H159180   5.213   2.886  16.483 -0.1667  0.0260  0.4379
12563TIP3    H259181   5.188   2.808  16.611 -0.2944 -0.9076 -0.1527
12564TIP3   OH259182   4.820   1.321   4.182 -0.6484 -0.3610 -0.3928
12564TIP3    H159183   4.804   1.325   4.277 -0.4628  0.7182 -0.4020
12564TIP3    H259184   4.798   1.231   4.158  1.4166 -1.2870  1.0547
12565TIP3   OH259185   3.662   3.692   2.309 -0.1832  0.4816  0.1527
12565TIP3    H159186   3.696   3.765   2.361  0.0255 -0.0299  0.7263
12565TIP3    H259187   3.640   3.625   2.373 -0.5321  0.1030 -0.3676
12566TIP3   OH259188   2.236   4.655  12.347  0.0373 -0.7040  0.5967
12566TIP3    H159189   2.297   4.729  12.354 -0.4469 -0.2824  0.4437
12566TIP3    H259190   2.271   4.601  12.276  0.4728 -0.6965  0.8054
12567TIP3   OH259191   3.013   2.221  14.828 -0.2835  0.5160 -0.2376
12567TIP3    H159192   2.970   2.136  14.822 -3.7621  2.2069 -0.6262
12567TIP3    H259193   2.980   2.260  14.909  1.5594  1.3653  0.1427
12568TIP3   OH259194   4.425   2.456   4.685 -0.1838 -0.5492  0.3394
12568TIP3    H159195   4.472   2.377   4.711  1.7421  0.6947  0.7689
12568TIP3    H259196   4.343   2.425   4.647  0.2968 -2.7093  1.0436
12569TIP3   OH259197   3.586   1.974   2.488 -0.6934  0.2893 -0.0351
12569TIP3    H159198   3.663   1.957   2.542  0.0340  0.8312 -0.8790
12569TIP3    H259199   3.512   1.974   2.549  0.0231  0.1491  0.8318
12570TIP3   OH259200   4.951   2.418   2.793 -0.6309 -0.4052 -0.2988
12570TIP3    H159201   4.897   2.340   2.779 -1.5197  0.2373 -0.4351
12570TIP3    H259202   4.889   2.488   2.812  0.2982 -0.1937  2.0192
12571TIP3   OH259203   2.586   3.986   0.658 -0.0508 -0.1577  0.0019
12571TIP3    H159204   2.662   3.990   0.600 -0.4993  1.1786 -0.5130
12571TIP3    H259205   2.548   4.074   0.654 -1.7102 -0.8474  0.1350
12572TIP3   OH259206   6.745   2.557   1.631  0.1728 -0.0059  0.3040
12572TIP3    H159207   6.819   2.613   1.607 -1.7048  1.3115 -2.6370
12572TIP3    H259208   6.736   2.496   1.557 -0.6476 -1.2466  1.4066
12573TIP3   OH259209   6.330   2.025  15.983 -0.2405 -0.0813 -0.2865
12573TIP3    H159210   6.320   2.009  16.077 -0.6503 -0.0026 -0.3163
12573TIP3    H259211   6.413   1.984  15.961 -2.4808 -4.5586 -0.9268
12574TIP3   OH259212   5.616   6.545  15.097 -0.1103 -0.9278  0.1194
12574TIP3    H159213   5.540   6.545  15.155  0.4032  1.4303  0.8340
12574TIP3    H259214   5.629   6.637  15.075  0.2824 -1.6478 -2.9973
12575TIP3   OH259215   4.708   1.216   5.061  0.1864  0.2490 -0.2083
12575TIP3    H159216   4.731   1.144   5.120  1.0040  0.6294 -0.0479
12575TIP3    H259217   4.776   1.216   4.994 -0.1221  0.5183 -0.5282
12576TIP3   OH259218   2.357   3.108  16.317  0.1904  0.1675 -0.7951
12576TIP3    H159219   2.274   3.145  16.286  0.1236 -0.4466 -1.3798
12576TIP3    H259220   2.335   3.018  16.342  0.4531  0.3513  0.1149
12577TIP3   OH259221   2.814   2.748  11.684 -0.4268 -0.2143  0.0537
12577TIP3    H159222   2.854   2.738  11.598  1.3742 -1.0091  0.9607
12577TIP3    H259223   2.736   2.693  11.681 -2.2203  2.3280 -2.1608
12578TIP3   OH259224   6.000   5.891   3.816 -0.0224  0.1532 -0.2107
12578TIP3    H159225   6.052   5.868   3.739  1.2565  0.2076  0.6134
12578TIP3    H259226   6.063   5.890   3.888 -0.8550  1.8215  0.5572
12579TIP3   OH259227   5.708   2.576  12.097 -0.5269 -0.6291 -0.0952
12579TIP3    H159228   5.687   2.485  12.117 -1.9661  0.3997  3.6542
12579TIP3    H259229   5.625   2.622  12.106  0.6120  1.3760  0.4204
12580TIP3   OH259230   6.272   2.800  15.020 -0.2818 -0.1727  0.0849
12580TIP3    H159231   6.227   2.806  15.104 -1.9807  0.3481 -0.8313
12580TIP3    H259232   6.322   2.881  15.014 -1.3777  0.5106 -0.0596
12581TIP3   OH259233   1.905   6.263  12.967  0.0869  0.0123 -0.3918
12581TIP3    H159234   1.929   6.319  13.040 -1.1948 -1.1453  0.9687
12581TIP3    H259235   1.985   6.216  12.944  0.0865 -1.0015  1.5542
12582TIP3   OH259236   2.089   1.738  15.229 -0.1882 -0.1185 -0.3651
12582TIP3    H159237   2.153   1.771  15.166 -0.1337 -1.4206 -1.0160
12582TIP3    H259238   2.141   1.709  15.304 -0.2800  1.7757  0.4704
12583TIP3   OH259239   0.190   3.554   2.684  0.2811  0.4804  0.2931
12583TIP3    H159240   0.141   3.525   2.607  1.4305 -0.0667 -0.2466
12583TIP3    H259241   0.144   3.633   2.713 -0.4466  0.4216 -0.6628
12584TIP3   OH259242   0.179   5.508  13.738  0.2965  0.5066  0.2193
12584TIP3    H159243   0.219   5.454  13.669  0.6885 -0.8339  1.4605
12584TIP3    H259244   0.222   5.593  13.728  0.3377  0.3456 -1.1966
12585TIP3   OH259245   4.040   1.814   1.872 -0.1842  0.4474 -0.6483
12585TIP3    H159246   4.082   1.875   1.812  1.4725  1.2840  1.3155
12585TIP3    H259247   4.111   1.761   1.907 -0.9087  0.9789  1.7139
12586TIP3   OH259248   3.405   6.276  14.576  0.0723  0.2268 -0.6955
12586TIP3    H159249   3.500   6.272  14.567  0.4523  0.2476  2.6187
12586TIP3    H259250   3.379   6.353  14.526  1.7694  0.1721 -1.7010
12587TIP3   OH259251   3.172   3.561   0.636 -0.3487  0.2447  0.1244
12587TIP3    H159252   3.229   3.623   0.681  0.3575 -0.8347  0.7289
12587TIP3    H259253   3.174   3.589   0.544 -0.0921  1.1607  0.4073
12588TIP3   OH259254   4.024   2.912  16.067 -0.4195 -0.4960  0.2270
12588TIP3    H159255   4.061   2.838  16.116  0.7189 -1.2742 -1.7596
12588TIP3    H259256   4.090   2.981  16.076 -1.3928  0.2554  1.9156
12589TIP3   OH259257   2.017   4.124   4.791 -0.1131  0.1112 -0.4304
12589TIP3    H159258   1.965   4.171   4.856 -1.8402  2.6497 -3.4814
12589TIP3    H259259   1.952   4.081   4.735  1.2765 -1.0442 -1.1980
12590TIP3   OH259260   5.210   6.819  12.629  1.1079 -0.8978 -0.3396
12590TIP3    H159261   5.292   6.866  12.642  0.0225  0.8864  0.1422
12590TIP3    H259262   5.224   6.768  12.549  2.1359  0.5996 -1.1261
12591TIP3   OH259263   2.240   3.568   3.926  0.1302  0.0480  0.1636
12591TIP3    H159264   2.221   3.660   3.945  1.3471  0.2561  0.4273
12591TIP3    H259265   2.324   3.552   3.969  0.5015 -0.8673 -0.8845
12592TIP3   OH259266   2.275   5.673   5.150  0.4982  0.3253 -0.0798
12592TIP3    H159267   2.371   5.673   5.156  0.6368 -0.5847 -1.9717
12592TIP3    H259268   2.256   5.618   5.074 -1.5105  1.0716 -0.1322
12593TIP3   OH259269   2.014   4.334  16.122 -0.1702 -0.4698  0.4348
12593TIP3    H159270   2.036   4.337  16.215  0.4763 -1.5097  0.3191
12593TIP3    H259271   1.939   4.394  16.113 -0.2124 -0.3400  1.6089
12594TIP3   OH259272   5.182   3.820   2.617 -0.6753  0.0083  0.5471
12594TIP3    H159273   5.113   3.767   2.577 -0.1133 -0.4785  0.2224
12594TIP3    H259274   5.135   3.881   2.674 -1.3228 -0.8243  0.9137
12595TIP3   OH259275   2.453   6.459  17.160 -0.8451 -0.7503 -0.5919
12595TIP3    H159276   2.465   6.395  17.230  1.8446 -1.6245 -1.7869
12595TIP3    H259277   2.396   6.415  17.096 -0.0795 -1.4797 -0.7861
12596TIP3   OH259278   1.332   4.275   1.551  0.7391  0.1632 -0.2800
12596TIP3    H159279   1.277   4.217   1.497  0.2867 -0.0131  0.3621
12596TIP3    H259280   1.378   4.330   1.487  1.4484 -1.1426 -0.9141
12597TIP3   OH259281   0.999   5.871   0.090  0.1718 -0.3585 -0.3170
12597TIP3    H159282   0.921   5.829   0.053  1.4590 -0.6781 -2.8203
12597TIP3    H259283   0.965   5.930   0.157 -2.2561 -0.2525 -1.5732
12598TIP3   OH259284   5.255   3.887  11.099 -0.7364  0.6829  0.6367
12598TIP3    H159285   5.288   3.977  11.108 -0.6689  0.8608 -1.2300
12598TIP3    H259286   5.173   3.897  11.052 -0.7196 -0.2360  0.4157
12599TIP3   OH259287   4.439   1.581   2.849 -0.0481 -0.0235 -0.2335
12599TIP3    H159288   4.499   1.509   2.870 -1.0732 -0.1711  2.2645
12599TIP3    H259289   4.375   1.541   2.790  0.1595 -0.7978  0.0534
12600TIP3   OH259290   1.017   0.131  15.957 -0.8233  0.3930 -0.4458
12600TIP3    H159291   1.029   0.223  15.935 -0.5903  0.1190 -1.4881
12600TIP3    H259292   1.049   0.084  15.880 -2.2989 -0.5212 -0.5062
12601TIP3   OH259293   3.226   1.212  12.433 -0.6490  0.1118  0.0311
12601TIP3    H159294   3.236   1.117  12.427  0.4359  0.1982  0.4246
12601TIP3    H259295   3.308   1.247  12.398 -0.7542  0.8944  0.5507
12602TIP3   OH259296   4.536   2.739  15.714 -0.1907  0.2629 -0.2623
12602TIP3    H159297   4.552   2.778  15.799  1.4543 -0.5720 -0.1548
12602TIP3    H259298   4.475   2.667  15.731  0.8958 -0.5163  0.3799
12603TIP3   OH259299   0.011   4.848   5.717  0.2768  0.6727  0.2197
12603TIP3    H159300   0.041   4.770   5.670  0.7190  0.4318  0.8991
12603TIP3    H259301  -0.045   4.813   5.787  0.5681  0.9594  0.5948
12604TIP3   OH259302   4.323   4.051  12.631 -0.1451 -0.1466 -0.0732
12604TIP3    H159303   4.325   4.145  12.612  0.0237  0.1706  1.4151
12604TIP3    H259304   4.254   4.016  12.575  1.1854  0.5132 -2.1668
12605TIP3   OH259305   6.761   6.115  12.931 -0.0565 -0.1164  0.4394
12605TIP3    H159306   6.836   6.062  12.907  0.5171  0.2534  1.3886
12605TIP3    H259307   6.789   6.206  12.915 -0.8369 -0.0553 -0.6496
12606TIP3   OH259308   3.749   2.627   1.700  0.3695 -0.7269 -0.2297
12606TIP3    H159309   3.677   2.575   1.666 -0.0307  0.0264 -0.5570
12606TIP3    H259310   3.827   2.587   1.662  0.1669 -1.8518  0.5219
12607TIP3   OH259311   1.642   4.984  11.100 -0.1019 -0.1754  0.5209
12607TIP3    H159312   1.554   5.014  11.120 -0.1154  0.5060 -0.5116
12607TIP3    H259313   1.657   5.012  11.009  1.0407 -0.5832  0.5742
12608TIP3   OH259314   0.501   6.608  12.067  0.1091  0.7146  0.1199
12608TIP3    H159315   0.501   6.512  12.071 -1.4296  0.7290  0.6052
12608TIP3    H259316   0.594   6.632  12.075  0.6625 -0.7830 -1.5305
12609TIP3   OH259317   4.635   6.556   3.742 -0.0282 -0.2619 -0.6698
12609TIP3    H159318   4.694   6.576   3.815 -0.1164  2.5695 -1.3186
12609TIP3    H259319   4.566   6.502   3.781  1.3065 -1.0133  0.7474
12610TIP3   OH259320   4.653   0.455   0.658  0.7458 -0.0178 -0.4576
12610TIP3    H159321   4.610   0.380   0.699 -0.8132  1.4047  0.5779
12610TIP3    H259322   4.700   0.498   0.729  1.9324 -0.2045 -1.1137
12611TIP3   OH259323   6.536   5.067  14.889 -0.1475  0.3311  0.1024
12611TIP3    H159324   6.601   5.130  14.920  1.1780 -0.6685 -0.6027
12611TIP3    H259325   6.472   5.120  14.841  0.3519  1.2646  0.4508
12612TIP3   OH259326   5.686   5.982   0.651 -0.0241 -0.6520 -0.0215
12612TIP3    H159327   5.610   5.945   0.607 -0.1886 -1.1520  0.6729
12612TIP3    H259328   5.692   6.072   0.619 -1.7987 -0.1235  1.0438
12613TIP3   OH259329   6.361   6.441   4.688 -0.4582 -0.3302 -0.4148
12613TIP3    H159330   6.274   6.456   4.725  0.1238  0.8673  0.5070
12613TIP3    H259331   6.422   6.476   4.754  0.7408 -1.5368 -0.8574
12614TIP3   OH259332   1.140   3.956  17.251 -0.3943 -0.1517  0.0886
12614TIP3    H159333   1.207   4.007  17.205 -0.4605  1.2330  1.4770
12614TIP3    H259334   1.057   3.987  17.213 -0.3252 -1.0499 -0.8276
12615TIP3   OH259335   5.054   6.785  12.138  0.4926  0.5193 -0.3139
12615TIP3    H159336   5.148   6.778  12.125  0.6049  1.4722 -0.0668
12615TIP3    H259337   5.019   6.701  12.107  1.2510  0.8129 -2.0325
12616TIP3   OH259338   0.707   5.339   4.578 -0.1210 -0.5511  0.3020
12616TIP3    H159339   0.632   5.323   4.635  0.2512 -2.7881  0.2131
12616TIP3    H259340   0.775   5.374   4.637 -0.5814 -0.4008  0.7468
12617TIP3   OH259341   6.654   4.713  15.987  0.0372 -0.3159 -0.1326
12617TIP3    H159342   6.723   4.772  15.959 -1.3603  0.7638 -1.3805
12617TIP3    H259343   6.626   4.746  16.072 -1.1024  1.1748 -1.0642
12618TIP3   OH259344   6.539   1.891  15.437 -0.5448 -0.2106 -0.1587
12618TIP3    H159345   6.617   1.902  15.492 -0.3798 -2.2621  0.0623
12618TIP3    H259346   6.475   1.850  15.494 -0.5292 -1.9196 -1.3297
12619TIP3   OH259347   2.821   6.370  13.773  0.5056  0.3222 -0.1558
12619TIP3    H159348   2.794   6.370  13.681 -0.1598  0.1027  0.0351
12619TIP3    H259349   2.746   6.405  13.820  0.4334 -0.5848  0.4220
12620TIP3   OH259350   2.321   4.792  13.697 -0.2272  0.0343  0.8392
12620TIP3    H159351   2.396   4.844  13.668 -1.0770 -0.3226 -2.1608
12620TIP3    H259352   2.245   4.842  13.668 -1.1141 -1.1587  1.0782
12621TIP3   OH259353   1.270   3.792  12.351  0.2388  0.0382 -0.3238
12621TIP3    H159354   1.271   3.731  12.277  0.4466 -1.2228  0.6909
12621TIP3    H259355   1.192   3.846  12.337  0.0149 -0.5088 -1.2167
12622TIP3   OH259356   2.319   0.841  16.679 -0.4542 -0.5261 -0.0890
12622TIP3    H159357   2.297   0.929  16.649 -0.9119 -0.5329  0.2307
12622TIP3    H259358   2.345   0.851  16.770 -2.2557 -0.9659  0.4974
12623TIP3   OH259359   3.480   3.188  16.672 -0.1279 -0.0220  0.9148
12623TIP3    H159360   3.513   3.237  16.748 -0.8641  0.2395  1.0706
12623TIP3    H259361   3.428   3.117  16.710 -0.6489  0.2175  0.6529
12624TIP3   OH259362   4.690   4.788  17.148 -0.3760  0.0961 -0.4347
12624TIP3    H159363   4.708   4.882  17.150  0.8624 -0.1422  0.0686
12624TIP3    H259364   4.646   4.771  17.231 -0.2222  0.1659 -0.3360
12625TIP3   OH259365   6.039   4.388   5.708 -0.3099  0.3557  0.2572
12625TIP3    H159366   6.080   4.305   5.685  2.8235  1.8501  0.1857
12625TIP3    H259367   5.986   4.368   5.785 -1.6705 -2.2143 -1.2812
12626TIP3   OH259368   6.284   3.221   3.011 -0.0616  0.0679  0.3857
12626TIP3    H159369   6.300   3.285   2.942  0.0490 -0.6580 -0.2655
12626TIP3    H259370   6.259   3.142   2.965  1.5306 -0.8758  1.0935
12627TIP3   OH259371   6.356   1.483  15.759  0.7607  0.3413 -0.6916
12627TIP3    H159372   6.446   1.503  15.734  0.4256 -0.2212 -2.4112
12627TIP3    H259373   6.316   1.568  15.775  1.1961  0.6718 -1.3532
12628TIP3   OH259374   3.488   5.338  11.487  0.1936  0.2313 -0.0197
12628TIP3    H159375   3.409   5.335  11.541 -0.2514 -1.3946 -0.7378
12628TIP3    H259376   3.525   5.425  11.504 -1.0492  0.5278  1.2991
12629TIP3   OH259377   2.300   5.813  15.978 -0.5391 -0.4720  0.8618
12629TIP3    H159378   2.310   5.764  15.897  0.8684  0.3302  0.5455
12629TIP3    H259379   2.341   5.757  16.045 -0.5439 -0.5402  0.8077
12630TIP3   OH259380   3.106   2.024  11.267  0.3604  0.1032 -0.1082
12630TIP3    H159381   3.061   1.992  11.346 -1.4295  1.2025 -0.6484
12630TIP3    H259382   3.038   2.071  11.219  1.7968  0.6585 -1.6203
12631TIP3   OH259383   5.996   5.277   1.290  0.9324  0.1850  0.0882
12631TIP3    H159384   6.087   5.277   1.261  0.1755 -1.3252 -2.4738
12631TIP3    H259385   5.969   5.368   1.283  2.1423  0.5817  0.5099
12632TIP3   OH259386   1.613   5.415  15.844 -0.6736 -0.3486 -0.4891
12632TIP3    H159387   1.700   5.424  15.882 -0.6872  0.3527 -0.6138
12632TIP3    H259388   1.553   5.433  15.917 -0.7032  0.3086 -0.6701
12633TIP3   OH259389   0.041   2.294   3.299 -0.3099  0.1462 -0.3954
12633TIP3    H159390   0.107   2.235   3.262 -0.1446 -0.1394  0.3444
12633TIP3    H259391   0.069   2.307   3.389 -0.6566  0.9178 -0.3957
12634TIP3   OH259392   1.720   3.721   1.978  0.1959 -0.0920 -0.2243
12634TIP3    H159393   1.709   3.720   1.883  2.1666  1.4173 -0.5029
12634TIP3    H259394   1.701   3.631   2.006 -0.6737 -0.4748 -1.9941
12635TIP3   OH259395   4.950   5.337  13.927 -0.2786 -0.5107  0.0954
12635TIP3    H159396   4.906   5.408  13.975 -1.4939 -0.6416 -0.8118
12635TIP3    H259397   5.027   5.379  13.887  0.6290 -0.3447  1.9414
12636TIP3   OH259398   5.086   5.229   1.379  0.1000  1.0667  0.3786
12636TIP3    H159399   5.141   5.251   1.454  0.3253  0.9502  0.2484
12636TIP3    H259400   5.147   5.221   1.306 -0.2003  1.9235  0.0245
12637TIP3   OH259401   0.874   4.537  14.625 -0.0327 -0.4495  0.4266
12637TIP3    H159402   0.921   4.546  14.541 -0.2331  0.9839  0.4529
12637TIP3    H259403   0.901   4.452  14.658  0.5596 -0.7558 -0.7938
12638TIP3   OH259404   2.261   4.343   2.746  0.5232  0.2834 -0.3205
12638TIP3    H159405   2.233   4.417   2.801  0.1819  0.3885 -0.6321
12638TIP3    H259406   2.353   4.330   2.769  0.5376  0.6907 -0.1326
12639TIP3   OH259407   0.034   6.307   5.921  0.3698 -0.4005  0.7272
12639TIP3    H159408   0.119   6.335   5.888 -0.2337 -0.4677 -0.9293
12639TIP3    H259409   0.013   6.371   5.990  1.1851  0.3524  0.2857
12640TIP3   OH259410   3.247   4.442  12.593 -0.3305  0.9739  0.6305
12640TIP3    H159411   3.264   4.349  12.611  0.5856  1.1396  0.6036
12640TIP3    H259412   3.304   4.489  12.653 -2.1995  1.5318  2.0102
12641TIP3   OH259413   1.406   0.572   3.537 -0.7798 -0.1839 -0.8906
12641TIP3    H159414   1.501   0.566   3.542 -0.8056 -0.4557 -0.7048
12641TIP3    H259415   1.381   0.614   3.620 -0.8912 -0.9259 -0.5482
12642TIP3   OH259416   4.791   2.794  16.788  0.2750 -0.6142  0.3144
12642TIP3    H159417   4.876   2.762  16.817  1.4550  1.1250 -1.1253
12642TIP3    H259418   4.728   2.735  16.829  2.1995 -2.5264  0.6006
12643TIP3   OH259419   5.637   1.637   2.766 -0.3368  1.0471 -0.1161
12643TIP3    H159420   5.577   1.691   2.818 -0.9295 -0.2404  0.5448
12643TIP3    H259421   5.612   1.547   2.785  2.8999  0.4112  1.4870
12644TIP3   OH259422   1.749   0.260  14.210 -0.0722 -0.2109 -0.1851
12644TIP3    H159423   1.667   0.220  14.179 -0.3252  0.1324  0.0399
12644TIP3    H259424   1.762   0.223  14.297  0.5722 -1.0777 -0.6353
12645TIP3   OH259425   4.355   4.181   4.291  0.3203  0.2260  0.4265
12645TIP3    H159426   4.271   4.226   4.281  0.7504  0.9652  0.1245
12645TIP3    H259427   4.363   4.126   4.213  1.1288  1.8254 -0.6442
12646TIP3   OH259428   6.682   2.873  14.879  0.0172  0.1023 -0.5408
12646TIP3    H159429   6.626   2.932  14.929  0.6250 -0.8110  1.2504
12646TIP3    H259430   6.706   2.804  14.941 -1.7827 -2.8144 -2.8997
12647TIP3   OH259431   2.156   6.000  16.699 -0.9539 -0.3465  0.0344
12647TIP3    H159432   2.074   6.007  16.651 -0.9569 -1.7082 -0.1725
12647TIP3    H259433   2.134   5.951  16.778 -0.8918  1.6359  1.3170
12648TIP3   OH259434   2.701   4.043  16.115  0.1636  0.1617 -0.4500
12648TIP3    H159435   2.692   4.060  16.021  1.2048 -1.0302 -0.7799
12648TIP3    H259436   2.728   3.951  16.120 -1.1387 -0.1666  1.0687
12649TIP3   OH259437   4.103   2.476  15.722  0.8563  0.6952 -0.1973
12649TIP3    H159438   4.066   2.541  15.782  0.4270 -0.7356  1.1110
12649TIP3    H259439   4.195   2.503  15.712  0.5942  1.7112  0.0229
12650TIP3   OH259440   1.492   1.807   1.070 -0.0349 -0.3700 -0.0035
12650TIP3    H159441   1.512   1.811   1.164 -1.6668  2.2902  0.2798
12650TIP3    H259442   1.404   1.769   1.066 -0.3253  0.3406 -0.4060
12651TIP3   OH259443   1.346   0.978  13.863  1.1899  0.1884 -0.0382
12651TIP3    H159444   1.339   1.052  13.803  1.5970  0.8457  0.7174
12651TIP3    H259445   1.285   0.913  13.828 -1.4606  2.0514  0.9590
12652TIP3   OH259446   5.582   0.833  15.419 -0.3115 -0.0949 -0.1988
12652TIP3    H159447   5.612   0.800  15.334 -1.4757  1.0638 -1.0995
12652TIP3    H259448   5.552   0.755  15.466  0.4090 -0.7564 -0.8267
12653TIP3   OH259449   1.094   5.107  16.129  0.3392 -0.2344  0.7189
12653TIP3    H159450   1.096   5.013  16.147  1.2692 -0.5809 -1.1239
12653TIP3    H259451   1.012   5.121  16.082  1.7558 -0.6961 -1.9470
12654TIP3   OH259452   1.461   6.483   4.432  0.0909 -0.1836  0.2197
12654TIP3    H159453   1.427   6.569   4.409  0.7510  0.1640  0.5050
12654TIP3    H259454   1.549   6.481   4.394  0.6684 -0.1307  1.5032
12655TIP3   OH259455   5.688   5.141  15.465 -0.1827  0.1701  0.4664
12655TIP3    H159456   5.776   5.177  15.459  0.2940 -0.8197  1.4069
12655TIP3    H259457   5.700   5.053  15.500 -1.6750  0.6521  2.2605
12656TIP3   OH259458   2.597   1.670   4.977  0.2192  0.3079  0.4126
12656TIP3    H159459   2.661   1.620   5.027 -0.2731  0.5871  1.3323
12656TIP3    H259460   2.514   1.626   4.994 -0.0696  0.8687  0.4754
12657TIP3   OH259461   3.202   2.510  13.166  0.7677  0.0116 -0.3346
12657TIP3    H159462   3.263   2.544  13.232  1.8355 -0.6347 -0.9772
12657TIP3    H259463   3.259   2.474  13.098 -0.3334  0.3490 -1.4340
12658TIP3   OH259464   1.079   2.921   1.360 -0.0255  0.2983 -0.5283
12658TIP3    H159465   1.061   2.911   1.453  1.9090 -0.4646 -0.2206
12658TIP3    H259466   1.159   2.975   1.357 -1.0617  1.8133 -1.7901
12659TIP3   OH259467   6.019   0.432  10.775 -0.1144  0.7623  0.6718
12659TIP3    H159468   5.954   0.492  10.739 -2.3753 -1.8926  0.1860
12659TIP3    H259469   5.977   0.394  10.851  0.0286 -2.4855 -0.7869
12660TIP3   OH259470   6.547   0.587  15.455 -0.0377 -0.0118 -0.1659
12660TIP3    H159471   6.641   0.600  15.454  0.1016 -0.7823  0.9723
12660TIP3    H259472   6.535   0.495  15.431 -0.6278  0.6042 -2.2781
12661TIP3   OH259473   6.756   5.269   3.001  0.5425  0.7158  0.3465
12661TIP3    H159474   6.741   5.345   3.058 -1.4104  1.0128 -0.5121
12661TIP3    H259475   6.676   5.217   3.009  0.5146  0.4393 -1.6168
12662TIP3   OH259476   3.453   3.252   4.449 -0.0268 -0.2283 -0.3128
12662TIP3    H159477   3.384   3.306   4.409 -0.6700 -0.5622  0.3401
12662TIP3    H259478   3.501   3.216   4.374  0.8311  1.7800 -0.7593
12663TIP3   OH259479   3.249   4.146   2.617  0.2810  0.3071  0.0699
12663TIP3    H159480   3.167   4.096   2.624 -1.1566  2.4359 -0.8600
12663TIP3    H259481   3.222   4.237   2.631  2.5529  1.0196 -0.0063
12664TIP3   OH259482   0.400   2.698   0.134  0.3349 -0.1846  0.1283
12664TIP3    H159483   0.444   2.614   0.120 -0.6099 -0.8863  1.2338
12664TIP3    H259484   0.348   2.685   0.213 -1.8497  0.5942 -1.1140
12665TIP3   OH259485   4.212   2.253  17.226  0.4902 -0.1656  0.2617
12665TIP3    H159486   4.160   2.332  17.237  0.7594  0.0873 -0.2503
12665TIP3    H259487   4.205   2.232  17.133 -0.1179 -1.1190  0.5147
12666TIP3   OH259488   3.209   2.684   1.473 -0.1367  0.4862  0.6353
12666TIP3    H159489   3.137   2.692   1.536  0.1552 -0.6952  1.1281
12666TIP3    H259490   3.174   2.630   1.402 -0.5626  2.0697 -0.3732
12667TIP3   OH259491   0.453   5.155  13.739  0.0471 -0.1368  0.1048
12667TIP3    H159492   0.445   5.124  13.830  1.0702  0.8801  0.5617
12667TIP3    H259493   0.393   5.229  13.734 -0.4629 -0.5716 -0.2316
12668TIP3   OH259494   1.503   2.083  13.302 -0.2804  0.8973 -0.2982
12668TIP3    H159495   1.545   2.166  13.323 -1.7770  1.7397 -0.5645
12668TIP3    H259496   1.409   2.100  13.312 -0.6184 -0.6947 -0.5747
12669TIP3   OH259497   1.281   6.019   3.045 -0.5624 -0.5093 -0.2488
12669TIP3    H159498   1.263   5.941   2.993 -0.0849 -0.7327 -0.0795
12669TIP3    H259499   1.371   6.044   3.021  0.0696 -1.2682  1.2933
12670TIP3   OH259500   0.286   5.411  11.925  0.2366 -0.3611  0.3042
12670TIP3    H159501   0.355   5.424  11.990  2.1709 -1.9836 -1.3866
12670TIP3    H259502   0.274   5.317  11.920 -0.0813 -0.2411 -1.5171
12671TIP3   OH259503   3.700   4.997  12.355  1.0086 -0.1166 -0.1279
12671TIP3    H159504   3.717   5.077  12.404  0.0281  0.5360 -0.8282
12671TIP3    H259505   3.664   5.027  12.271 -2.3030 -1.3596  0.7584
12672TIP3   OH259506   4.398   1.820  11.402 -0.0442 -0.1317  0.0840
12672TIP3    H159507   4.474   1.765  11.387  0.2847  0.3950 -0.2118
12672TIP3    H259508   4.358   1.830  11.315  0.2105  0.5386  0.0381
12673TIP3   OH259509   2.498   5.799  16.394  0.4032 -0.0366 -0.7746
12673TIP3    H159510   2.458   5.884  16.407 -1.8737 -0.9993 -1.3018
12673TIP3    H259511   2.501   5.759  16.481  0.3740  0.1073 -0.7105
12674TIP3   OH259512   3.907   2.704  17.053 -0.5807 -0.5774 -0.3970
12674TIP3    H159513   4.000   2.726  17.052 -0.7192  0.0415  0.0573
12674TIP3    H259514   3.904   2.613  17.082 -0.2775  0.3054  2.6217
12675TIP3   OH259515   5.127   4.653   3.807 -0.0881  0.7513 -0.4496
12675TIP3    H159516   5.205   4.707   3.814 -0.1466  0.6831  0.7451
12675TIP3    H259517   5.141   4.601   3.727  1.2900  0.3997  0.0178
12676TIP3   OH259518   3.095   5.566   2.911  0.4358  0.5716  0.2809
12676TIP3    H159519   3.078   5.471   2.911 -0.0595  0.6483 -0.7467
12676TIP3    H259520   3.059   5.597   2.994  1.6514 -0.3146  1.1650
12677TIP3   OH259521   4.006   3.081  11.596  0.3902 -0.3672  0.0491
12677TIP3    H159522   3.961   3.054  11.516 -0.6023  2.9095 -0.6012
12677TIP3    H259523   3.959   3.036  11.666 -0.0844 -1.6378 -1.0614
12678TIP3   OH259524   3.691   2.896  17.175 -0.1802  0.3549 -0.3483
12678TIP3    H159525   3.748   2.824  17.147  0.0837 -0.0557  1.1778
12678TIP3    H259526   3.730   2.926  17.257 -0.7881  1.6800 -0.5303
12679TIP3   OH259527   4.767   2.150  11.766  0.5465 -0.0968  0.6181
12679TIP3    H159528   4.853   2.112  11.748 -0.2483 -1.1943 -0.9182
12679TIP3    H259529   4.764   2.158  11.861  2.0225 -0.8256  0.7351
12680TIP3   OH259530   3.675   2.508  13.435  0.1398  0.2297  0.5290
12680TIP3    H159531   3.585   2.499  13.465 -0.6742 -0.6413 -1.9980
12680TIP3    H259532   3.688   2.602  13.424  0.0735  0.4721  2.3493
12681TIP3   OH259533   2.649   3.801  12.885  0.5054  0.0429 -0.2961
12681TIP3    H159534   2.564   3.761  12.867  0.7491 -0.1354 -1.0888
12681TIP3    H259535   2.641   3.891  12.855  0.7774 -0.1357 -0.9162
12682TIP3   OH259536   1.984   1.953  12.805 -0.0820 -0.0968 -0.0458
12682TIP3    H159537   2.069   1.991  12.829 -0.6200  1.3577 -0.3833
12682TIP3    H259538   1.920   2.015  12.841 -0.9644  0.0213 -1.8035
12683TIP3   OH259539   6.003   3.576  11.503  0.0204  0.4293 -0.2913
12683TIP3    H159540   6.013   3.567  11.598 -2.2795 -1.5077 -0.1783
12683TIP3    H259541   6.065   3.514  11.466 -0.6970 -0.4754  0.0125
12684TIP3   OH259542   1.356   5.013   3.219  0.4265  0.8519  0.3192
12684TIP3    H159543   1.411   4.940   3.247 -0.8053  0.6244  2.2234
12684TIP3    H259544   1.303   4.977   3.147  0.7822  0.2698  0.3433
12685TIP3   OH259545   1.038   5.125   5.285 -0.0668 -0.1365 -0.7820
12685TIP3    H159546   1.126   5.089   5.279 -1.3244 -3.2258 -1.9535
12685TIP3    H259547   0.995   5.070   5.351 -0.8590  1.9864  0.5288
12686TIP3   OH259548   4.625   6.087   5.071 -0.4325  0.0407  0.4379
12686TIP3    H159549   4.683   6.034   5.125 -1.0618  0.6942  1.7867
12686TIP3    H259550   4.565   6.128   5.134 -0.8699  1.1955 -0.7126
12687TIP3   OH259551   0.695   5.020  17.012  0.0197 -0.2855  0.4436
12687TIP3    H159552   0.712   5.046  17.103  1.1460  1.5508 -0.2542
12687TIP3    H259553   0.631   4.949  17.019  1.1647 -1.1745  2.7524
12688TIP3   OH259554   5.556   2.895   0.286  0.0700 -0.1128  0.4043
12688TIP3    H159555   5.520   2.979   0.312  0.3399 -0.0143  0.4590
12688TIP3    H259556   5.535   2.836   0.359  1.8698  0.4417  1.3939
12689TIP3   OH259557   1.995   5.729  11.254  0.7752 -0.1545 -0.8373
12689TIP3    H159558   1.922   5.678  11.218 -0.3694  0.5045  0.4945
12689TIP3    H259559   2.007   5.801  11.192  0.8368 -0.7142 -1.4815
12690TIP3   OH259560   5.327   1.750   1.157 -0.0724  0.3588  0.1449
12690TIP3    H159561   5.306   1.712   1.072 -2.5613 -0.8350  1.2579
12690TIP3    H259562   5.244   1.754   1.204  1.5003 -0.6070  3.1762
12691TIP3   OH259563   4.433   4.682  15.872 -0.0591 -0.2157 -0.6373
12691TIP3    H159564   4.490   4.747  15.832  1.9903 -1.1781  0.6299
12691TIP3    H259565   4.387   4.730  15.941 -0.3989  0.4512 -1.3238
12692TIP3   OH259566   1.035   3.280   2.332 -0.2199 -0.3747  0.2804
12692TIP3    H159567   1.118   3.327   2.335 -0.0939 -0.5860  0.0729
12692TIP3    H259568   1.059   3.189   2.314 -0.4751 -0.4890  0.5237
12693TIP3   OH259569   5.081   1.887  15.846  0.5359  0.0421 -0.6402
12693TIP3    H159570   5.128   1.836  15.779  1.0359  0.9701 -1.0055
12693TIP3    H259571   5.109   1.977  15.831 -1.9121  0.7181 -1.3156
12694TIP3   OH259572   6.722   1.307   4.431 -0.0938  0.0344  0.2633
12694TIP3    H159573   6.704   1.230   4.485  0.6050  0.2644  0.8229
12694TIP3    H259574   6.816   1.304   4.415  0.0220  1.0308  0.6951
12695TIP3   OH259575   0.536   0.406  16.716  0.6641 -0.1881  0.1220
12695TIP3    H159576   0.595   0.385  16.789  1.9941  1.2179 -0.5110
12695TIP3    H259577   0.578   0.366  16.639  0.1447 -0.2298 -0.1428
12696TIP3   OH259578   4.557   3.997  15.628  0.8363 -0.1641 -0.0341
12696TIP3    H159579   4.653   3.995  15.624  0.9071  1.5860  0.4197
12696TIP3    H259580   4.535   3.945  15.705  1.3742 -1.3262 -0.6597
12697TIP3   OH259581   3.822   0.823  14.485  0.2614  0.1198  0.1555
12697TIP3    H159582   3.809   0.730  14.466 -1.0865  0.5361 -1.0834
12697TIP3    H259583   3.835   0.827  14.580 -1.8298 -1.1325  0.5292
12698TIP3   OH259584   0.129   1.913   4.604  0.2940  0.0186 -0.4800
12698TIP3    H159585   0.128   1.840   4.543 -0.8197  0.1979 -0.6935
12698TIP3    H259586   0.167   1.986   4.554  0.0222 -0.0175 -0.7382
12699TIP3   OH259587   4.740   6.772   1.346 -0.0201 -0.7930 -0.3776
12699TIP3    H159588   4.821   6.747   1.392 -0.1074 -0.2974  0.0446
12699TIP3    H259589   4.671   6.757   1.410 -0.0022  1.1979  0.1171
12700TIP3   OH259590   1.619   3.353  11.999  0.0677  0.3325 -0.0568
12700TIP3    H159591   1.610   3.364  11.905 -0.3003 -1.2314 -0.2248
12700TIP3    H259592   1.706   3.387  12.020  1.4434 -2.1991 -1.4628
12701TIP3   OH259593   5.008   4.159   5.261 -0.4073  0.1992  0.4031
12701TIP3    H159594   4.966   4.113   5.188  0.3832 -1.0228  0.6987
12701TIP3    H259595   4.941   4.218   5.294 -1.2743 -0.3614 -0.3269
12702TIP3   OH259596   3.648   0.788   2.520 -0.2686 -0.2268 -0.6986
12702TIP3    H159597   3.560   0.825   2.518  0.2488  0.9179 -3.1694
12702TIP3    H259598   3.679   0.791   2.430  2.3317 -0.5521  0.1131
12703TIP3   OH259599   0.919   4.850  14.702 -0.0064  0.1073 -0.3007
12703TIP3    H159600   0.941   4.857  14.609 -4.3373 -0.5677 -1.5005
12703TIP3    H259601   0.892   4.758  14.713 -1.0530  0.5930  1.2590
12704TIP3   OH259602   2.493   5.781   0.144 -0.1133  0.1310  0.3453
12704TIP3    H159603   2.516   5.688   0.142  3.0731  0.8776 -0.8907
12704TIP3    H259604   2.560   5.821   0.200 -0.7947  1.8736 -0.0467
12705TIP3   OH259605   6.460   0.593  12.125  0.5239 -0.3186 -0.1364
12705TIP3    H159606   6.506   0.591  12.041 -1.8230 -1.1448 -1.4461
12705TIP3    H259607   6.491   0.515  12.170 -0.3829 -1.4697 -1.4614
12706TIP3   OH259608   0.838   5.912   5.693  0.0631 -0.0640  0.1890
12706TIP3    H159609   0.887   5.961   5.628 -0.0216 -2.1504 -1.5190
12706TIP3    H259610   0.864   5.950   5.777  0.3071  2.5469 -1.0341
12707TIP3   OH259611   0.473   2.932  14.158 -0.3979  0.1069 -0.2959
12707TIP3    H159612   0.563   2.952  14.132 -0.3523 -2.3036 -2.1325
12707TIP3    H259613   0.419   2.990  14.104 -0.0083  0.9663  0.2194
12708TIP3   OH259614   0.761   0.252   4.593  0.2161 -0.2706 -0.0416
12708TIP3    H159615   0.670   0.229   4.612  0.0305  1.1343  0.8499
12708TIP3    H259616   0.806   0.167   4.585 -1.5792 -1.0360 -2.7182
12709TIP3   OH259617   6.111   3.848   2.298 -0.3074 -0.3511  0.2836
12709TIP3    H159618   6.086   3.756   2.302  1.0842 -0.7607 -0.0484
12709TIP3    H259619   6.144   3.860   2.209 -1.2468  0.6783  0.0640
12710TIP3   OH259620   4.701   1.068   4.109 -0.5942  0.4816 -0.6986
12710TIP3    H159621   4.619   1.090   4.152 -0.4317  0.3285 -0.3054
12710TIP3    H259622   4.734   0.992   4.157 -1.0619 -0.5215 -1.9406
12711TIP3   OH259623   2.022   2.319   4.414  0.0209 -0.2594 -0.6130
12711TIP3    H159624   2.094   2.381   4.405 -0.8656  0.5579 -2.2685
12711TIP3    H259625   2.065   2.236   4.437  1.3432  0.5498 -0.0737
12712TIP3   OH259626   1.728   0.785   5.515  0.3733  0.0638  0.1650
12712TIP3    H159627   1.638   0.769   5.545  0.0720  1.5668  0.1160
12712TIP3    H259628   1.731   0.880   5.499  2.4377  0.3105  1.7326
12713TIP3   OH259629   2.877   1.912  14.554 -0.2788 -0.4489 -0.5914
12713TIP3    H159630   2.937   1.840  14.534 -0.9609 -1.5176  1.0859
12713TIP3    H259631   2.910   1.986  14.503  1.1717 -1.6102 -1.3685
12714TIP3   OH259632   1.304   3.059  13.641 -0.3601 -0.0169  0.4439
12714TIP3    H159633   1.337   3.047  13.730  1.2461 -1.4262 -0.3247
12714TIP3    H259634   1.220   3.012  13.640 -0.4408  0.1045  1.2398
12715TIP3   OH259635   1.634   3.627  11.167 -0.6589 -0.0496  0.7516
12715TIP3    H159636   1.625   3.681  11.088  1.7058 -1.2186 -0.3762
12715TIP3    H259637   1.600   3.541  11.141 -2.9567  0.4268  2.0585
12716TIP3   OH259638   0.853   3.207   6.515  0.0969 -0.3755 -0.6519
12716TIP3    H159639   0.767   3.174   6.488  0.1799 -1.3866  0.3241
12716TIP3    H259640   0.893   3.135   6.563  0.4928  0.9493  1.0435
12717TIP3   OH259641   2.285   6.119   2.274 -0.4434 -0.3909  0.0050
12717TIP3    H159642   2.357   6.181   2.283 -0.9599  0.1460  0.5711
12717TIP3    H259643   2.207   6.175   2.265 -1.0774 -0.9406  1.8304
12718TIP3   OH259644   0.632   2.357  17.057  0.0759  0.6199  0.4232
12718TIP3    H159645   0.707   2.326  17.006  0.7639  1.9646  0.5875
12718TIP3    H259646   0.562   2.367  16.993  0.1929 -0.1350  0.1770
12719TIP3   OH259647   3.546   3.012  15.741 -0.0161  0.4731 -0.3433
12719TIP3    H159648   3.640   2.995  15.752 -0.1959 -0.0881  0.3931
12719TIP3    H259649   3.540   3.107  15.727  0.3998  1.0908  3.0453
12720TIP3   OH259650   6.066   2.079  15.962  0.2804 -0.2658 -0.0313
12720TIP3    H159651   6.140   2.019  15.951 -0.2179 -0.8401 -0.2783
12720TIP3    H259652   6.074   2.140  15.889 -0.0901 -0.9661 -0.6607
12721TIP3   OH259653   6.385   5.567   3.742 -0.5714  0.4738 -0.0954
12721TIP3    H159654   6.474   5.549   3.771 -1.0522 -1.0282  0.5195
12721TIP3    H259655   6.356   5.639   3.797 -0.8970 -1.2639  2.0673
12722TIP3   OH259656   6.014   1.917  11.668  0.3139 -0.5108 -0.3801
12722TIP3    H159657   5.958   1.862  11.723  2.0274 -0.8542  1.0405
12722TIP3    H259658   5.987   1.897  11.579 -1.1195 -1.4350  0.2425
12723TIP3   OH259659   2.047   3.680  15.137  0.6895  0.0383  0.1126
12723TIP3    H159660   2.114   3.694  15.204  1.2106 -2.3851  0.1370
12723TIP3    H259661   2.094   3.684  15.054  0.3939  0.9452 -0.0235
12724TIP3   OH259662   2.395   2.648  15.457  0.1919 -0.2028 -0.0855
12724TIP3    H159663   2.445   2.704  15.517  1.1447 -1.2257  0.0809
12724TIP3    H259664   2.431   2.560  15.470 -0.7224 -0.7180 -0.9603
12725TIP3   OH259665   2.945   3.721  14.827  0.0782  0.7734 -0.3436
12725TIP3    H159666   2.957   3.766  14.911 -0.6302  0.1905  0.0736
12725TIP3    H259667   2.863   3.755  14.793 -1.3354 -1.4303  0.7716
12726TIP3   OH259668   1.519   0.189  15.498  0.0142  0.0131  0.0805
12726TIP3    H159669   1.469   0.270  15.486 -3.0716 -2.1088 -2.0168
12726TIP3    H259670   1.611   0.215  15.487 -0.9033  3.2141 -0.3957
12727TIP3   OH259671   4.616   5.400   1.211  0.9812 -0.0537  0.7069
12727TIP3    H159672   4.691   5.385   1.269  1.9983 -1.3292 -0.8875
12727TIP3    H259673   4.635   5.347   1.133 -2.3694 -1.7501  0.9416
12728TIP3   OH259674   6.371   3.637  11.363 -0.1606 -0.2295  0.2431
12728TIP3    H159675   6.347   3.726  11.337  0.1520 -0.4612 -0.8476
12728TIP3    H259676   6.466   3.638  11.368 -0.2727  0.1736  2.7178
12729TIP3   OH259677   6.303   6.104   2.123 -0.6845  0.1010 -0.3242
12729TIP3    H159678   6.271   6.014   2.123  1.5975 -0.7548  0.8383
12729TIP3    H259679   6.392   6.098   2.088  0.3748  1.5171  1.9425
12730TIP3   OH259680   2.820   5.164   6.225 -0.2287 -0.1361 -0.4024
12730TIP3    H159681   2.848   5.243   6.180  0.1050 -0.0091  0.0256
12730TIP3    H259682   2.775   5.113   6.158 -0.2924  0.3365 -0.7222
12731TIP3   OH259683   6.713   6.638  13.110  0.3493 -0.3857  0.1407
12731TIP3    H159684   6.728   6.544  13.119 -0.7082 -0.8182 -2.3478
12731TIP3    H259685   6.798   6.678  13.132  1.4678 -2.0579 -1.0247
12732TIP3   OH259686   5.534   6.171   3.136  0.0034  0.3031 -0.3547
12732TIP3    H159687   5.603   6.212   3.084 -0.1758  0.1042 -0.7454
12732TIP3    H259688   5.507   6.240   3.197  0.0173  0.6238 -0.7077
12733TIP3   OH259689   1.189   0.518  10.752  0.4773 -0.3433 -0.0423
12733TIP3    H159690   1.108   0.505  10.703  1.4986  0.5524 -2.0414
12733TIP3    H259691   1.236   0.435  10.743  0.5879 -0.2379 -0.4521
12734TIP3   OH259692   1.461   1.080   1.351  0.2866 -0.4540 -0.0593
12734TIP3    H159693   1.508   1.155   1.316  2.5801 -0.7075  2.3240
12734TIP3    H259694   1.528   1.013   1.364 -1.1383 -1.7211  1.0810
12735TIP3   OH259695   5.695   3.399  10.389  0.2819  0.0728 -0.5700
12735TIP3    H159696   5.784   3.399  10.352 -0.1181  1.9320 -1.6096
12735TIP3    H259697   5.708   3.380  10.481  1.7356 -0.1917 -0.8150
12736TIP3   OH259698   2.766   2.030   5.634  0.3602 -0.0569 -0.2891
12736TIP3    H159699   2.829   2.102   5.622 -0.8760  1.2185  0.7330
12736TIP3    H259700   2.728   2.046   5.721 -0.6947 -1.3494 -0.5054
12737TIP3   OH259701   0.766   1.153  15.313 -0.5541 -0.3192  0.4449
12737TIP3    H159702   0.828   1.144  15.386  0.6329 -0.2214 -0.5317
12737TIP3    H259703   0.680   1.143  15.354  0.0404  0.6198  2.0038
12738TIP3   OH259704   0.866   2.791  14.448 -0.9928  0.0799  0.3046
12738TIP3    H159705   0.843   2.703  14.418 -2.0042  0.9416 -1.5068
12738TIP3    H259706   0.858   2.786  14.543  0.2606 -2.1410  0.3463
12739TIP3   OH259707   2.825   0.939   2.907 -0.0789  0.1647  0.2504
12739TIP3    H159708   2.739   0.951   2.867  0.4509  0.5495 -0.7878
12739TIP3    H259709   2.884   0.995   2.857  1.2421 -1.9614 -0.6690
12740TIP3   OH259710   2.932   5.118   1.607 -0.0318  0.2222 -0.1818
12740TIP3    H159711   3.024   5.096   1.620  0.2756  1.3220 -0.4840
12740TIP3    H259712   2.923   5.206   1.642 -0.7649  0.4738 -0.9962
12741TIP3   OH259713   4.326   5.188  11.284 -0.0694  0.2227 -0.0551
12741TIP3    H159714   4.264   5.261  11.284 -1.1251 -0.6659 -0.5915
12741TIP3    H259715   4.293   5.128  11.352  0.2628 -0.1953 -0.2602
12742TIP3   OH259716   2.544   2.993  14.966 -0.3857 -0.0644  0.3664
12742TIP3    H159717   2.553   3.080  14.927  1.0494  0.1453  1.1111
12742TIP3    H259718   2.467   2.955  14.924  0.0397  0.8755 -1.2873
12743TIP3   OH259719   4.412   6.350  13.760  0.1245  0.3271  0.2906
12743TIP3    H159720   4.400   6.328  13.668  2.2179 -0.4238  0.1530
12743TIP3    H259721   4.385   6.442  13.767 -1.8938 -0.1731 -0.6378
12744TIP3   OH259722   6.420   0.945  16.994  0.2198 -0.5828 -0.0013
12744TIP3    H159723   6.355   1.013  17.006 -0.5323 -1.5220  1.3479
12744TIP3    H259724   6.472   0.947  17.075  0.0519 -1.7375  0.1442
12745TIP3   OH259725   4.351   6.377   1.807 -0.4191  0.0466 -0.2760
12745TIP3    H159726   4.344   6.379   1.711  0.3306  3.1726 -0.3011
12745TIP3    H259727   4.411   6.304   1.825  0.7194  0.4550 -2.2642
12746TIP3   OH259728   6.326   2.071  14.282 -0.1170  0.5969 -0.1160
12746TIP3    H159729   6.246   2.027  14.311 -1.0055  1.1451 -1.6821
12746TIP3    H259730   6.296   2.140  14.224  1.5222  0.6113 -0.9852
12747TIP3   OH259731   1.870   1.404   5.250  0.1912  0.4523  0.2823
12747TIP3    H159732   1.934   1.430   5.184  0.8062  0.9293  1.0545
12747TIP3    H259733   1.787   1.441   5.219 -0.5697 -3.3299 -2.7109
12748TIP3   OH259734   2.926   6.536   4.990 -1.0200 -0.2131  0.6607
12748TIP3    H159735   2.865   6.485   5.043 -0.9456 -0.0636  0.8916
12748TIP3    H259736   3.011   6.518   5.028 -0.8143 -1.0523 -0.1557
12749TIP3   OH259737   5.742   1.546  12.161 -0.2361  0.0581 -0.4125
12749TIP3    H159738   5.666   1.489  12.175 -1.5441  1.5534 -1.3921
12749TIP3    H259739   5.813   1.485  12.138 -1.3945 -1.2550 -0.5988
12750TIP3   OH259740   0.137   1.120  17.098  0.1434 -0.4155  0.0738
12750TIP3    H159741   0.178   1.034  17.107 -1.6887 -1.1634  1.5321
12750TIP3    H259742   0.119   1.128  17.004 -1.1882 -2.3579  0.1298
12751TIP3   OH259743   2.039   3.134   6.318  0.1328  0.2177  0.1396
12751TIP3    H159744   1.958   3.157   6.273 -0.3253 -0.8471  0.4098
12751TIP3    H259745   2.109   3.158   6.257 -0.3823  1.0368 -0.1366
12752TIP3   OH259746   2.860   2.465  16.920  0.3984 -0.4513  0.3688
12752TIP3    H159747   2.832   2.511  16.998  1.1983 -0.5966  0.7522
12752TIP3    H259748   2.896   2.533  16.863  1.7342 -0.5957  1.0027
12753TIP3   OH259749   6.431   1.044  14.451 -0.1611  0.3061 -0.2353
12753TIP3    H159750   6.440   1.043  14.356 -2.0791 -2.5792 -0.4309
12753TIP3    H259751   6.347   1.087  14.467  0.1519  0.7760  0.1885
12754TIP3   OH259752   4.342   0.134  11.408  0.6540 -0.3883  0.1373
12754TIP3    H159753   4.350   0.226  11.383 -0.9516 -0.4900 -0.8328
12754TIP3    H259754   4.366   0.132  11.500  0.9860  0.9603  0.0912
12755TIP3   OH259755   0.217   0.486   4.702  0.0924 -0.3659 -0.3232
12755TIP3    H159756   0.241   0.557   4.762 -0.9030 -1.1872  1.0859
12755TIP3    H259757   0.261   0.508   4.620 -2.4983  3.3478 -0.8158
12756TIP3   OH259758   3.659   5.374   3.493 -0.2868 -0.2970  0.2630
12756TIP3    H159759   3.698   5.435   3.555 -0.1330 -0.1790  0.0516
12756TIP3    H259760   3.565   5.390   3.498 -0.1710  0.6105 -0.4795
12757TIP3   OH259761   2.286   6.685  13.645  0.1088  0.8834  0.2198
12757TIP3    H159762   2.328   6.602  13.666  0.7417  0.7460 -1.4781
12757TIP3    H259763   2.358   6.741  13.614 -0.4799  1.6896  0.2898
12758TIP3   OH259764   6.023   5.479  14.834 -0.2227 -1.1715 -0.3052
12758TIP3    H159765   5.993   5.466  14.744  0.2523 -0.7354 -0.5333
12758TIP3    H259766   5.995   5.568  14.855  2.6087  0.0132 -1.2348
12759TIP3   OH259767   4.223   5.471   4.416 -0.6862 -0.3886 -0.0114
12759TIP3    H159768   4.261   5.384   4.434 -1.8271 -0.9273 -0.1690
12759TIP3    H259769   4.253   5.492   4.327 -1.6717 -1.3177 -0.5741
12760TIP3   OH259770   0.630   6.623  12.446  0.7685 -0.6195 -0.2647
12760TIP3    H159771   0.660   6.709  12.418 -0.0666 -0.6494 -1.3099
12760TIP3    H259772   0.641   6.623  12.541  2.6773 -0.1132 -0.4698
12761TIP3   OH259773   4.852   0.948  16.093  0.3743 -0.0073 -0.0805
12761TIP3    H159774   4.799   1.003  16.151 -1.7300 -1.5572 -0.4701
12761TIP3    H259775   4.887   1.009  16.028  0.3349  1.2876  1.0868
12762TIP3   OH259776   5.468   2.949  14.025  0.4260 -0.6265  0.3941
12762TIP3    H159777   5.561   2.932  14.019  0.9049  1.3619  1.6177
12762TIP3    H259778   5.448   2.944  14.119 -0.0206  1.9910  0.4923
12763TIP3   OH259779   3.062   6.147   1.306 -0.1512 -0.0876 -0.3791
12763TIP3    H159780   3.032   6.058   1.324  1.8198 -0.6571  0.2229
12763TIP3    H259781   2.982   6.199   1.302 -1.1488 -1.3261  2.4363
12764TIP3   OH259782   5.477   3.867   1.459  0.4157  0.2057 -0.1181
12764TIP3    H159783   5.403   3.928   1.467 -1.0305 -1.7545  2.1796
12764TIP3    H259784   5.450   3.805   1.392 -0.2771 -0.8460  1.1288
12765TIP3   OH259785   2.821   5.473   0.160 -0.0396  0.4026  0.1249
12765TIP3    H159786   2.815   5.480   0.255 -2.5354 -0.5735  0.0949
12765TIP3    H259787   2.732   5.493   0.129  0.7007  0.5548 -1.9797
12766TIP3   OH259788   6.095   6.166   4.260 -0.1849 -0.3825  0.3619
12766TIP3    H159789   6.149   6.142   4.184 -0.3431 -0.1228  0.1688
12766TIP3    H259790   6.048   6.245   4.233 -0.3719 -0.3865  0.6684
12767TIP3   OH259791   2.591   6.218  11.305 -0.2551 -0.2692 -0.1694
12767TIP3    H159792   2.517   6.209  11.246 -0.9409  1.4229  0.4093
12767TIP3    H259793   2.552   6.234  11.391  0.7588 -0.0968  0.2684
12768TIP3   OH259794   3.425   0.896   2.469 -0.5841  0.7447  0.1710
12768TIP3    H159795   3.341   0.864   2.436 -0.2479  0.4680 -0.4346
12768TIP3    H259796   3.408   0.988   2.493 -1.1599  0.5673  0.4503
12769TIP3   OH259797   2.719   3.328  17.188  0.3565  0.7119 -0.3178
12769TIP3    H159798   2.718   3.359  17.278  0.3031 -1.0736  0.3183
12769TIP3    H259799   2.662   3.390  17.141 -3.0022 -0.6655  1.6929
12770TIP3   OH259800   6.053   5.533  16.430 -0.5270  0.3702  0.0158
12770TIP3    H159801   5.987   5.481  16.476 -0.8947  0.9729  0.1790
12770TIP3    H259802   6.010   5.561  16.349  0.9027 -2.6747 -1.8674
12771TIP3   OH259803   2.461   3.938  14.893  0.2387  0.1665  0.2347
12771TIP3    H159804   2.418   3.983  14.965  0.6246  1.8087 -0.5376
12771TIP3    H259805   2.391   3.915  14.832  0.1822  0.8673  0.0313
12772TIP3   OH259806   1.164   3.218   0.453  0.4015  0.9016  0.4048
12772TIP3    H159807   1.132   3.133   0.483  0.5442  0.9569  0.7204
12772TIP3    H259808   1.092   3.279   0.472 -0.1824  0.6442 -0.9524
12773TIP3   OH259809   3.528   1.791  16.293  0.5761 -0.3535  0.5429
12773TIP3    H159810   3.597   1.809  16.356  1.9600 -2.1984 -0.4008
12773TIP3    H259811   3.574   1.774  16.211 -1.0781 -0.2840 -0.4266
12774TIP3   OH259812   3.061   1.192   1.342 -0.1840  0.5409 -0.1944
12774TIP3    H159813   3.039   1.285   1.337 -1.3038  0.3789  1.2036
12774TIP3    H259814   3.089   1.179   1.433  0.1406 -0.4465 -0.4286
12775TIP3   OH259815   3.711   5.892   3.705  0.1843  0.8765  0.5155
12775TIP3    H159816   3.746   5.899   3.793 -0.0544  1.9837  0.5319
12775TIP3    H259817   3.761   5.955   3.654 -1.6271  2.3332  0.5060
12776TIP3   OH259818   1.328   4.174  11.156 -0.0474 -0.1182 -0.0479
12776TIP3    H159819   1.298   4.256  11.117 -0.9952  0.4535  1.8011
12776TIP3    H259820   1.404   4.199  11.209 -0.1767 -0.4660  0.3086
12777TIP3   OH259821   5.417   2.258   1.664 -0.5435 -0.4903 -0.2863
12777TIP3    H159822   5.417   2.331   1.726 -2.0865 -0.6667 -0.0574
12777TIP3    H259823   5.384   2.184   1.715 -0.3984 -0.9942 -0.9198
12778TIP3   OH259824   3.940   4.024  13.888  0.2688 -0.1892  0.4777
12778TIP3    H159825   3.924   4.018  13.983 -1.4683 -0.6216  0.1809
12778TIP3    H259826   4.017   4.080  13.880 -0.4059  1.0205  2.1093
12779TIP3   OH259827   4.815   5.462  15.997  1.0008  0.8106  0.1393
12779TIP3    H159828   4.778   5.476  15.910  1.9342  1.0856 -0.2183
12779TIP3    H259829   4.789   5.540  16.046  1.9906  1.5030 -0.4192
12780TIP3   OH259830   1.030   0.063   0.685 -0.0802 -0.1773 -0.1376
12780TIP3    H159831   1.002   0.078   0.595  0.5173  0.4568 -0.2210
12780TIP3    H259832   0.971  -0.006   0.717 -0.5685 -0.1098 -0.8716
12781TIP3   OH259833   0.685   5.398   0.218  0.3892 -0.2973 -0.3423
12781TIP3    H159834   0.625   5.439   0.281  1.0120  1.8771 -1.1014
12781TIP3    H259835   0.627   5.360   0.152 -0.2645 -2.4370  1.4056
12782TIP3   OH259836   5.786   0.655  14.109  0.8781 -0.4784  0.0844
12782TIP3    H159837   5.800   0.584  14.171 -1.5381 -0.5181  0.6234
12782TIP3    H259838   5.698   0.641  14.075  0.7903  1.6079 -0.6365
12783TIP3   OH259839   5.770   4.443  10.364 -0.3644 -0.0507  0.6940
12783TIP3    H159840   5.751   4.518  10.307  1.2995  0.7160  1.1176
12783TIP3    H259841   5.746   4.473  10.452 -0.6885 -0.4035  0.7302
12784TIP3   OH259842   6.091   5.011  10.673 -0.0050  0.1493 -0.0187
12784TIP3    H159843   6.126   5.013  10.584  2.0988  0.8898  0.8008
12784TIP3    H259844   6.027   5.083  10.676 -0.9834 -0.6407 -1.2588
12785TIP3   OH259845   1.973   4.559   0.111 -0.4054  0.0128  0.4334
12785TIP3    H159846   1.888   4.568   0.070  0.1049 -0.4639 -0.7514
12785TIP3    H259847   1.954   4.548   0.204 -1.4922  2.6503  0.5552
12786TIP3   OH259848   2.942   4.754  13.768 -0.3877  0.1478 -0.2378
12786TIP3    H159849   2.931   4.828  13.827  0.3130  0.5341 -0.5975
12786TIP3    H259850   2.885   4.686  13.805  1.1743 -0.1358  1.7285
12787TIP3   OH259851   2.554   0.787   2.713  1.3501  0.5762 -0.2784
12787TIP3    H159852   2.577   0.705   2.755  0.4828 -0.1153 -1.1441
12787TIP3    H259853   2.484   0.823   2.767 -0.1090 -0.5545 -1.3965
12788TIP3   OH259854   0.992   4.199  12.830  0.1402  0.2403  0.0492
12788TIP3    H159855   0.964   4.285  12.798 -1.9173 -0.0194  1.0979
12788TIP3    H259856   0.917   4.142  12.815  0.9013 -1.0022  0.8744
12789TIP3   OH259857   5.445   2.600  17.015  0.5135  0.2314 -0.2024
12789TIP3    H159858   5.443   2.581  16.921  2.5873  1.8217 -0.5963
12789TIP3    H259859   5.437   2.695  17.020 -0.9056  0.0476  1.3103
12790TIP3   OH259860   3.809   0.318  15.382  0.1611  0.0590  0.2922
12790TIP3    H159861   3.903   0.305  15.389  0.2287  0.0619 -0.5078
12790TIP3    H259862   3.784   0.363  15.462  1.3293  2.7918 -0.8121
12791TIP3   OH259863   2.123   0.672   0.462 -0.2669 -0.5720 -0.1525
12791TIP3    H159864   2.117   0.631   0.375 -1.2456  0.5886 -0.6622
12791TIP3    H259865   2.061   0.623   0.516 -0.5034 -0.5709 -0.4194
12792TIP3   OH259866   4.517   4.047  13.406 -0.3074 -0.3340  0.5591
12792TIP3    H159867   4.451   4.117  13.407 -0.3207 -0.3537  1.2160
12792TIP3    H259868   4.471   3.972  13.368 -0.7111 -0.3907  1.1586
12793TIP3   OH259869   0.796   5.253   1.195 -0.2877  0.7487 -0.0577
12793TIP3    H159870   0.839   5.237   1.279  0.4416  1.8231 -0.2159
12793TIP3    H259871   0.725   5.314   1.216 -0.3529  0.7034 -0.1485
12794TIP3   OH259872   1.797   4.468   5.242  0.4281 -0.1867  0.4620
12794TIP3    H159873   1.825   4.382   5.275 -2.1420 -1.7940 -1.3022
12794TIP3    H259874   1.805   4.460   5.147  0.0192  1.4715  0.2785
12795TIP3   OH259875   1.886   1.074  14.282 -0.2952  0.1739  0.7461
12795TIP3    H159876   1.921   1.015  14.216 -0.2294  0.6953  0.3106
12795TIP3    H259877   1.876   1.158  14.237 -1.1387  0.2922  1.1400
12796TIP3   OH259878   4.756   5.177  13.770  0.1620 -0.6498 -0.5790
12796TIP3    H159879   4.824   5.237  13.801  1.4742 -1.9478 -0.8515
12796TIP3    H259880   4.714   5.145  13.849 -0.0121  0.0158 -0.3989
12797TIP3   OH259881   6.671   5.383  13.636  0.4146 -0.1619  0.2390
12797TIP3    H159882   6.728   5.457  13.613  1.5008 -0.9911  0.2045
12797TIP3    H259883   6.584   5.422  13.646  0.7334  0.9188 -1.0131
12798TIP3   OH259884   1.882   6.006   2.764 -0.4031 -0.8293 -0.0022
12798TIP3    H159885   1.909   5.965   2.682  0.2592 -0.3962 -0.0049
12798TIP3    H259886   1.921   5.951   2.832 -0.1792 -0.6627  0.0056
12799TIP3   OH259887   3.259   6.158  10.877 -0.4197  0.2204 -0.4558
12799TIP3    H159888   3.340   6.171  10.828  0.0513  0.3588  0.3513
12799TIP3    H259889   3.236   6.066  10.863  1.0529 -0.4020  1.0784
12800TIP3   OH259890   5.734   5.968  14.962 -0.2907  0.7373 -0.2858
12800TIP3    H159891   5.819   5.929  14.943 -0.6644 -0.0476 -0.3644
12800TIP3    H259892   5.675   5.931  14.896 -0.7020  1.2345 -0.1994
12801TIP3   OH259893   2.784   4.355   0.465 -0.4648  0.2986  0.0297
12801TIP3    H159894   2.819   4.436   0.502 -1.2769  0.7041 -0.0846
12801TIP3    H259895   2.740   4.382   0.385 -2.6597  0.0782  1.1270
12802TIP3   OH259896   4.406   0.990   1.517 -0.4116 -0.4892  0.6891
12802TIP3    H159897   4.349   0.914   1.501 -0.4772 -0.4208  0.5983
12802TIP3    H259898   4.484   0.972   1.465 -1.5835  0.8439 -1.5994
12803TIP3   OH259899   5.808   1.960  15.783 -0.0210  0.2859  0.7762
12803TIP3    H159900   5.874   1.948  15.850 -1.3516 -0.3055  2.0044
12803TIP3    H259901   5.725   1.947  15.828 -0.9591  0.3546 -0.8802
12804TIP3   OH259902   5.599   2.905   4.359 -0.0467 -0.4136 -0.1067
12804TIP3    H159903   5.597   2.993   4.396 -0.2556 -0.2907 -0.4089
12804TIP3    H259904   5.508   2.877   4.358  0.1841 -1.2963  1.5589
12805TIP3   OH259905   1.838   2.343   6.344 -0.3642 -0.5675  0.1054
12805TIP3    H159906   1.812   2.379   6.428  0.0716  0.3803 -0.1496
12805TIP3    H259907   1.757   2.339   6.293 -0.5626 -0.7810  0.4372
12806TIP3   OH259908   5.540   2.100   6.698  0.3416 -0.1219 -0.5841
12806TIP3    H159909   5.554   2.006   6.681  1.9322 -0.0662  0.3797
12806TIP3    H259910   5.564   2.112   6.790 -2.0900  0.8101 -0.0305
12807TIP3   OH259911   3.786   6.291   3.924 -0.5156  0.7864  0.2502
12807TIP3    H159912   3.763   6.331   4.008 -0.6160 -0.4139  0.7954
12807TIP3    H259913   3.870   6.330   3.900  0.1857  0.1070  1.5784
12808TIP3   OH259914   6.686   4.119  12.773  0.4912 -0.5891  0.5709
12808TIP3    H159915   6.597   4.122  12.807 -0.0132  1.1698 -0.8035
12808TIP3    H259916   6.741   4.149  12.846 -0.1812 -0.4172  1.0096
12809TIP3   OH259917   0.477   5.437   3.005 -0.0682 -0.0654  0.5750
12809TIP3    H159918   0.463   5.343   3.020  1.1307 -0.3562 -0.0659
12809TIP3    H259919   0.444   5.452   2.916 -2.3927  0.6120  1.4995
12810TIP3   OH259920   6.810   4.068  16.629 -0.2845 -0.7449  0.1991
12810TIP3    H159921   6.722   4.105  16.632 -0.4427 -0.9820 -1.0796
12810TIP3    H259922   6.854   4.116  16.558  0.4162 -1.0614  0.4116
12811TIP3   OH259923   1.645   3.618   2.905 -0.3986 -0.1296 -0.0112
12811TIP3    H159924   1.665   3.549   2.841  2.4237  0.6624 -0.0452
12811TIP3    H259925   1.719   3.617   2.965 -1.0124  1.9233  0.8215
12812TIP3   OH259926   1.008   5.342   0.665 -0.0106  0.0046  0.6918
12812TIP3    H159927   0.965   5.414   0.621  0.7695  0.8106  1.2281
12812TIP3    H259928   0.978   5.263   0.619 -0.1607  0.7348 -0.4586
12813TIP3   OH259929   6.007   1.425  11.398  0.3980  0.4862 -0.7284
12813TIP3    H159930   5.913   1.444  11.398 -0.2678 -2.5443  0.7903
12813TIP3    H259931   6.028   1.411  11.305 -1.2427 -1.3982 -0.8544
12814TIP3   OH259932   1.393   3.912   6.764  0.2674  0.0565 -0.3013
12814TIP3    H159933   1.360   3.991   6.721 -0.5462  0.5332  1.1774
12814TIP3    H259934   1.440   3.865   6.695 -3.1495 -0.4424 -2.4029
12815TIP3   OH259935   3.664   1.383  16.915 -0.1924  0.6697 -0.1604
12815TIP3    H159936   3.572   1.376  16.888  0.1091  0.8807 -1.2467
12815TIP3    H259937   3.714   1.368  16.835  0.6581  3.9820 -0.3199
12816TIP3   OH259938   6.300   4.667  13.024 -0.0255  0.1114 -0.1918
12816TIP3    H159939   6.295   4.757  12.993  0.0286  0.2689  0.2627
12816TIP3    H259940   6.212   4.648  13.056  0.2191  0.3219  0.6073
12817TIP3   OH259941   4.157   0.235   3.389  0.2146  0.2477 -0.4255
12817TIP3    H159942   4.190   0.145   3.378 -2.1610 -0.5890 -0.9457
12817TIP3    H259943   4.163   0.251   3.483  0.0230 -0.7221 -0.2410
12818TIP3   OH259944   0.506   1.405  12.889 -0.2869 -0.0886 -0.2921
12818TIP3    H159945   0.438   1.378  12.951  0.1121 -2.4692 -0.8479
12818TIP3    H259946   0.586   1.409  12.941 -0.4338  0.4831 -0.1107
12819TIP3   OH259947   3.646   6.333   6.080 -0.0931 -0.1115  0.6571
12819TIP3    H159948   3.730   6.299   6.109  1.3605  2.0186 -1.0006
12819TIP3    H259949   3.640   6.420   6.119 -0.6393  0.5367 -0.8469
12820TIP3   OH259950   2.437   0.778  11.940  0.0951  0.2156 -0.2096
12820TIP3    H159951   2.456   0.799  12.032  0.5569 -0.8120 -0.0624
12820TIP3    H259952   2.472   0.690  11.928  0.2668  0.4442 -1.4508
12821TIP3   OH259953   3.073   4.066   1.214  0.1848 -0.1166 -0.1873
12821TIP3    H159954   3.101   3.993   1.269  0.4121 -0.3458 -0.6067
12821TIP3    H259955   3.001   4.031   1.162  0.4894 -0.1353 -0.6045
12822TIP3   OH259956   0.076   1.147   3.749  0.0335  0.7934 -0.4502
12822TIP3    H159957   0.043   1.137   3.838 -2.0246 -0.0370 -1.2790
12822TIP3    H259958  -0.003   1.150   3.695  1.2417  1.9792 -2.1732
12823TIP3   OH259959   4.522   0.978  12.467  0.3167  0.5240 -0.6479
12823TIP3    H159960   4.484   1.060  12.501 -0.2615  0.0150 -0.0342
12823TIP3    H259961   4.446   0.927  12.439  0.6829  0.2353 -1.1187
12824TIP3   OH259962   6.224   6.235   2.848 -0.3012 -0.1357 -0.1974
12824TIP3    H159963   6.227   6.297   2.920 -0.3612 -0.3699  0.0081
12824TIP3    H259964   6.144   6.258   2.800  0.5901  1.0513 -1.1284
12825TIP3   OH259965   3.853   0.175   0.473 -0.0796  0.1662  0.3177
12825TIP3    H159966   3.902   0.093   0.480 -0.3665 -0.0774 -0.4551
12825TIP3    H259967   3.915   0.243   0.498  0.0456 -0.3148  1.3788
12826TIP3   OH259968   6.218   4.980  11.444 -0.6612 -0.2086  0.1195
12826TIP3    H159969   6.255   4.970  11.357 -1.3162  0.2667 -0.2151
12826TIP3    H259970   6.229   5.073  11.465 -0.8455 -0.2474  0.3932
12827TIP3   OH259971   6.791   1.795   0.676  0.1247 -0.0558 -0.1258
12827TIP3    H159972   6.725   1.726   0.683  0.5962 -0.5733 -0.7645
12827TIP3    H259973   6.812   1.800   0.583  1.2566 -0.1462  0.1147
12828TIP3   OH259974   3.735   5.162   0.872 -1.1079  0.0052  0.0541
12828TIP3    H159975   3.734   5.072   0.839  0.8880  0.8131 -2.3346
12828TIP3    H259976   3.683   5.211   0.808  0.2915  1.0524 -0.3091
12829TIP3   OH259977   2.332   1.235  16.899 -0.2014  0.2297 -0.4183
12829TIP3    H159978   2.263   1.271  16.954  1.0007  0.0403  1.2468
12829TIP3    H259979   2.413   1.270  16.935  0.7537 -1.5295 -0.7912
12830TIP3   OH259980   6.470   3.446   3.876 -0.1696 -0.0150  0.2622
12830TIP3    H159981   6.514   3.417   3.955 -1.1023  0.0163  0.8039
12830TIP3    H259982   6.467   3.368   3.820 -0.2702 -0.2607  0.6099
12831TIP3   OH259983   0.210   0.834   4.174  0.1777  0.2136 -0.1041
12831TIP3    H159984   0.141   0.833   4.108  0.2768 -0.7276 -0.1974
12831TIP3    H259985   0.291   0.832   4.124  0.2555 -0.1969  0.0411
12832TIP3   OH259986   0.539   1.982   0.028 -0.0940  0.4161  0.2011
12832TIP3    H159987   0.508   2.012   0.113  0.4999 -2.0873  1.3495
12832TIP3    H259988   0.524   1.887   0.029  2.4921 -0.0621 -1.3663
12833TIP3   OH259989   4.088   0.366  13.963 -0.2594  0.1640 -0.1719
12833TIP3    H159990   4.097   0.275  13.937  2.1553  0.4744 -0.5949
12833TIP3    H259991   4.009   0.369  14.017  0.0705 -2.3166  0.4897
12834TIP3   OH259992   1.085   2.256  12.236 -0.0670  0.1251  0.4675
12834TIP3    H159993   1.157   2.217  12.188 -2.3515 -3.2575 -0.3461
12834TIP3    H259994   1.068   2.339  12.191  0.2316 -1.2738 -2.2983
12835TIP3   OH259995   5.445   3.637   4.817  0.3057  0.0570  0.3722
12835TIP3    H159996   5.536   3.632   4.847  0.3858 -2.1484 -0.1619
12835TIP3    H259997   5.451   3.644   4.722 -0.0816  1.4305  0.4282
12836TIP3   OH259998   1.095   1.887   0.662  0.3322 -0.0878 -0.4874
12836TIP3    H159999   1.058   1.974   0.677  1.2814  0.3960 -0.8921
12836TIP3    H260000   1.021   1.834   0.631 -0.6792  0.0506  1.5776
12837TIP3   OH260001   0.499   6.035  16.821  0.1344  0.2670 -0.2954
12837TIP3    H160002   0.518   6.115  16.773 -1.1352  0.0783 -1.1237
12837TIP3    H260003   0.583   6.008  16.858  0.4605  2.3218  0.5300
12838TIP3   OH260004   1.085   3.601  14.756  1.2525  0.3202 -0.1712
12838TIP3    H160005   1.129   3.598  14.841  0.6118 -1.8403  0.1218
12838TIP3    H260006   1.152   3.572  14.694  1.1015 -0.1700 -0.1093
12839TIP3   OH260007   5.256   3.905   1.038 -0.6306  0.3597 -0.2468
12839TIP3    H160008   5.208   3.981   1.070  0.7202  1.0084  0.2930
12839TIP3    H260009   5.246   3.839   1.107  1.1608  1.2947  0.9468
12840TIP3   OH260010   0.225   2.047   2.805  0.1468 -0.2237 -0.2271
12840TIP3    H160011   0.239   2.135   2.770 -0.1485 -0.4585 -0.9481
12840TIP3    H260012   0.302   1.997   2.777  0.7537  0.0348  0.9574
12841TIP3   OH260013   5.263   6.666  15.092  0.2317 -0.4547  0.4909
12841TIP3    H160014   5.236   6.618  15.170 -4.5168  1.2993  0.0685
12841TIP3    H260015   5.266   6.600  15.023 -2.8139 -0.7746  0.6332
12842TIP3   OH260016   5.226   2.933   4.011 -0.3098  0.3227  0.1708
12842TIP3    H160017   5.174   2.881   4.072  1.7525 -0.8790  0.9588
12842TIP3    H260018   5.229   2.880   3.931 -1.7977  1.2430 -0.5348
12843TIP3   OH260019   0.670   1.232   5.763  0.2341 -0.0524  0.2007
12843TIP3    H160020   0.681   1.312   5.711  0.7971 -0.4770 -0.3350
12843TIP3    H260021   0.717   1.165   5.715  0.3126 -0.5740  0.9867
12844TIP3   OH260022   3.062   0.598   5.272 -0.8964  0.1592 -0.0928
12844TIP3    H160023   3.013   0.670   5.233  0.8681  1.3213 -0.1962
12844TIP3    H260024   3.124   0.640   5.332 -0.6884 -1.3492  0.7893
12845TIP3   OH260025   1.986   5.121  15.221 -0.0866  0.7132  0.1281
12845TIP3    H160026   1.923   5.065  15.266 -0.3245  0.0767 -0.9826
12845TIP3    H260027   2.048   5.147  15.289 -0.3330 -0.3918  0.7849
12846TIP3   OH260028   5.861   6.115  16.371 -0.1844  0.0507 -0.6718
12846TIP3    H160029   5.779   6.164  16.375 -1.2259 -1.7164  0.1405
12846TIP3    H260030   5.858   6.056  16.447  1.1734 -1.0623 -1.4542
12847TIP3   OH260031   3.722   4.553  13.438 -0.3168  0.2896  0.5027
12847TIP3    H160032   3.666   4.497  13.386  0.3965  0.8399 -0.8826
12847TIP3    H260033   3.729   4.509  13.523 -2.2062 -0.1607  0.4424
12848TIP3   OH260034   3.197   2.220  16.550  0.2245  0.1221 -0.0984
12848TIP3    H160035   3.154   2.136  16.563 -0.1793  0.1989 -0.9247
12848TIP3    H260036   3.147   2.282  16.603 -0.6370  0.1981 -1.0034
12849TIP3   OH260037   4.978   6.280  14.697  0.0103  0.1316  0.0676
12849TIP3    H160038   5.046   6.214  14.710 -0.5572 -1.0619 -2.5756
12849TIP3    H260039   4.941   6.295  14.784  0.7889 -2.3624  0.8719
12850TIP3   OH260040   6.199   2.024   1.639 -0.2822 -0.3467 -0.1799
12850TIP3    H160041   6.155   1.943   1.613  0.2879 -0.8162  0.3119
12850TIP3    H260042   6.277   1.995   1.687  1.1581  0.4276 -1.9440
12851TIP3   OH260043   0.390   0.772   2.256  0.0220  0.2579 -0.4466
12851TIP3    H160044   0.344   0.855   2.272 -0.7541 -0.5649  1.7714
12851TIP3    H260045   0.483   0.796   2.255 -0.2325  1.2870 -0.7562
12852TIP3   OH260046   5.893   0.917   5.818 -0.0142 -0.2289  0.7848
12852TIP3    H160047   5.869   0.986   5.880 -1.3220  0.8412 -0.8411
12852TIP3    H260048   5.837   0.934   5.742  1.5720 -1.4847 -0.6894
12853TIP3   OH260049   5.097   2.147  12.429 -0.0213  0.4028  0.0157
12853TIP3    H160050   5.168   2.087  12.454  1.3203  1.7676 -0.4155
12853TIP3    H260051   5.038   2.148  12.504  1.4696  0.7685  1.2019
12854TIP3   OH260052   3.372   4.586   2.362 -0.2723 -0.3046  0.0051
12854TIP3    H160053   3.407   4.669   2.393 -0.5659 -0.2550  0.2078
12854TIP3    H260054   3.409   4.521   2.423 -1.2950 -0.1428  0.8080
12855TIP3   OH260055   6.501   0.322  15.481 -0.3119 -0.3250 -0.0494
12855TIP3    H160056   6.533   0.290  15.565  1.4887 -0.6367 -0.8366
12855TIP3    H260057   6.439   0.254  15.452  0.6133 -1.2420  0.0723
12856TIP3   OH260058   0.367   4.655   2.846  0.5360  0.4161 -0.1204
12856TIP3    H160059   0.463   4.648   2.853  0.4944  0.0770  0.1405
12856TIP3    H260060   0.339   4.679   2.934  0.3239 -0.1636 -0.0276
12857TIP3   OH260061   4.267   1.668   1.749  0.1698 -0.2223  0.2698
12857TIP3    H160062   4.320   1.670   1.670  0.9437 -1.0607  0.7618
12857TIP3    H260063   4.262   1.575   1.772 -1.1071 -0.1094  0.4922
12858TIP3   OH260064   6.349   2.926   4.349  0.2675  0.3189 -0.0289
12858TIP3    H160065   6.283   2.933   4.280 -0.5108 -0.4403  0.6229
12858TIP3    H260066   6.397   2.846   4.329  0.6594  0.6051 -0.2253
12859TIP3   OH260067   1.463   6.813   1.994 -0.1285  0.2243 -0.5797
12859TIP3    H160068   1.373   6.780   1.996 -0.0901  0.1402 -0.2384
12859TIP3    H260069   1.454   6.908   2.007 -0.1158  0.1150  0.2543
12860TIP3   OH260070   6.167   3.909   2.020 -0.1448  0.4086  0.2805
12860TIP3    H160071   6.095   3.881   1.963 -1.8189 -0.7099  2.8793
12860TIP3    H260072   6.211   3.978   1.970 -0.6499 -1.5136 -2.9732
12861TIP3   OH260073   3.136   6.180   5.494  0.5514  0.0024 -0.1491
12861TIP3    H160074   3.099   6.268   5.493  3.2622  1.2778  3.0644
12861TIP3    H260075   3.068   6.126   5.535 -0.7446  0.7419 -1.2702
12862TIP3   OH260076   2.817   2.388   1.964  0.0237 -0.4163  0.4471
12862TIP3    H160077   2.728   2.407   1.936 -0.3694 -0.8971  1.3379
12862TIP3    H260078   2.815   2.296   1.992  0.4299 -0.0200  1.8571
12863TIP3   OH260079   2.189   1.554  14.634 -0.1216 -0.9699 -0.0914
12863TIP3    H160080   2.197   1.463  14.660 -0.5038 -0.7314  0.8622
12863TIP3    H260081   2.233   1.603  14.703  0.7089 -0.4648 -0.9523
12864TIP3   OH260082   5.000   5.053  13.617 -0.2364  0.2807 -1.0130
12864TIP3    H160083   5.004   5.149  13.625 -1.8032  0.2386  0.6657
12864TIP3    H260084   5.085   5.023  13.648  0.0736  1.1182 -1.0430
12865TIP3   OH260085   6.726   2.898   1.546  0.1404 -0.0897 -0.5049
12865TIP3    H160086   6.663   2.963   1.515 -0.2915 -0.5574 -0.6221
12865TIP3    H260087   6.731   2.834   1.475 -0.3230 -0.8041  0.1029
12866TIP3   OH260088   5.168   4.113   1.843 -0.8629  0.3442 -0.2935
12866TIP3    H160089   5.201   4.179   1.782 -0.2708  0.3873  0.0689
12866TIP3    H260090   5.247   4.072   1.879 -1.2272 -0.5959 -0.5536
12867TIP3   OH260091   4.572   0.604   2.457  0.2011 -0.0641 -0.4978
12867TIP3    H160092   4.481   0.606   2.426 -0.1816  0.6850  0.6697
12867TIP3    H260093   4.565   0.599   2.552  1.3962  1.5571 -0.3195
12868TIP3   OH260094   6.304   0.870  14.612 -0.6058  0.4434  0.3239
12868TIP3    H160095   6.321   0.907  14.698  1.7943  0.5433 -0.1712
12868TIP3    H260096   6.366   0.914  14.554 -3.0149  1.2769 -1.7190
12869TIP3   OH260097   5.086   6.130   2.666 -0.1680 -0.3531 -0.1361
12869TIP3    H160098   5.032   6.058   2.698 -0.7590  0.5549  0.9480
12869TIP3    H260099   5.147   6.148   2.738 -0.6845  0.8864 -0.0000
12870TIP3   OH260100   4.737   5.821  14.725 -0.4596  0.4009 -0.0845
12870TIP3    H160101   4.683   5.787  14.653 -2.5991 -2.3880  2.6932
12870TIP3    H260102   4.728   5.755  14.794  4.4785  1.1503  1.4376
12871TIP3   OH260103   2.053   2.047  13.481  0.5867 -0.0890  0.3721
12871TIP3    H160104   2.085   1.966  13.521  0.7531  1.3521  3.2680
12871TIP3    H260105   1.958   2.043  13.490  0.4629 -0.7178 -1.0450
12872TIP3   OH260106   0.325   3.514   1.689 -0.1062  0.1107 -0.7382
12872TIP3    H160107   0.414   3.532   1.661  0.8297 -2.3034  0.5901
12872TIP3    H260108   0.302   3.587   1.747  2.0045 -0.6547  1.0912
12873TIP3   OH260109   5.725   1.625   6.351 -0.1883  0.4798  0.1491
12873TIP3    H160110   5.654   1.609   6.413  0.9703 -1.1536  1.1075
12873TIP3    H260111   5.681   1.650   6.270 -1.9925 -2.7430  0.0504
12874TIP3   OH260112   5.922   1.241   4.951 -0.5526 -0.7723 -0.0106
12874TIP3    H160113   5.972   1.288   5.018  0.2300 -2.3385  0.5316
12874TIP3    H260114   5.921   1.150   4.982 -1.5868 -1.2080 -1.3084
12875TIP3   OH260115   1.671   0.789   1.871 -0.8413 -0.1848  0.5967
12875TIP3    H160116   1.705   0.727   1.935  0.7200  0.6873  0.6416
12875TIP3    H260117   1.666   0.872   1.919 -3.0250 -0.2596  0.5758
12876TIP3   OH260118   5.216   3.152  12.744 -0.1158  0.0647  0.3345
12876TIP3    H160119   5.145   3.210  12.772 -1.4801 -0.9578 -0.9257
12876TIP3    H260120   5.231   3.096  12.820  0.8887  1.7105  1.3938
12877TIP3   OH260121   1.700   6.487  16.326  0.0688 -0.6296  0.4436
12877TIP3    H160122   1.644   6.559  16.354  2.4587  1.5766 -0.2473
12877TIP3    H260123   1.690   6.485  16.231  2.6705  1.1832  0.0634
12878TIP3   OH260124   3.687   0.351  15.645 -0.3350 -1.5400  0.2126
12878TIP3    H160125   3.592   0.354  15.646 -0.3594 -2.0530 -0.2287
12878TIP3    H260126   3.708   0.263  15.616  0.2639 -0.9215 -1.2806
12879TIP3   OH260127   0.713   0.614   0.925  0.8749 -0.2289  0.2462
12879TIP3    H160128   0.748   0.575   1.005  3.3059  0.5993 -0.3852
12879TIP3    H260129   0.742   0.556   0.855  1.4630  0.7613 -0.3415
12880TIP3   OH260130   5.478   5.345  11.356 -0.0560 -0.1329 -0.2583
12880TIP3    H160131   5.533   5.266  11.360 -0.2415 -0.2083  1.2696
12880TIP3    H260132   5.540   5.418  11.368 -0.3491 -0.2617  2.4977
12881TIP3   OH260133   2.024   4.818  12.280  0.2159 -0.1605  0.2778
12881TIP3    H160134   2.078   4.884  12.325  0.4942  0.5030 -1.0037
12881TIP3    H260135   2.071   4.736  12.292  0.8165  0.1877  0.3188
12882TIP3   OH260136   3.631   2.769   3.756  0.2564 -0.6753 -0.5793
12882TIP3    H160137   3.646   2.686   3.711  0.6320 -1.3831  0.8161
12882TIP3    H260138   3.715   2.815   3.750  0.3366 -0.8128 -0.5212
12883TIP3   OH260139   6.771   3.249   4.357 -0.0785  0.2540  0.5147
12883TIP3    H160140   6.768   3.207   4.271  1.5753  2.3940 -0.6435
12883TIP3    H260141   6.852   3.218   4.396  0.1345  0.7837  0.4942
12884TIP3   OH260142   2.997   4.529  16.732  0.0472  0.4563 -0.5729
12884TIP3    H160143   2.971   4.613  16.694  0.4209  0.3463 -1.0755
12884TIP3    H260144   2.975   4.537  16.825 -2.8391 -0.0497 -1.1523
12885TIP3   OH260145   2.155   1.159   3.255 -0.1381  0.0888 -0.3775
12885TIP3    H160146   2.062   1.139   3.244 -0.7136  1.4084  1.7829
12885TIP3    H260147   2.183   1.189   3.169 -1.8748  0.2937 -0.8988
12886TIP3   OH260148   5.133   4.381  12.981  0.6811 -0.1489 -0.0929
12886TIP3    H160149   5.200   4.428  13.031  0.3629 -1.3028  1.4573
12886TIP3    H260150   5.050   4.420  13.009  0.6772  1.8450 -2.6145
12887TIP3   OH260151   6.655   6.275   1.059 -0.2232  0.3262  0.3685
12887TIP3    H160152   6.724   6.209   1.054 -0.1009  0.4916 -0.0900
12887TIP3    H260153   6.669   6.331   0.983 -0.1779  1.0318  0.8914
12888TIP3   OH260154   6.527   0.568  16.986 -0.6130  0.3551 -0.4631
12888TIP3    H160155   6.579   0.565  16.905 -0.9031  1.3056 -0.6969
12888TIP3    H260156   6.439   0.543  16.958 -0.6378  0.3464 -0.3735
12889TIP3   OH260157   2.706   6.505   5.296 -0.0131 -0.0520  0.3238
12889TIP3    H160158   2.730   6.516   5.388 -1.1236  0.2151  0.5849
12889TIP3    H260159   2.611   6.491   5.297  0.3098 -2.5764 -0.5665
12890TIP3   OH260160   5.462   1.478  14.762 -0.2014  0.2018 -0.1442
12890TIP3    H160161   5.393   1.528  14.720  0.5602  2.1366  0.8269
12890TIP3    H260162   5.418   1.402  14.800 -1.1843 -0.5453 -2.6816
12891TIP3   OH260163   3.515   1.938  11.941 -0.3718 -0.2527 -0.0684
12891TIP3    H160164   3.458   1.937  12.018  0.2256  0.1779  0.3870
12891TIP3    H260165   3.455   1.952  11.867 -1.0048 -1.2049  0.2532
12892TIP3   OH260166   2.826   0.351  15.135 -0.1942  0.2318  0.0310
12892TIP3    H160167   2.788   0.435  15.160 -4.3692 -1.9832  1.6366
12892TIP3    H260168   2.855   0.312  15.217 -0.7037 -0.9752 -0.3408
12893TIP3   OH260169   2.277   1.898   0.625 -0.1862 -0.2738 -0.0641
12893TIP3    H160170   2.357   1.862   0.664  0.0703  0.4963  0.1199
12893TIP3    H260171   2.290   1.888   0.530 -0.1027 -0.6380 -0.0151
12894TIP3   OH260172   3.575   0.875   5.803  0.4516  0.1001 -0.3055
12894TIP3    H160173   3.572   0.956   5.751 -1.2845  0.5389  0.4625
12894TIP3    H260174   3.643   0.822   5.760 -0.3731  0.7904 -2.5318
12895TIP3   OH260175   1.553   4.872  12.567  0.1315 -0.0397 -0.0500
12895TIP3    H160176   1.572   4.799  12.508  0.2804 -0.6833  0.7756
12895TIP3    H260177   1.617   4.863  12.638 -0.6369  0.1781  0.6771
12896TIP3   OH260178   3.641   0.621  13.590  0.6736  0.1902 -0.0762
12896TIP3    H160179   3.652   0.654  13.501  0.4640  1.6620  0.4269
12896TIP3    H260180   3.648   0.526  13.582 -0.9407  0.2134 -1.8827
12897TIP3   OH260181   2.964   0.143   0.585 -0.0774 -0.2757 -0.3523
12897TIP3    H160182   3.051   0.110   0.560  0.2832  0.8497 -0.5936
12897TIP3    H260183   2.907   0.066   0.578  0.8205 -0.9342 -0.5832
12898TIP3   OH260184   3.563   6.407   2.204 -0.0664 -0.9416  0.7658
12898TIP3    H160185   3.549   6.325   2.253  1.0054 -0.7191  1.4529
12898TIP3    H260186   3.625   6.383   2.135  1.7529 -0.2876  2.1415
12899TIP3   OH260187   4.514   5.221  13.670 -0.1411 -0.0154  0.6319
12899TIP3    H160188   4.608   5.227  13.688 -0.0063  0.2894 -0.1749
12899TIP3    H260189   4.485   5.144  13.719  0.7806 -0.9017 -0.2050
12900TIP3   OH260190   2.349   2.013  13.839 -0.3629 -0.0218 -0.3746
12900TIP3    H160191   2.288   2.066  13.787 -0.9607  0.0105  0.3449
12900TIP3    H260192   2.387   2.075  13.901  0.1138 -0.1205 -0.5718
12901TIP3   OH260193   3.964   5.242  16.111  0.3635  0.2686 -0.3449
12901TIP3    H160194   3.976   5.197  16.195  2.1250  1.5449  0.1210
12901TIP3    H260195   4.001   5.182  16.047 -1.2767 -0.8563 -0.2814
12902TIP3   OH260196   0.821   6.211   5.362 -0.8686 -0.4848  0.2257
12902TIP3    H160197   0.799   6.298   5.397  0.9894  0.9237 -1.8933
12902TIP3    H260198   0.879   6.173   5.428  1.3721  1.5201 -0.4745
12903TIP3   OH260199   3.580   2.307  15.722 -0.0078  0.1471  0.1360
12903TIP3    H160200   3.670   2.276  15.721 -0.0186  0.1288 -0.6218
12903TIP3    H260201   3.581   2.384  15.779 -0.0295 -1.3671  2.2154
12904TIP3   OH260202   6.602   3.307   2.981  0.0478 -0.3009  0.2346
12904TIP3    H160203   6.589   3.268   3.067 -0.3771  0.2478  0.4226
12904TIP3    H260204   6.646   3.238   2.930 -1.7391 -1.4640  0.2057
12905TIP3   OH260205   1.869   3.092  12.391  0.0688  0.1587 -0.3290
12905TIP3    H160206   1.794   3.103  12.332  1.8103 -0.9040 -2.8073
12905TIP3    H260207   1.908   3.180  12.396  0.0573  0.2041 -0.9684
12906TIP3   OH260208   3.235   0.726  14.790 -0.3407  0.4048 -0.6043
12906TIP3    H160209   3.320   0.759  14.820 -0.1844 -0.4345 -0.1053
12906TIP3    H260210   3.248   0.704  14.698  0.1609 -0.3079 -0.3683
12907TIP3   OH260211   1.739   5.759  14.259  0.5414 -0.3466 -0.5782
12907TIP3    H160212   1.645   5.775  14.269  0.0174 -4.2685  2.2784
12907TIP3    H260213   1.745   5.699  14.185  0.7662 -0.3211 -0.5800
12908TIP3   OH260214   0.797   3.651   1.696 -0.0027 -0.1791 -0.6318
12908TIP3    H160215   0.827   3.691   1.615 -0.0476  0.7020 -0.2159
12908TIP3    H260216   0.793   3.723   1.759 -0.8932 -0.6756 -0.1056
12909TIP3   OH260217   4.234   1.119  15.679 -0.4247 -0.1732 -0.2591
12909TIP3    H160218   4.145   1.146  15.656 -1.0325  0.1627  2.3908
12909TIP3    H260219   4.239   1.028  15.648 -1.2280  0.1989 -1.5728
12910TIP3   OH260220   1.346   4.877  17.209  0.4839 -0.6826  0.2326
12910TIP3    H160221   1.343   4.844  17.298 -2.2139  0.4626  0.6186
12910TIP3    H260222   1.258   4.912  17.193  1.1201 -0.2268 -2.6188
12911TIP3   OH260223   4.357   3.386  16.143 -0.2670 -0.3151 -0.1794
12911TIP3    H160224   4.368   3.392  16.048 -0.9571 -1.2430 -0.3221
12911TIP3    H260225   4.445   3.378  16.177  0.0522  0.9078 -0.6697
12912TIP3   OH260226   3.967   2.399  16.491 -0.5417  0.6866  0.0552
12912TIP3    H160227   4.015   2.372  16.412 -0.1816  1.3866  0.0252
12912TIP3    H260228   3.887   2.347  16.489 -0.9101  1.2535 -1.2119
12913TIP3   OH260229   1.318   1.658   0.196 -0.4854 -0.6142 -0.3505
12913TIP3    H160230   1.369   1.728   0.237 -0.1105 -0.4607 -1.0571
12913TIP3    H260231   1.306   1.592   0.264  2.1247 -1.4338 -0.6386
12914TIP3   OH260232   4.410   6.371   3.505 -0.1435 -0.6851  1.3042
12914TIP3    H160233   4.407   6.404   3.596  0.8548  0.8875  0.7873
12914TIP3    H260234   4.499   6.390   3.475 -0.0578 -2.4041  0.4094
12915TIP3   OH260235   6.107   2.894  11.292 -0.2475  0.2245 -0.2977
12915TIP3    H160236   6.148   2.980  11.282 -0.2456  0.3392  0.7370
12915TIP3    H260237   6.025   2.900  11.242 -0.0338  0.6794 -0.5944
12916TIP3   OH260238   5.100   0.462  12.943 -0.0699  0.3380  0.5828
12916TIP3    H160239   5.124   0.510  12.864 -0.0197 -0.0875  0.3366
12916TIP3    H260240   5.050   0.525  12.996 -0.2074  0.5826  0.1582
12917TIP3   OH260241   2.752   4.559  13.591 -0.4625 -0.3983  0.0065
12917TIP3    H160242   2.740   4.569  13.686 -0.8703 -2.9495  0.2444
12917TIP3    H260243   2.837   4.600  13.573  1.5999 -3.5146  2.1510
12918TIP3   OH260244   6.818   0.818  16.581  0.1833  0.3780  0.3032
12918TIP3    H160245   6.875   0.825  16.504  0.4442  2.5258  0.6487
12918TIP3    H260246   6.792   0.726  16.584 -1.7329  0.7065 -3.7144
12919TIP3   OH260247   0.321   2.093   5.251  0.2191 -0.3958 -0.1294
12919TIP3    H160248   0.246   2.034   5.259  1.5205 -2.0132  0.3699
12919TIP3    H260249   0.290   2.163   5.193 -2.1566 -0.2136  1.3086
12920TIP3   OH260250   2.185   3.146  17.113 -0.2363  0.2121 -0.2583
12920TIP3    H160251   2.249   3.217  17.119 -0.4511  0.4483 -0.6879
12920TIP3    H260252   2.146   3.141  17.200 -0.2612  0.6629 -0.2406
12921TIP3   OH260253   0.959   2.304   1.982 -0.4129  0.8391 -0.1098
12921TIP3    H160254   0.925   2.305   2.072 -0.1295  1.4376 -0.0080
12921TIP3    H260255   0.910   2.234   1.939 -2.2134  2.0827 -0.1304
12922TIP3   OH260256   4.186   3.705   1.766  0.0553 -0.1236 -0.1275
12922TIP3    H160257   4.213   3.790   1.801  0.0307  0.3039 -1.1251
12922TIP3    H260258   4.145   3.660   1.840 -1.8158  1.5585 -0.0805
12923TIP3   OH260259   0.707   6.380   5.555  0.5939 -0.5129 -0.1228
12923TIP3    H160260   0.748   6.467   5.558 -0.9894  0.2303  0.5661
12923TIP3    H260261   0.707   6.351   5.647 -0.9967 -0.2154 -0.0136
12924TIP3   OH260262   3.196   2.800  16.364 -0.2645  0.4412  0.3095
12924TIP3    H160263   3.156   2.887  16.368 -0.7696  0.2041  0.5455
12924TIP3    H260264   3.275   2.812  16.313  0.6510  1.4171  1.9053
12925TIP3   OH260265   0.942   1.930   6.089 -0.3445  0.3612 -0.0942
12925TIP3    H160266   1.019   1.961   6.042 -0.2508 -1.4453 -1.1847
12925TIP3    H260267   0.879   2.003   6.083  0.6981  1.2344 -0.5494
12926TIP3   OH260268   6.448   3.261   4.252 -0.4012  0.7915 -0.7241
12926TIP3    H160269   6.507   3.316   4.201  0.9167  0.0786 -0.0077
12926TIP3    H260270   6.502   3.228   4.324 -1.6876  0.1539 -0.0230
12927TIP3   OH260271   2.484   6.755   5.304  0.2325  0.0080  0.0749
12927TIP3    H160272   2.409   6.815   5.304  0.6710  0.5607 -0.7731
12927TIP3    H260273   2.537   6.784   5.378 -0.4923 -0.5177  0.8063
12928TIP3   OH260274   0.694   0.844  15.378  0.2080  0.6701  0.5298
12928TIP3    H160275   0.759   0.780  15.350  2.3476  1.8413  2.6490
12928TIP3    H260276   0.650   0.872  15.298  2.0415 -0.4409 -0.8735
12929TIP3   OH260277   5.996   4.788  11.178  0.0898  0.1065  0.1225
12929TIP3    H160278   6.009   4.879  11.150  0.1124  0.3613  0.9254
12929TIP3    H260279   6.045   4.736  11.115 -1.2386  0.5307 -1.2921
12930TIP3   OH260280   5.354   5.614  14.074  0.1130  0.1332 -0.3464
12930TIP3    H160281   5.427   5.643  14.019  0.3645  2.5647  1.2010
12930TIP3    H260282   5.396   5.579  14.153 -0.3242 -1.0046 -0.6124
12931TIP3   OH260283   0.821   6.129  15.839 -0.2737  0.0048 -0.0980
12931TIP3    H160284   0.777   6.076  15.904 -0.0339  0.3969  0.3886
12931TIP3    H260285   0.752   6.156  15.778 -0.3192 -1.2158 -0.5893
12932TIP3   OH260286   5.107   3.174   0.738  0.2112  0.3540 -0.2068
12932TIP3    H160287   5.095   3.094   0.687  1.3648 -0.6408  1.0426
12932TIP3    H260288   5.201   3.191   0.735 -0.1995  2.5453 -1.7389
12933TIP3   OH260289   3.323   1.496  11.095 -0.0563 -0.3186  0.4440
12933TIP3    H160290   3.293   1.516  11.006 -0.6124 -1.4014  0.3823
12933TIP3    H260291   3.417   1.482  11.086  0.4584  2.7516  0.5730
12934TIP3   OH260292   5.002   4.359   1.218  0.2684  0.0598  0.3341
12934TIP3    H160293   4.996   4.451   1.191  0.4632  0.0941  0.4042
12934TIP3    H260294   5.003   4.363   1.314 -2.4110 -0.1842  0.3930
12935TIP3   OH260295   4.655   5.433   0.843  0.2067 -0.0663  0.3406
12935TIP3    H160296   4.575   5.388   0.869  0.3670  0.8196  2.5187
12935TIP3    H260297   4.684   5.388   0.764 -1.7800 -1.1681  0.2105
12936TIP3   OH260298   4.993   3.365   4.806 -0.5590  0.1574 -0.1764
12936TIP3    H160299   4.907   3.356   4.849 -0.3747 -0.7980  0.0184
12936TIP3    H260300   5.034   3.438   4.851 -1.5990  1.1482 -0.8232
12937TIP3   OH260301   3.451   3.497   1.476 -0.4398 -0.2658 -0.3148
12937TIP3    H160302   3.510   3.432   1.516 -0.0055  0.2797 -0.0649
12937TIP3    H260303   3.507   3.572   1.458 -1.4490  1.0001  1.6873
12938TIP3   OH260304   2.510   3.935   2.877 -0.5467 -0.6787  0.7343
12938TIP3    H160305   2.429   3.896   2.843  0.5065 -2.0389 -0.2763
12938TIP3    H260306   2.492   4.029   2.879 -1.7256 -0.8513 -0.6496
12939TIP3   OH260307   6.083   2.793  14.383  0.0685  0.0891  0.0837
12939TIP3    H160308   6.146   2.740  14.335  0.7627  0.9447  0.0491
12939TIP3    H260309   6.133   2.869  14.414 -1.3309  1.7455 -1.5756
12940TIP3   OH260310   6.054   3.322   0.869  0.0680 -0.8288  0.1413
12940TIP3    H160311   6.139   3.328   0.826 -1.1672 -0.0020 -2.2964
12940TIP3    H260312   6.073   3.334   0.962  2.3407  1.9372 -0.6070
12941TIP3   OH260313   6.702   6.176   4.107  0.3668  0.7328  0.2647
12941TIP3    H160314   6.708   6.242   4.176 -1.9044  1.7383 -0.4549
12941TIP3    H260315   6.670   6.224   4.030 -4.0429 -1.6461  0.4673
12942TIP3   OH260316   3.675   2.804   3.454  0.4386 -0.3896 -0.2231
12942TIP3    H160317   3.760   2.784   3.492  0.7408 -2.0841 -1.7389
12942TIP3    H260318   3.640   2.720   3.426 -1.7216  0.3003  0.3224
12943TIP3   OH260319   4.392   5.088  16.136 -0.0938  0.2418  0.1701
12943TIP3    H160320   4.431   5.159  16.085 -0.9475  0.5415 -0.0788
12943TIP3    H260321   4.388   5.014  16.076 -0.2193  0.3120  0.0923
12944TIP3   OH260322   0.251   6.520  14.835  0.0948  0.1160  0.1487
12944TIP3    H160323   0.166   6.536  14.795  0.0944 -0.6321 -0.1681
12944TIP3    H260324   0.238   6.440  14.887 -0.1882  1.6312  2.5067
12945TIP3   OH260325   2.925   6.796  13.254  0.5033 -0.1466  0.8440
12945TIP3    H160326   2.882   6.854  13.317 -0.4148  1.1494 -0.9297
12945TIP3    H260327   2.892   6.709  13.276 -1.8019  0.6169  0.5638
12946TIP3   OH260328   5.672   3.440   5.165 -0.2863 -0.3573 -0.5154
12946TIP3    H160329   5.750   3.458   5.218 -0.4202 -0.2617 -0.3488
12946TIP3    H260330   5.606   3.412   5.229 -0.6839  0.5206 -0.5421
12947TIP3   OH260331   5.978   0.210   2.871 -0.1291  0.3606 -0.3592
12947TIP3    H160332   5.925   0.183   2.946  1.2805 -0.3675  0.3978
12947TIP3    H260333   5.998   0.128   2.826  1.1125  0.5189 -0.1114
12948TIP3   OH260334   3.655   2.713   3.070 -0.3745  0.4914 -0.3524
12948TIP3    H160335   3.635   2.651   3.141  1.3074 -1.0987 -1.2330
12948TIP3    H260336   3.720   2.772   3.107 -0.7965  0.7535 -0.0219
12949TIP3   OH260337   1.761   2.246  15.389 -0.0560  0.2453  0.7048
12949TIP3    H160338   1.725   2.316  15.443 -1.1277  1.9758 -2.1810
12949TIP3    H260339   1.685   2.195  15.362  0.4874 -0.6306  0.7882
12950TIP3   OH260340   2.562   2.360  15.415  0.0754 -0.2107  0.3048
12950TIP3    H160341   2.638   2.372  15.473 -0.3980 -2.1381  1.3998
12950TIP3    H260342   2.534   2.270  15.432 -2.2121  0.3438 -0.3942
12951TIP3   OH260343   2.004   3.635   6.053 -0.1241  0.1455 -0.0511
12951TIP3    H160344   1.964   3.553   6.024 -0.1953  0.7719 -1.8173
12951TIP3    H260345   2.012   3.626   6.148 -4.7935  0.1228  0.4553
12952TIP3   OH260346   0.506   5.235  14.617 -0.3925  0.0823  0.7240
12952TIP3    H160347   0.563   5.273  14.550 -1.1896  0.6673  0.3693
12952TIP3    H260348   0.561   5.170  14.661  0.1468 -0.2735 -0.4592
12953TIP3   OH260349   5.274   2.949   3.555  0.9651 -0.4726  0.7054
12953TIP3    H160350   5.338   2.991   3.498  0.4625  0.4259  0.7882
12953TIP3    H260351   5.252   3.015   3.621 -0.1755 -0.6964  0.5746
12954TIP3   OH260352   2.641   3.049  16.824  0.3238 -0.3521  0.0095
12954TIP3    H160353   2.580   2.989  16.868  0.5508 -1.1637 -0.7627
12954TIP3    H260354   2.589   3.087  16.753  0.3338 -0.0377  0.1719
12955TIP3   OH260355   6.324   4.826  16.419 -0.1367  0.4329  0.3206
12955TIP3    H160356   6.410   4.860  16.445  0.1691 -1.0953  1.3970
12955TIP3    H260357   6.343   4.769  16.344 -0.0829 -0.5185  1.0415
12956TIP3   OH260358   0.972   2.538   0.096 -0.5227  0.3255 -0.0539
12956TIP3    H160359   0.927   2.513   0.016 -1.1053 -0.9505  0.6775
12956TIP3    H260360   0.969   2.634   0.096  0.2737  0.3781 -2.0005
12957TIP3   OH260361   0.505   6.392  16.473 -0.4356 -0.7708  0.3171
12957TIP3    H160362   0.495   6.414  16.566 -0.3714 -2.3680  0.7188
12957TIP3    H260363   0.421   6.353  16.449  0.1471 -1.9781  0.1861
12958TIP3   OH260364   0.025   3.668  15.437  0.2600  0.3587  0.4819
12958TIP3    H160365   0.052   3.591  15.388 -0.7535  0.2022  0.1685
12958TIP3    H260366  -0.067   3.682  15.413 -0.1522  0.4885  2.0396
12959TIP3   OH260367   3.151   6.133  16.315 -0.4823  0.8890  0.1977
12959TIP3    H160368   3.197   6.213  16.288 -2.0434  1.5637 -0.4726
12959TIP3    H260369   3.187   6.114  16.402  1.9179  0.7328 -0.7841
12960TIP3   OH260370   4.302   1.499  13.747  0.3607 -0.4549 -0.7396
12960TIP3    H160371   4.244   1.538  13.681 -1.1652  0.2567  0.9568
12960TIP3    H260372   4.334   1.574  13.797  1.1536 -1.0207 -0.3912
12961TIP3   OH260373   6.565   5.502  13.012 -0.6240  0.3194  0.6000
12961TIP3    H160374   6.571   5.467  12.923 -1.7707  2.1040 -0.2043
12961TIP3    H260375   6.545   5.425  13.067 -1.9608 -0.4814 -0.9661
12962TIP3   OH260376   0.464   2.327   2.424 -0.0656 -0.8465  0.9199
12962TIP3    H160377   0.451   2.278   2.505 -0.8842 -1.0264  0.6811
12962TIP3    H260378   0.543   2.380   2.441  0.3780 -1.6631  1.4477
12963TIP3   OH260379   2.418   4.716   0.337  0.2041 -0.4501 -0.3204
12963TIP3    H160380   2.426   4.630   0.379 -1.8451 -0.2238  0.6230
12963TIP3    H260381   2.329   4.745   0.359  1.2943  2.4884  0.4806
12964TIP3   OH260382   0.635   4.546   3.472  0.6194 -0.5052  0.5060
12964TIP3    H160383   0.597   4.611   3.412 -0.2986 -0.1196  1.5053
12964TIP3    H260384   0.685   4.598   3.535  1.2231 -0.8868  0.3497
12965TIP3   OH260385   0.356   2.651   6.213  0.3208  0.5663  0.5169
12965TIP3    H160386   0.265   2.677   6.230 -0.6605 -2.6232  0.5433
12965TIP3    H260387   0.395   2.643   6.300  1.0544  3.2554  0.4602
12966TIP3   OH260388   3.420   6.303  12.900  0.2228 -0.2709 -0.0168
12966TIP3    H160389   3.399   6.233  12.963 -1.5386  0.2280 -0.0317
12966TIP3    H260390   3.425   6.382  12.954 -0.5544  0.0335 -0.3856
12967TIP3   OH260391   1.477   0.133   4.978 -0.2587  0.1136  0.4633
12967TIP3    H160392   1.526   0.194   4.922  0.4662 -1.0452 -0.2030
12967TIP3    H260393   1.393   0.175   4.992  0.0268  1.0173 -0.4427
12968TIP3   OH260394   2.814   6.540   5.538  0.7933  0.4558  0.0074
12968TIP3    H160395   2.822   6.634   5.556  1.0026  0.1732  1.4141
12968TIP3    H260396   2.896   6.503   5.569 -0.5677 -0.6274  2.4351
12969TIP3   OH260397   0.050   1.136  11.877  0.2083 -0.5328  0.1128
12969TIP3    H160398   0.069   1.073  11.807 -1.5731 -1.7312  0.6800
12969TIP3    H260399  -0.005   1.203  11.834  1.9238  0.5415 -0.4368
12970TIP3   OH260400   2.307   0.414  16.495  0.3233 -0.2672  0.7443
12970TIP3    H160401   2.397   0.445  16.490 -0.5581  2.1042 -1.6693
12970TIP3    H260402   2.257   0.475  16.441 -2.7792 -1.4318  2.1446
12971TIP3   OH260403   0.543   5.519   3.803 -0.2431  0.0370 -0.2426
12971TIP3    H160404   0.619   5.570   3.775 -1.0880  0.4475 -1.8271
12971TIP3    H260405   0.530   5.545   3.894  1.1483  0.4033 -0.1259
12972TIP3   OH260406   2.727   6.681  16.244  0.1596  0.5264 -0.1297
12972TIP3    H160407   2.788   6.702  16.315  0.4579 -1.2038  0.1471
12972TIP3    H260408   2.642   6.708  16.278  0.2822 -0.3780  0.9526
12973TIP3   OH260409   1.783   3.508  16.246  0.3618  0.0451  0.5504
12973TIP3    H160410   1.874   3.513  16.217 -0.8492  1.9570 -3.3308
12973TIP3    H260411   1.767   3.593  16.288  0.2536 -0.1173  0.8362
12974TIP3   OH260412   4.497   1.700  15.386 -0.3873  0.3992  0.7818
12974TIP3    H160413   4.573   1.755  15.367  0.2598 -1.2700 -1.6343
12974TIP3    H260414   4.422   1.757  15.372  0.3193  1.0887 -0.2114
12975TIP3   OH260415   3.786   0.400   6.273 -0.0654  0.3006 -0.1003
12975TIP3    H160416   3.701   0.441   6.258 -0.0355  0.3422 -0.1519
12975TIP3    H260417   3.808   0.358   6.190  0.6699  1.5528 -0.5589
12976TIP3   OH260418   5.656   2.434   3.173 -0.3198 -0.0071  0.0960
12976TIP3    H160419   5.612   2.395   3.248 -0.6412 -0.9808 -0.5930
12976TIP3    H260420   5.747   2.444   3.201 -0.3529 -0.7550  0.4710
12977TIP3   OH260421   2.709   2.727  15.014 -0.1887  0.3417 -0.2424
12977TIP3    H160422   2.735   2.706  15.104 -0.6428  1.1520  0.0846
12977TIP3    H260423   2.790   2.718  14.964 -0.3954 -2.2666 -0.1544
12978TIP3   OH260424   0.358   3.350  11.793 -0.1926  0.0424  0.2794
12978TIP3    H160425   0.368   3.279  11.730 -0.6487  0.7808 -0.6447
12978TIP3    H260426   0.271   3.386  11.775 -0.1732  0.4980  1.0807
12979TIP3   OH260427   5.379   6.153   0.773  0.2216 -0.0773  0.0086
12979TIP3    H160428   5.309   6.141   0.836  0.9562 -2.3210  0.4318
12979TIP3    H260429   5.447   6.202   0.821 -0.7249  1.4754 -0.1961
12980TIP3   OH260430   1.905   3.998  17.133  1.0429 -0.3575  0.1100
12980TIP3    H160431   1.967   3.965  17.068  0.4902 -0.6283 -0.2965
12980TIP3    H260432   1.823   3.952  17.112  0.6532  0.1620  0.4863
12981TIP3   OH260433   1.876   3.856  15.032 -0.0007  0.0361  0.2905
12981TIP3    H160434   1.838   3.897  15.110  1.4084  1.3294  0.3047
12981TIP3    H260435   1.946   3.800  15.065  0.1707  0.0721 -0.0114
12982TIP3   OH260436   1.520   1.568  13.687  0.0080  0.8371 -0.7138
12982TIP3    H160437   1.610   1.601  13.691  0.6228 -0.3374 -3.4653
12982TIP3    H260438   1.503   1.558  13.594 -2.5316 -0.2058 -0.1659
12983TIP3   OH260439   2.901   5.900  15.281 -0.3288 -0.0221 -0.4974
12983TIP3    H160440   2.842   5.846  15.334 -0.2345  1.2900  0.9640
12983TIP3    H260441   2.988   5.865  15.301 -0.2606  0.7014  0.5155
12984TIP3   OH260442   3.574   0.917  15.941 -0.0744  0.1984  0.2700
12984TIP3    H160443   3.574   0.824  15.965  1.3642  0.2500  0.4593
12984TIP3    H260444   3.610   0.919  15.852 -1.8833  0.3991 -0.4902
12985TIP3   OH260445   2.769   0.578  15.262  0.0700 -0.5084 -0.2454
12985TIP3    H160446   2.827   0.613  15.329  0.6300  0.9110 -1.4179
12985TIP3    H260447   2.688   0.558  15.308  0.5220  0.2156  0.8922
12986TIP3   OH260448   0.624   3.923   1.245  0.6534  0.3933  0.3222
12986TIP3    H160449   0.568   3.850   1.220  1.5491 -0.5983  1.1356
12986TIP3    H260450   0.707   3.905   1.200  0.0943  2.2667 -1.5209
12987TIP3   OH260451   2.717   6.147   4.387  0.6238 -0.0538  0.5575
12987TIP3    H160452   2.808   6.134   4.415  1.1245  0.7331 -0.6650
12987TIP3    H260453   2.723   6.203   4.310 -0.9815  0.9775  1.1507
12988TIP3   OH260454   3.509   4.747   0.079 -0.2462  0.0666  0.4216
12988TIP3    H160455   3.511   4.805   0.002  0.1195  0.7613  0.9475
12988TIP3    H260456   3.451   4.675   0.053 -0.1476  0.3078 -0.4962
12989TIP3   OH260457   1.805   3.950   4.678  0.1448 -0.7069 -0.1896
12989TIP3    H160458   1.724   3.923   4.721  0.5676 -1.3207  0.2328
12989TIP3    H260459   1.829   3.876   4.622  1.3121 -1.2309  0.9763
12990TIP3   OH260460   6.031   0.611  15.847  0.3395 -0.8771 -0.4034
12990TIP3    H160461   5.943   0.624  15.812  0.9111  1.8398 -0.9578
12990TIP3    H260462   6.089   0.651  15.782  1.9370 -1.7507  0.4326
12991TIP3   OH260463   5.987   2.434  16.008  0.0783  0.4145 -0.0734
12991TIP3    H160464   5.998   2.360  16.068 -0.6160  0.5777  0.2576
12991TIP3    H260465   6.009   2.511  16.061  1.1279  0.4220 -0.5117
12992TIP3   OH260466   3.314   1.257   3.371 -0.3157  0.0249  0.2509
12992TIP3    H160467   3.299   1.349   3.390 -0.4919 -0.2478  1.4275
12992TIP3    H260468   3.399   1.255   3.329 -1.2921  0.9857 -1.8609
12993TIP3   OH260469   5.540   3.411  16.009 -0.1876  0.1712 -0.2498
12993TIP3    H160470   5.536   3.342  16.075  0.4244  3.4150  3.3730
12993TIP3    H260471   5.452   3.448  16.007  0.8518  2.9982  2.1686
12994TIP3   OH260472   5.604   1.953  11.635 -0.1856  0.0279  0.2174
12994TIP3    H160473   5.689   1.924  11.668 -0.8149  0.7739  2.5680
12994TIP3    H260474   5.607   2.049  11.641 -1.2606  0.0557  0.5180
12995TIP3   OH260475   4.218   6.211  11.797 -0.0017 -0.2255 -0.2398
12995TIP3    H160476   4.152   6.249  11.739 -0.9221 -0.2444  0.7755
12995TIP3    H260477   4.184   6.226  11.885  0.5710 -1.6751  0.2435
12996TIP3   OH260478   0.859   3.895  11.872 -0.0883 -0.0026  0.2114
12996TIP3    H160479   0.897   3.964  11.926 -1.4871  0.8344  0.1541
12996TIP3    H260480   0.889   3.916  11.783 -0.6182  0.6099  0.1752
12997TIP3   OH260481   5.567   5.619  13.584  0.8408 -0.2653 -0.7662
12997TIP3    H160482   5.649   5.632  13.633 -0.4963  0.7130  1.3290
12997TIP3    H260483   5.509   5.576  13.647 -0.1107 -1.3625 -2.3809
12998TIP3   OH260484   1.692   3.005   1.709  0.4355  0.6434  0.3409
12998TIP3    H160485   1.753   2.982   1.639 -0.6701  3.1160 -1.5017
12998TIP3    H260486   1.704   2.937   1.775  2.1809 -1.2163 -1.8394
12999TIP3   OH260487   1.578   4.986   5.731 -0.5089  0.1914  0.3992
12999TIP3    H160488   1.633   5.062   5.715  0.6659 -0.6728  0.2300
12999TIP3    H260489   1.519   4.982   5.656  0.5413 -0.0253 -0.4239
13000TIP3   OH260490   2.971   1.800   5.203  0.2317 -0.5883 -0.4720
13000TIP3    H160491   2.920   1.727   5.237  1.3971 -1.9085 -1.5201
13000TIP3    H260492   2.976   1.862   5.276 -1.4675 -1.1634  0.1521
13001TIP3   OH260493   1.758   4.157   2.779 -0.0277 -0.0719 -0.2064
13001TIP3    H160494   1.708   4.193   2.852 -0.2712 -0.5034 -0.1543
13001TIP3    H260495   1.734   4.064   2.778  0.9758 -0.3347 -0.0208
13002TIP3   OH260496   2.387   1.651  12.833  0.1217  0.0183  0.0055
13002TIP3    H160497   2.477   1.631  12.807  0.1204 -0.2370  0.1880
13002TIP3    H260498   2.379   1.746  12.823  0.8549  0.2310  1.3701
13003TIP3   OH260499   3.558   6.353  12.270  0.1817 -0.2812 -0.2517
13003TIP3    H160500   3.511   6.281  12.312  0.2067  0.3820  0.9638
13003TIP3    H260501   3.499   6.383  12.201 -1.0524  0.3025  1.0256
13004TIP3   OH260502   1.063   0.716   6.121 -0.5711 -0.5022 -0.3014
13004TIP3    H160503   1.093   0.806   6.109  0.1115 -0.7748 -0.6335
13004TIP3    H260504   1.133   0.673   6.171 -0.9442 -0.8170 -0.0428
13005TIP3   OH260505   1.070   4.798  15.680  0.1978  0.4299  0.1052
13005TIP3    H160506   1.039   4.777  15.592  0.8797 -0.6440  0.1088
13005TIP3    H260507   1.158   4.832  15.668 -0.4542  2.2226  0.2129
13006TIP3   OH260508   5.369   3.153  17.155 -0.1891  0.1928  0.3524
13006TIP3    H160509   5.308   3.097  17.204  1.3042 -0.9791  0.9414
13006TIP3    H260510   5.347   3.242  17.182 -2.1931 -0.1456 -0.1077
13007TIP3   OH260511   0.591   0.793   4.939 -0.0690 -0.3693 -0.3992
13007TIP3    H160512   0.666   0.777   4.996  1.0263 -1.5848 -2.1230
13007TIP3    H260513   0.571   0.886   4.952  0.0349 -0.6613  2.0645
13008TIP3   OH260514   3.485   3.576  15.614  0.1351  0.2522  0.6219
13008TIP3    H160515   3.424   3.543  15.548  1.1585  1.8075 -1.1560
13008TIP3    H260516   3.445   3.553  15.698 -1.1286 -1.8912 -0.5138
13009TIP3   OH260517   1.007   2.886  15.781 -0.3080  0.1254  0.1886
13009TIP3    H160518   1.058   2.855  15.856 -0.1335 -0.1237 -0.0323
13009TIP3    H260519   0.935   2.935  15.820 -2.3091 -3.0351  0.6986
13010TIP3   OH260520   4.837   5.998   4.205 -0.4259 -0.5321  0.6248
13010TIP3    H160521   4.758   5.945   4.211 -0.5075 -0.3609  1.0879
13010TIP3    H260522   4.814   6.069   4.144 -0.2415 -1.1512 -0.1721
13011TIP3   OH260523   4.941   5.836  12.677 -0.0134  0.9796  0.8461
13011TIP3    H160524   4.890   5.916  12.693  2.4811  3.0241 -1.0638
13011TIP3    H260525   4.930   5.820  12.583  0.7782 -0.0347  0.9258
13012TIP3   OH260526   3.468   3.231   3.363  0.1885  0.4467  0.6438
13012TIP3    H160527   3.389   3.205   3.409  0.8892  0.6837  1.9991
13012TIP3    H260528   3.525   3.154   3.366  0.3617  0.5641  0.4304
13013TIP3   OH260529   4.594   0.888   5.401 -0.0890  0.1680  0.3470
13013TIP3    H160530   4.687   0.905   5.386 -0.0325  0.2343  0.7615
13013TIP3    H260531   4.590   0.794   5.420 -0.4758 -0.4659 -2.5736
13014TIP3   OH260532   4.161   0.756  11.978 -0.7985  0.1164  0.5897
13014TIP3    H160533   4.105   0.755  12.055 -1.7022 -0.6703 -0.0611
13014TIP3    H260534   4.111   0.709  11.911  1.0373 -1.4442  0.2691
13015TIP3   OH260535   3.355   6.692  12.310 -0.5567 -0.2213 -0.0267
13015TIP3    H160536   3.341   6.636  12.387  0.4903  0.1547  0.4425
13015TIP3    H260537   3.365   6.780  12.346 -2.9134  0.4156 -0.8124
13016TIP3   OH260538   5.527   5.834   4.136  0.0372 -0.0643 -0.4345
13016TIP3    H160539   5.492   5.768   4.196 -0.3331  0.2517 -0.2983
13016TIP3    H260540   5.572   5.897   4.194 -0.0529  0.0747 -0.5141
13017TIP3   OH260541   6.027   4.309  11.454  0.2370 -0.0359  0.6007
13017TIP3    H160542   5.975   4.361  11.393  0.7653  0.6573  0.7385
13017TIP3    H260543   6.115   4.346  11.448  0.9368 -1.7887 -0.3102
13018TIP3   OH260544   0.831   1.945   5.555  0.1611  0.4507  0.0609
13018TIP3    H160545   0.876   1.863   5.535  0.3989  0.6773 -0.3325
13018TIP3    H260546   0.779   1.964   5.477 -0.8209  0.0588  0.6066
13019TIP3   OH260547   0.943   3.128  13.712  0.0550  0.0266 -0.0822
13019TIP3    H160548   0.851   3.107  13.729  0.6669 -2.1438  0.7773
13019TIP3    H260549   0.961   3.203  13.768 -1.4232  1.0581 -0.9531
13020TIP3   OH260550   6.735   2.491  15.288 -1.2519 -0.1840  0.0612
13020TIP3    H160551   6.774   2.571  15.323 -2.0144  0.8783 -1.4585
13020TIP3    H260552   6.796   2.461  15.221 -1.1847 -0.6185  0.3175
13021TIP3   OH260553   4.142   5.336   4.115  0.0586 -0.3513 -0.3322
13021TIP3    H160554   4.233   5.325   4.085  0.6975  0.9026  1.0950
13021TIP3    H260555   4.118   5.424   4.088 -0.2239 -0.1369  0.5986
13022TIP3   OH260556   3.552   0.562   1.992 -0.1473  0.4550  0.2889
13022TIP3    H160557   3.487   0.603   1.935 -1.2630 -0.1843  1.0847
13022TIP3    H260558   3.541   0.607   2.076  1.4571  1.3639  0.0320
13023TIP3   OH260559   4.263   0.214   1.678 -0.2679 -0.2157  0.2424
13023TIP3    H160560   4.348   0.247   1.707  0.0539 -0.8084 -0.0112
13023TIP3    H260561   4.250   0.134   1.730 -1.6220  0.9662  1.7727
13024TIP3   OH260562   4.196   5.295  11.862 -0.2003  0.2511  0.0739
13024TIP3    H160563   4.175   5.373  11.810  0.2489  0.2854 -0.0545
13024TIP3    H260564   4.122   5.237  11.849 -1.4135  1.4052  1.6384
13025TIP3   OH260565   5.301   3.588   0.961  0.2370  0.7822 -0.1577
13025TIP3    H160566   5.353   3.562   0.886  0.2402  0.7171 -0.1325
13025TIP3    H260567   5.275   3.678   0.942  0.4477  0.8525 -0.1219
13026TIP3   OH260568   5.737   3.534   2.755  0.4132 -0.0924  0.2748
13026TIP3    H160569   5.733   3.621   2.795 -0.8094 -0.3783  0.8057
13026TIP3    H260570   5.829   3.522   2.733  0.3743  1.9638 -1.2038
13027TIP3   OH260571   5.873   4.383  16.463 -0.1072 -0.5421 -0.3032
13027TIP3    H160572   5.861   4.310  16.403 -1.9465 -0.0296 -0.5885
13027TIP3    H260573   5.825   4.358  16.541 -0.9819  0.4698 -0.5080
13028TIP3   OH260574   4.002   4.514  16.647  0.2059  0.3516  0.0473
13028TIP3    H160575   4.094   4.504  16.619  0.4415 -1.6996  1.3952
13028TIP3    H260576   3.953   4.516  16.565  1.2796 -0.9230 -0.6677
13029TIP3   OH260577   0.558   2.613  15.830 -0.4390  0.0676 -0.2341
13029TIP3    H160578   0.653   2.604  15.828 -0.5562 -1.5105  0.1265
13029TIP3    H260579   0.534   2.628  15.738  0.0193 -1.4091 -0.6161
13030TIP3   OH260580   5.015   6.812  11.205  0.0003  0.4604 -0.0628
13030TIP3    H160581   5.066   6.842  11.279 -0.9077  0.0687  0.7396
13030TIP3    H260582   5.020   6.883  11.141  2.3342  0.0160 -0.4104
13031TIP3   OH260583   4.244   0.032  16.821  0.0512 -0.0463 -0.4219
13031TIP3    H160584   4.295  -0.009  16.891 -2.1194 -2.1919 -0.0241
13031TIP3    H260585   4.294   0.110  16.797  3.0834 -1.6153  0.5036
13032TIP3   OH260586   4.205   6.357  16.494  0.1177 -0.0453  0.0689
13032TIP3    H160587   4.228   6.425  16.558  0.6361 -0.5337  0.4086
13032TIP3    H260588   4.115   6.377  16.469  0.3081  0.8372  0.0782
13033TIP3   OH260589   3.321   5.035  12.815 -0.1284  0.7185 -0.9241
13033TIP3    H160590   3.416   5.025  12.813 -0.1285  0.6669 -0.7107
13033TIP3    H260591   3.304   5.094  12.888 -0.5084 -2.3226  1.5406
13034TIP3   OH260592   4.276   1.856  11.146  0.2136  0.0372  0.3439
13034TIP3    H160593   4.337   1.820  11.081  0.6321  0.2918  0.5907
13034TIP3    H260594   4.190   1.825  11.117  0.5829 -1.3868  0.6938
13035TIP3   OH260595   6.060   1.110   4.262 -0.1676 -0.1956  0.4228
13035TIP3    H160596   5.977   1.157   4.261 -1.9823 -3.3044  0.3792
13035TIP3    H260597   6.117   1.163   4.318 -2.7545  0.9811  2.0214
13036TIP3   OH260598   4.655   0.425   2.173 -0.5515  0.5246 -0.8689
13036TIP3    H160599   4.718   0.493   2.198  0.3765 -0.0254 -1.6742
13036TIP3    H260600   4.582   0.474   2.134  0.1469  1.0779 -1.5227
13037TIP3   OH260601   4.196   0.057   2.507 -1.0913  0.0634 -0.1848
13037TIP3    H160602   4.199  -0.037   2.487 -1.3079 -0.0012  0.0890
13037TIP3    H260603   4.210   0.062   2.601 -0.8131  0.3260 -0.2399
13038TIP3   OH260604   2.638   3.257   2.287 -0.1985 -0.1090 -0.3868
13038TIP3    H160605   2.727   3.267   2.255 -0.4587  0.3905 -0.9702
13038TIP3    H260606   2.611   3.345   2.314 -0.5836 -0.2175 -0.4026
13039TIP3   OH260607   0.267   2.350   0.755  0.4654  0.1858  0.0224
13039TIP3    H160608   0.259   2.270   0.807  1.8776 -0.3679 -0.5924
13039TIP3    H260609   0.350   2.341   0.709  1.4764  2.7410  1.1969
13040TIP3   OH260610   1.599   5.280  15.410  0.6786  0.3785 -0.2034
13040TIP3    H160611   1.616   5.203  15.355  3.5780  0.3125  0.7098
13040TIP3    H260612   1.542   5.248  15.479  0.3938 -0.5083 -0.8348
13041TIP3   OH260613   4.231   1.932  12.736 -0.8409 -0.1766 -0.0882
13041TIP3    H160614   4.208   2.023  12.716  1.5034  0.5121  0.1431
13041TIP3    H260615   4.210   1.923  12.829 -0.2868  0.3924  0.0956
13042TIP3   OH260616   3.747   4.211   0.563 -0.0647  0.4006  0.1423
13042TIP3    H160617   3.796   4.271   0.506 -3.3845  0.6510 -2.5562
13042TIP3    H260618   3.782   4.124   0.542 -0.0558  0.6750 -0.9626
13043TIP3   OH260619   3.889   3.928  11.448  0.6274  0.1522 -0.0061
13043TIP3    H160620   3.812   3.901  11.498  0.4394 -0.1870 -0.4709
13043TIP3    H260621   3.964   3.894  11.498  0.4260 -0.4901 -0.1352
13044TIP3   OH260622   2.311   1.495  14.382  0.1429 -0.5750 -0.7476
13044TIP3    H160623   2.387   1.469  14.433  2.0581  1.7808 -2.2886
13044TIP3    H260624   2.255   1.541  14.445  1.0818 -0.2897 -0.1034
13045TIP3   OH260625   0.189   2.710   5.810 -0.4673 -0.0037  0.0235
13045TIP3    H160626   0.118   2.678   5.754 -1.5403  0.5506  1.0707
13045TIP3    H260627   0.150   2.717   5.897  1.6197 -2.4124  1.2303
13046TIP3   OH260628   2.201   3.221  14.769  0.1555  0.1213  0.0725
13046TIP3    H160629   2.129   3.269  14.809 -0.3243 -0.0297 -0.5844
13046TIP3    H260630   2.158   3.155  14.714  0.7785  0.6612 -1.0906
13047TIP3   OH260631   4.169   0.135   2.763 -0.4293  0.1717  0.1709
13047TIP3    H160632   4.204   0.170   2.845  1.9277  3.0233 -1.9649
13047TIP3    H260633   4.103   0.199   2.736 -1.1557 -0.7324 -0.2080
13048TIP3   OH260634   1.624   0.680   1.391 -0.2253 -0.1545 -0.2594
13048TIP3    H160635   1.674   0.648   1.316  1.1549  0.8721  0.1954
13048TIP3    H260636   1.665   0.638   1.467 -4.3855 -4.6806 -0.3190
13049TIP3   OH260637   3.229   4.452   4.468  0.0328  0.2693 -0.7300
13049TIP3    H160638   3.224   4.433   4.374 -3.2217  1.1733 -0.7845
13049TIP3    H260639   3.170   4.526   4.481 -0.7997 -0.8373  2.2577
13050TIP3   OH260640   5.431   0.357   3.654 -0.4494 -0.2943  0.1694
13050TIP3    H160641   5.424   0.261   3.659 -1.5630 -0.1822  1.0533
13050TIP3    H260642   5.441   0.375   3.561 -1.2787 -1.2144 -0.1145
13051TIP3   OH260643   0.243   2.694   6.601  0.5414  1.0418 -0.0068
13051TIP3    H160644   0.210   2.771   6.555 -0.9511 -0.1935 -1.0489
13051TIP3    H260645   0.176   2.627   6.588  2.3495 -0.8144 -0.0961
13052TIP3   OH260646   5.736   4.965   1.387 -0.0820 -0.4160  0.2136
13052TIP3    H160647   5.705   4.993   1.301 -1.0762  1.6316  1.2059
13052TIP3    H260648   5.831   4.974   1.383 -0.1656  0.1535 -0.5099
13053TIP3   OH260649   4.222   4.231   3.999  0.1668 -0.2281 -0.3544
13053TIP3    H160650   4.232   4.276   4.083  0.1135  0.6595 -0.8298
13053TIP3    H260651   4.311   4.225   3.964  0.2471 -0.9970 -0.0335
13054TIP3   OH260652   4.403   0.752  11.398  0.0319 -0.0071  0.0404
13054TIP3    H160653   4.495   0.751  11.371  0.0576  2.2122  0.0010
13054TIP3    H260654   4.402   0.798  11.482 -1.0125 -0.3427  0.2305
13055TIP3   OH260655   4.422   5.975  14.250  0.4366 -0.5642  0.0241
13055TIP3    H160656   4.368   5.966  14.171  1.6228 -0.4777 -0.8157
13055TIP3    H260657   4.487   6.042  14.227  0.7129 -0.4398  1.1218
13056TIP3   OH260658   5.455   3.929   3.912 -0.1170 -0.1414  0.4249
13056TIP3    H160659   5.399   4.006   3.922  1.2726  1.3391 -2.4364
13056TIP3    H260660   5.457   3.889   3.999 -1.8386  2.3772  1.6969
13057TIP3   OH260661   6.627   6.167  11.800  0.1432  0.4217  0.1988
13057TIP3    H160662   6.559   6.127  11.854  0.4452  0.3397  0.5226
13057TIP3    H260663   6.707   6.157  11.852  0.3168  0.9446  0.0340
13058TIP3   OH260664   2.306   5.196  12.066  0.1459  0.0853  0.2372
13058TIP3    H160665   2.309   5.135  11.993 -1.8431 -1.7226  1.5967
13058TIP3    H260666   2.309   5.283  12.025 -0.2542 -0.9030 -1.9420
13059TIP3   OH260667   2.149   3.769  11.970  0.1888  0.0991 -0.5348
13059TIP3    H160668   2.093   3.792  12.044 -1.6565  1.2670 -2.2481
13059TIP3    H260669   2.114   3.686  11.938  1.4945 -0.8260  0.3560
13060TIP3   OH260670   1.568   6.256   4.059 -0.1277  0.5777 -0.3001
13060TIP3    H160671   1.506   6.231   4.128  0.8064  0.9451  0.7038
13060TIP3    H260672   1.548   6.199   3.986  0.0631 -1.1048  0.9290
13061TIP3   OH260673   4.751   5.632  15.201 -0.3230  0.2232  0.3150
13061TIP3    H160674   4.752   5.715  15.152  2.0299  1.2326  1.9894
13061TIP3    H260675   4.666   5.632  15.245 -1.2422  0.7028 -1.3885
13062TIP3   OH260676   5.992   5.716  17.206  0.1746 -0.1597  0.0617
13062TIP3    H160677   5.928   5.775  17.246  1.3522  0.1772  1.4926
13062TIP3    H260678   6.075   5.762  17.213  0.7276 -0.9505 -1.0377
13063TIP3   OH260679   5.647   4.396  16.634 -0.5415  0.2079  0.3435
13063TIP3    H160680   5.558   4.430  16.646 -0.3544  1.0210 -0.5235
13063TIP3    H260681   5.695   4.424  16.712 -0.2740  2.3198 -0.5700
13064TIP3   OH260682   3.343   3.463  12.663  0.4163 -0.6680 -0.3193
13064TIP3    H160683   3.349   3.528  12.733  1.2827  0.4781 -1.4449
13064TIP3    H260684   3.286   3.395  12.699 -1.6415  1.3588  0.3832
13065TIP3   OH260685   2.728   2.184  16.976 -0.3543  0.0313 -0.2501
13065TIP3    H160686   2.820   2.169  16.956 -0.4796 -0.5302 -0.4111
13065TIP3    H260687   2.723   2.277  16.999 -0.4386  1.0198 -4.0288
13066TIP3   OH260688   6.751   4.825   6.226  0.0261  0.1197  0.3330
13066TIP3    H160689   6.658   4.824   6.206 -0.4956  0.0873  2.5633
13066TIP3    H260690   6.773   4.917   6.233 -0.0374  0.1167  0.5933
13067TIP3   OH260691   2.751   1.387   1.100  0.8115  0.2016 -0.2789
13067TIP3    H160692   2.772   1.294   1.093  0.4224  0.2163 -1.9159
13067TIP3    H260693   2.659   1.389   1.128 -0.0999  0.0312 -3.0688
13068TIP3   OH260694   6.735   4.939  13.422 -0.3180  0.0885  0.2754
13068TIP3    H160695   6.701   5.027  13.436 -0.0042  0.1532  0.6313
13068TIP3    H260696   6.828   4.945  13.444 -0.0635 -0.0853 -0.6952
13069TIP3   OH260697   3.024   6.115  12.174  0.5934  0.7398  0.2713
13069TIP3    H160698   3.047   6.142  12.262 -0.5575  1.6336  0.3045
13069TIP3    H260699   2.974   6.188  12.138  0.1869 -0.0257 -0.7594
13070TIP3   OH260700   6.076   0.506   0.094 -0.3298  0.0999  0.8858
13070TIP3    H160701   6.015   0.433   0.088  0.3834 -0.5605  1.5886
13070TIP3    H260702   6.163   0.466   0.092  0.1685  1.2247 -2.7983
13071TIP3   OH260703   3.938   0.836   3.707 -0.2132 -0.4178  0.4138
13071TIP3    H160704   3.847   0.855   3.729 -0.4460 -0.0458 -0.8116
13071TIP3    H260705   3.941   0.845   3.611  0.9569 -1.0731  0.3886
13072TIP3   OH260706   2.921   6.768  11.469  0.2843  0.3007 -0.2945
13072TIP3    H160707   2.945   6.728  11.385 -0.6154  0.1899 -0.5045
13072TIP3    H260708   2.826   6.757  11.474  0.1185  1.8184 -0.0396
13073TIP3   OH260709   4.322   2.088  11.462  0.5610  0.3534  0.5883
13073TIP3    H160710   4.327   1.994  11.443  1.4901  0.3722  0.7411
13073TIP3    H260711   4.342   2.094  11.555 -1.5797  0.5041  1.0739
13074TIP3   OH260712   3.395   1.538   0.537 -0.2082  0.0156  0.9319
13074TIP3    H160713   3.417   1.558   0.628  0.2848  2.2400  0.3505
13074TIP3    H260714   3.393   1.623   0.494 -2.1594 -0.8555 -0.7703
13075TIP3   OH260715   1.101   4.200   1.793 -0.2359  0.4597  0.2354
13075TIP3    H160716   1.020   4.196   1.843 -0.2957 -0.2666  0.0876
13075TIP3    H260717   1.126   4.292   1.795 -0.6657  0.5645  0.9181
13076TIP3   OH260718   6.184   2.396  11.301  0.2629  0.3457 -0.8348
13076TIP3    H160719   6.252   2.355  11.355 -0.3899  0.8718  0.3995
13076TIP3    H260720   6.222   2.480  11.275 -0.1259  0.8712  0.2998
13077TIP3   OH260721   2.574   0.291   5.717  0.3127  0.2830 -0.3447
13077TIP3    H160722   2.555   0.385   5.715 -0.7709  0.0592 -0.9724
13077TIP3    H260723   2.654   0.284   5.769  1.8447  1.7948 -2.4326
13078TIP3   OH260724   5.318   0.048  17.283 -0.0722 -0.2638  0.1792
13078TIP3    H160725   5.307  -0.036  17.238  0.2078 -0.5173  0.5836
13078TIP3    H260726   5.410   0.070  17.271  0.7343 -1.7601  3.0931
13079TIP3   OH260727   0.922   1.288  14.318 -0.0020  0.3976 -0.7414
13079TIP3    H160728   0.985   1.279  14.247  0.4252  0.4949 -0.3787
13079TIP3    H260729   0.910   1.383  14.329 -0.6518  0.3732 -1.1936
13080TIP3   OH260730   3.530   3.294   5.470  0.1958  0.3624  0.5580
13080TIP3    H160731   3.580   3.373   5.450  1.0931 -0.4694 -0.6295
13080TIP3    H260732   3.439   3.322   5.472  0.2641  0.9828 -2.4397
13081TIP3   OH260733   0.453   4.025   2.281 -0.2385  0.2838  0.7070
13081TIP3    H160734   0.506   3.946   2.287 -0.5197 -0.1592 -2.0223
13081TIP3    H260735   0.500   4.089   2.336  1.8132 -0.7941  0.2635
13082TIP3   OH260736   6.035   4.504  12.912  0.3456 -0.2788  0.3744
13082TIP3    H160737   5.974   4.464  12.852 -0.4295 -1.2253  1.7762
13082TIP3    H260738   6.120   4.501  12.867 -0.0501 -1.8227 -0.2731
13083TIP3   OH260739   4.127   2.653   4.512  0.0515 -0.5872  0.0411
13083TIP3    H160740   4.123   2.749   4.508 -0.0231 -0.6007 -0.1944
13083TIP3    H260741   4.061   2.630   4.578 -0.2493 -0.5016 -0.2267
13084TIP3   OH260742   2.775   6.167   5.328 -0.2508  0.1191 -0.1316
13084TIP3    H160743   2.822   6.248   5.351  1.6401 -1.3353  1.3563
13084TIP3    H260744   2.710   6.156   5.398  0.0224 -0.0417  0.1009
13085TIP3   OH260745   2.570   3.079  14.459 -0.4353  0.3070  0.0618
13085TIP3    H160746   2.550   3.061  14.367 -0.6996  2.3143 -0.2890
13085TIP3    H260747   2.505   3.144  14.485  0.8656  1.2113  1.1044
13086TIP3   OH260748   0.360   1.767   1.675  0.3043 -0.5243 -0.3207
13086TIP3    H160749   0.286   1.709   1.656 -0.3331  0.5962 -1.4019
13086TIP3    H260750   0.340   1.847   1.625  0.8569  0.8425  1.5820
13087TIP3   OH260751   0.983   1.894  12.790 -0.3904 -0.1938 -0.9456
13087TIP3    H160752   1.043   1.968  12.791  0.1047 -0.5901 -0.0194
13087TIP3    H260753   0.912   1.919  12.850 -0.1717 -0.4980 -0.5540
13088TIP3   OH260754   5.650   1.620   1.868  0.0052  0.5089 -0.3597
13088TIP3    H160755   5.633   1.646   1.959  0.2975  1.1323 -0.4784
13088TIP3    H260756   5.613   1.692   1.815 -2.9325 -1.2962 -0.8658
13089TIP3   OH260757   0.344   2.822   4.749 -0.8444  0.4129 -0.1298
13089TIP3    H160758   0.261   2.856   4.716 -0.8242  0.8392  0.2420
13089TIP3    H260759   0.320   2.748   4.805 -1.2493  2.4491  2.5245
13090TIP3   OH260760   0.222   5.156   3.961  0.1228 -0.2527 -0.5643
13090TIP3    H160761   0.198   5.218   4.029 -2.1017 -0.4785 -1.1102
13090TIP3    H260762   0.139   5.120   3.930  1.2118 -1.6114 -2.0330
13091TIP3   OH260763   3.866   0.761   0.852  0.4550  0.8534  0.5166
13091TIP3    H160764   3.811   0.809   0.790  1.3440  2.4190  0.9062
13091TIP3    H260765   3.929   0.826   0.883  2.5054 -0.8708  0.1072
13092TIP3   OH260766   0.665   5.302   5.802 -0.0227 -0.3617  0.1260
13092TIP3    H160767   0.745   5.269   5.762  1.0896  1.6250  0.6470
13092TIP3    H260768   0.685   5.309   5.895 -0.1224  1.9554  0.0131
13093TIP3   OH260769   0.381   0.651  16.695  0.2123 -0.5016  0.1943
13093TIP3    H160770   0.450   0.702  16.653  1.7770 -2.1806  0.6841
13093TIP3    H260771   0.424   0.570  16.723 -1.8273 -1.3434  0.9958
13094TIP3   OH260772   3.896   5.836  14.978  0.1609  0.4689 -0.2575
13094TIP3    H160773   3.911   5.929  14.995 -0.3077  1.0661 -2.8219
13094TIP3    H260774   3.807   5.819  15.008 -0.3530  1.2723 -1.3121
13095TIP3   OH260775   3.798   4.410  16.372  0.0946 -0.0299 -0.0287
13095TIP3    H160776   3.810   4.316  16.381 -0.8450 -0.1405  0.1717
13095TIP3    H260777   3.870   4.439  16.317 -0.0780 -0.9917 -0.7771
13096TIP3   OH260778   0.028   5.416   4.299 -0.0037  0.8635  0.1600
13096TIP3    H160779  -0.063   5.398   4.276  0.4803 -0.1072 -1.0362
13096TIP3    H260780   0.045   5.504   4.264 -0.9547  1.7772  1.8738
13097TIP3   OH260781   4.366   4.876  11.565 -0.5225  0.0776 -0.4329
13097TIP3    H160782   4.416   4.847  11.642 -0.6454  1.6119  0.2318
13097TIP3    H260783   4.321   4.797  11.535 -0.4804 -0.5387  1.0684
13098TIP3   OH260784   4.457   6.177  16.284  0.6323  0.2791  0.2321
13098TIP3    H160785   4.470   6.167  16.378  1.0818  1.3994  0.2943
13098TIP3    H260786   4.370   6.215  16.276  0.2647 -0.5544  0.1424
13099TIP3   OH260787   0.802   5.330  12.883  0.2553 -0.2151  0.1822
13099TIP3    H160788   0.741   5.290  12.821  0.1282 -0.1287  0.2494
13099TIP3    H260789   0.745   5.370  12.949  0.3611  0.9551 -0.4320
13100TIP3   OH260790   2.284   1.683   0.282 -0.6820  1.0082  0.0008
13100TIP3    H160791   2.223   1.716   0.216  2.2492 -0.0260 -3.3259
13100TIP3    H260792   2.371   1.696   0.244  0.9293 -3.5788  1.8053
13101TIP3   OH260793   5.593   4.181  15.009 -0.5202  0.2936 -0.2104
13101TIP3    H160794   5.609   4.254  14.949 -0.0296  0.2582 -0.1279
13101TIP3    H260795   5.678   4.165  15.049 -0.9001  0.4702  0.6663
13102TIP3   OH260796   6.466   6.267  11.212  0.4999 -0.2728  0.4924
13102TIP3    H160797   6.403   6.290  11.144  0.2110  0.5141  1.0084
13102TIP3    H260798   6.492   6.177  11.193 -0.9256 -0.6645  0.3855
13103TIP3   OH260799   1.855   0.465  15.724  0.0894 -0.2176 -0.0099
13103TIP3    H160800   1.794   0.524  15.769  0.5023 -0.1294  0.4367
13103TIP3    H260801   1.852   0.384  15.776 -0.8501 -0.7579 -0.9083
13104TIP3   OH260802   5.477   4.468  10.134 -0.5022 -0.0856  0.4205
13104TIP3    H160803   5.535   4.410  10.084  0.2771  0.6969  0.4141
13104TIP3    H260804   5.536   4.526  10.182 -1.2848  2.0244 -1.1157
13105TIP3   OH260805   5.939   4.333  15.543 -0.0260  0.1317  0.7718
13105TIP3    H160806   5.941   4.247  15.586  0.1972  0.2218  0.9468
13105TIP3    H260807   5.935   4.313  15.449 -1.7493 -0.0677  0.8725
13106TIP3   OH260808   2.822   1.343   2.982 -0.1021 -0.0189 -0.2230
13106TIP3    H160809   2.819   1.430   3.023  0.7852  0.5276 -1.2926
13106TIP3    H260810   2.878   1.292   3.040 -0.1688  0.2880  0.1130
13107TIP3   OH260811   0.120   1.557   0.847  0.4560 -0.2183 -0.2844
13107TIP3    H160812   0.100   1.580   0.756 -2.7098 -1.0300  0.1437
13107TIP3    H260813   0.203   1.510   0.842 -1.8331 -4.2746 -3.3794
13108TIP3   OH260814   3.338   6.176   0.469 -0.0145  0.4057  0.2166
13108TIP3    H160815   3.405   6.126   0.423 -0.2909  0.7402 -0.5751
13108TIP3    H260816   3.363   6.172   0.561  0.4886 -0.3828  0.0556
13109TIP3   OH260817   3.290   6.623   0.844 -0.0335 -0.1638 -0.0530
13109TIP3    H160818   3.199   6.613   0.873 -0.2673 -0.4151 -0.8519
13109TIP3    H260819   3.308   6.716   0.853 -0.1681 -0.2096  0.7026
13110TIP3   OH260820   6.211   3.038  15.662 -0.0894 -0.5285  0.4957
13110TIP3    H160821   6.252   2.964  15.706  1.5810 -0.5718 -1.0826
13110TIP3    H260822   6.260   3.048  15.581 -1.0268  1.5905  0.1546
13111TIP3   OH260823   1.518   6.705  15.835 -0.3968  0.3899 -0.2894
13111TIP3    H160824   1.449   6.657  15.880  0.3664 -0.2402  0.2369
13111TIP3    H260825   1.570   6.637  15.791  0.8741  0.6857  0.7131
13112TIP3   OH260826   6.783   3.457  12.853  0.1244  0.4208  0.0513
13112TIP3    H160827   6.852   3.427  12.794 -1.3614  1.0587 -2.0550
13112TIP3    H260828   6.735   3.378  12.876  0.1472  0.2921 -0.3372
13113TIP3   OH260829   5.461   3.613  11.927  0.1809  0.0017 -0.0282
13113TIP3    H160830   5.465   3.701  11.966  0.1304  0.9365 -2.0609
13113TIP3    H260831   5.550   3.596  11.897 -0.3053  0.3983 -1.7861
13114TIP3   OH260832   6.784   3.087   3.408 -0.2664  0.0108  0.4497
13114TIP3    H160833   6.738   3.103   3.491 -0.9431  2.4540 -0.3372
13114TIP3    H260834   6.824   3.001   3.419 -0.5475  0.1770  3.2222
13115TIP3   OH260835   4.406   3.720   3.121  0.6535 -0.2149 -0.4416
13115TIP3    H160836   4.350   3.701   3.197  0.3506 -2.6229 -1.2172
13115TIP3    H260837   4.345   3.739   3.050  0.8827  0.1621 -0.5358
13116TIP3   OH260838   0.316   4.690   3.121  0.4669 -0.1702 -0.3250
13116TIP3    H160839   0.367   4.750   3.174 -0.1620 -0.8724  1.1204
13116TIP3    H260840   0.321   4.606   3.168 -0.1692 -0.7875 -1.3329
13117TIP3   OH260841   5.405   3.167  14.209  0.3816 -0.0440 -0.4854
13117TIP3    H160842   5.420   3.097  14.272  0.3725 -0.2275 -0.6885
13117TIP3    H260843   5.493   3.189  14.177  0.3537 -0.1744 -0.6515
13118TIP3   OH260844   0.057   6.654   0.315  0.1054 -0.3635  0.2286
13118TIP3    H160845   0.099   6.583   0.364  0.4636  1.1444  2.1507
13118TIP3    H260846   0.122   6.724   0.312  0.1827 -0.4954 -2.6539
13119TIP3   OH260847   0.247   0.100   3.036  0.1654  0.0842  0.0483
13119TIP3    H160848   0.162   0.121   3.073 -0.1900  0.6823 -1.0892
13119TIP3    H260849   0.278   0.025   3.087 -1.8369 -1.2937 -0.7249
13120TIP3   OH260850   0.565   0.081  14.283  0.3904 -0.3313  0.2499
13120TIP3    H160851   0.491   0.063  14.341  0.5026 -1.9192 -0.0578
13120TIP3    H260852   0.634   0.020  14.312  1.1710  0.3192 -0.1994
13121TIP3   OH260853   1.746   1.650  13.293 -0.1327 -0.0800 -0.1813
13121TIP3    H160854   1.759   1.671  13.201 -0.1847  0.0212 -0.1655
13121TIP3    H260855   1.790   1.720  13.341  1.1998 -0.9403 -0.1276
13122TIP3   OH260856   2.442   2.136  13.311  0.0430  0.4698  0.2529
13122TIP3    H160857   2.482   2.150  13.225 -1.8888 -0.5427 -0.8572
13122TIP3    H260858   2.367   2.194  13.312 -1.4279 -1.3911  0.1954
13123TIP3   OH260859   2.084   5.289   3.752 -0.0684 -0.1193  0.1575
13123TIP3    H160860   2.123   5.279   3.839 -0.7810 -1.0923  0.3807
13123TIP3    H260861   2.157   5.315   3.696  0.2471  1.2789  1.1900
13124TIP3   OH260862   5.715   1.410  13.455 -1.1708 -0.4443 -0.2176
13124TIP3    H160863   5.714   1.390  13.362  2.4547  0.4655 -0.5482
13124TIP3    H260864   5.744   1.329  13.497 -1.0635 -0.3444 -0.0949
13125TIP3   OH260865   2.546   2.683  14.759  0.1111  0.6707  0.2441
13125TIP3    H160866   2.490   2.758  14.738 -2.5379 -1.1669  0.4826
13125TIP3    H260867   2.580   2.701  14.847 -0.3680  1.6581  0.2226
13126TIP3   OH260868   6.510   5.501  15.291 -0.3303 -0.1104  0.0600
13126TIP3    H160869   6.567   5.573  15.318 -0.7242  0.2251 -0.0029
13126TIP3    H260870   6.426   5.543  15.271 -0.2919 -0.4650 -0.8673
13127TIP3   OH260871   1.152   4.850   0.816 -0.0008 -0.4186  0.4535
13127TIP3    H160872   1.153   4.922   0.879 -0.3710 -1.8726  2.1746
13127TIP3    H260873   1.207   4.782   0.856 -0.1816 -1.3355 -0.8213
13128TIP3   OH260874   0.945   0.476   4.878 -0.4926 -0.1878  0.4647
13128TIP3    H160875   0.935   0.493   4.972  0.0262  0.1541  0.4619
13128TIP3    H260876   0.998   0.549   4.846  1.6477 -1.6920  0.4300
13129TIP3   OH260877   5.665   1.230   3.909  0.3790  0.3816 -0.1169
13129TIP3    H160878   5.607   1.163   3.947 -1.3704  2.0674  0.2754
13129TIP3    H260879   5.707   1.270   3.985  0.3874  0.6678 -0.2752
13130TIP3   OH260880   1.105   1.253   3.278 -0.2895 -0.2227  0.0694
13130TIP3    H160881   1.080   1.205   3.357 -0.8436 -1.4492 -0.8517
13130TIP3    H260882   1.157   1.191   3.227  1.3632  1.0343  0.1355
13131TIP3   OH260883   6.194   2.327   0.125  0.3912 -0.0579  0.0466
13131TIP3    H160884   6.274   2.374   0.099  0.9287 -0.6239  0.6560
13131TIP3    H260885   6.171   2.275   0.048 -0.4132  1.4525 -0.7654
13132TIP3   OH260886   3.951   1.654   2.818 -0.1090  0.0288  0.3072
13132TIP3    H160887   4.012   1.580   2.806 -0.9832 -0.7231  0.4462
13132TIP3    H260888   3.906   1.634   2.899  0.3541  1.2374  0.8635
13133TIP3   OH260889   2.445   4.945  14.338  0.6411 -0.1256 -0.3940
13133TIP3    H160890   2.484   4.872  14.387  1.1996  0.0716 -0.5436
13133TIP3    H260891   2.373   4.975  14.394  1.0935 -0.0922  0.1787
13134TIP3   OH260892   6.197   5.682   4.804  0.2927  0.4598  0.3884
13134TIP3    H160893   6.265   5.739   4.840  0.6490 -0.8314  1.7705
13134TIP3    H260894   6.234   5.594   4.806 -0.3091  0.1280 -1.6082
13135TIP3   OH260895   5.036   1.165   5.241 -0.1174 -0.0587  0.0070
13135TIP3    H160896   4.942   1.178   5.230 -0.2265 -0.5266  0.3824
13135TIP3    H260897   5.076   1.231   5.185 -0.6579 -0.7968 -1.2657
13136TIP3   OH260898   6.465   5.638   0.835  0.0565  0.2420  0.2778
13136TIP3    H160899   6.515   5.557   0.826  0.2336  0.3070  0.6970
13136TIP3    H260900   6.491   5.691   0.759 -0.3669 -0.2596 -0.2207
13137TIP3   OH260901   3.596   1.101   4.956 -0.2392  0.1305  0.2638
13137TIP3    H160902   3.543   1.022   4.954  0.0866 -0.0707 -0.5291
13137TIP3    H260903   3.626   1.113   4.866 -1.2193  1.8048  0.1364
13138TIP3   OH260904   0.050   3.083  16.760  0.5424 -0.8895 -0.1261
13138TIP3    H160905   0.109   3.156  16.743 -2.2340  1.0387 -1.8483
13138TIP3    H260906   0.012   3.103  16.846 -2.2005  1.1817 -1.7440
13139TIP3   OH260907   3.079   0.509   3.566  0.2386  0.3644 -0.2901
13139TIP3    H160908   3.099   0.483   3.657  1.8854  0.6028 -0.5661
13139TIP3    H260909   3.136   0.453   3.513  0.0581  0.9853 -1.1354
13140TIP3   OH260910   1.633   0.227  12.225 -0.2614 -0.0665 -0.0181
13140TIP3    H160911   1.638   0.215  12.130 -2.1358 -1.2574  0.0110
13140TIP3    H260912   1.632   0.322  12.236 -1.3186  0.0846 -1.2783
13141TIP3   OH260913   5.901   3.503  15.989 -0.6204 -0.0190  0.6366
13141TIP3    H160914   5.839   3.560  16.035 -0.5269 -1.1664  2.2202
13141TIP3    H260915   5.856   3.419  15.983  0.1537 -0.4146  0.3808
13142TIP3   OH260916   1.544   1.468   1.611 -0.0614 -0.0157  0.2606
13142TIP3    H160917   1.467   1.504   1.567 -0.5359 -1.0007  0.2615
13142TIP3    H260918   1.608   1.454   1.541 -0.4482 -0.6320  0.0213
13143TIP3   OH260919   0.115   3.252  11.191 -0.4835  0.6518 -0.4634
13143TIP3    H160920   0.093   3.171  11.144  0.5405 -0.9973  1.8332
13143TIP3    H260921   0.197   3.281  11.151 -0.4153  0.0972 -0.7282
13144TIP3   OH260922   2.066   1.063  14.512 -0.1771  0.2069  0.0242
13144TIP3    H160923   2.000   1.007  14.555 -1.6254  2.1180  0.3441
13144TIP3    H260924   2.038   1.068  14.421 -0.3333  0.8230  0.1050
13145TIP3   OH260925   2.108   1.005   0.687 -0.4329  0.0641 -0.1510
13145TIP3    H160926   2.014   1.002   0.702 -0.2021  0.8376  1.5204
13145TIP3    H260927   2.143   0.934   0.741  0.0280  0.2983 -0.1405
13146TIP3   OH260928   1.450   1.034   5.026  0.5343  0.1264  0.1237
13146TIP3    H160929   1.388   1.032   5.099  0.8695  0.5785  0.4229
13146TIP3    H260930   1.395   1.031   4.947  0.2867 -4.5256  0.3488
13147TIP3   OH260931   2.070   4.731   3.644  0.0396 -0.1786 -0.1907
13147TIP3    H160932   2.060   4.758   3.552 -0.1978  0.7491  0.1044
13147TIP3    H260933   2.080   4.813   3.692  4.0023 -0.8086  0.1973
13148TIP3   OH260934   0.876   6.195   3.417  0.2047  0.2129 -0.5127
13148TIP3    H160935   0.865   6.232   3.329  0.5976 -1.4342 -1.2827
13148TIP3    H260936   0.905   6.105   3.401 -1.1650 -0.5768  1.2831
13149TIP3   OH260937   2.039   5.047   2.272  0.2328 -0.1617 -0.4035
13149TIP3    H160938   2.052   4.958   2.305  1.4638 -0.2254 -1.0259
13149TIP3    H260939   2.028   5.100   2.351 -0.6052 -0.8781 -0.0335
13150TIP3   OH260940   2.966   5.200   2.182 -0.1342  0.1180 -0.2913
13150TIP3    H160941   2.894   5.224   2.123 -0.4478  0.6913  0.3140
13150TIP3    H260942   3.015   5.282   2.194 -0.4613  0.1726  0.7605
13151TIP3   OH260943   2.963   4.473  11.459  0.7303  0.5763 -0.4502
13151TIP3    H160944   2.952   4.562  11.492 -1.8992  0.1529 -0.0868
13151TIP3    H260945   2.894   4.423  11.502  0.3519 -1.0286 -2.8594
13152TIP3   OH260946   3.732   3.865  13.596 -0.1820  0.1521 -0.1172
13152TIP3    H160947   3.801   3.839  13.535 -0.3858 -1.0070  0.1350
13152TIP3    H260948   3.659   3.806  13.576 -0.2009 -0.3345  1.3436
13153TIP3   OH260949   5.499   0.425  12.088  0.0576  0.6072  0.3890
13153TIP3    H160950   5.524   0.479  12.013 -0.6222 -0.7693 -0.8400
13153TIP3    H260951   5.459   0.487  12.149 -1.1955  1.4269 -1.2143
13154TIP3   OH260952   2.098   0.366   3.057 -0.3584 -0.0179  0.0061
13154TIP3    H160953   2.080   0.349   2.964  0.4342 -0.1997 -0.1201
13154TIP3    H260954   2.056   0.450   3.075 -2.9243 -1.3127  0.2040
13155TIP3   OH260955   6.339   5.336  11.744 -0.3723  0.4996  0.1120
13155TIP3    H160956   6.327   5.241  11.736 -0.1871  0.6510 -2.6623
13155TIP3    H260957   6.251   5.372  11.741 -0.3514  0.5038 -0.4625
13156TIP3   OH260958   2.996   4.459   5.009  0.0806  0.4659  0.2532
13156TIP3    H160959   2.931   4.482   4.943 -0.7872  0.1737  0.9988
13156TIP3    H260960   3.037   4.542   5.033 -1.9971  1.0645  1.8459
13157TIP3   OH260961   2.345   0.345  12.009 -0.3446  0.6268 -0.2861
13157TIP3    H160962   2.282   0.414  11.991  1.0041  1.9398 -0.0712
13157TIP3    H260963   2.293   0.274  12.046 -2.2585  0.2019 -3.6427
13158TIP3   OH260964   1.995   2.779   1.284 -0.0414  0.2259  0.1764
13158TIP3    H160965   1.979   2.691   1.319 -0.5330  0.3048  0.1537
13158TIP3    H260966   1.944   2.782   1.203 -1.4520  1.1482  1.0817
13159TIP3   OH260967   6.605   3.669  11.550  0.2458 -0.0872  0.1056
13159TIP3    H160968   6.668   3.663  11.479  2.8037  0.1033  2.2757
13159TIP3    H260969   6.593   3.763  11.564 -1.3460 -0.1079 -0.9556
13160TIP3   OH260970   3.270   1.692  10.590  0.1435  0.4697  0.4453
13160TIP3    H160971   3.338   1.655  10.534  0.3922  0.7437  0.5634
13160TIP3    H260972   3.277   1.643  10.672 -0.1414  0.1514  0.2839
13161TIP3   OH260973   5.858   0.091   6.008  0.5653  0.3330 -0.3065
13161TIP3    H160974   5.774   0.133   5.988 -0.6998 -1.8535  0.2486
13161TIP3    H260975   5.870   0.106   6.102  1.4412  1.7225 -0.6226
13162TIP3   OH260976   4.508   5.339  14.614 -0.2950  0.4459 -0.7152
13162TIP3    H160977   4.458   5.408  14.659 -1.1509 -0.0544 -0.9014
13162TIP3    H260978   4.501   5.263  14.672  0.2214  0.3588 -0.7640
13163TIP3   OH260979   4.223   5.117  15.493  0.0391  0.0393  0.5380
13163TIP3    H160980   4.280   5.107  15.417 -0.8892 -3.9581  0.2395
13163TIP3    H260981   4.135   5.099  15.459 -0.4952 -0.9357  2.3466
13164TIP3   OH260982   2.875   4.490  15.685  0.4515  0.1711  0.2789
13164TIP3    H160983   2.877   4.433  15.762  0.2604 -1.3933 -0.8666
13164TIP3    H260984   2.896   4.432  15.612 -1.8073  1.1578 -1.1717
13165TIP3   OH260985   5.386   1.966  13.948 -0.3571 -0.9551 -0.2780
13165TIP3    H160986   5.473   1.935  13.924 -0.9113 -1.2084 -1.9912
13165TIP3    H260987   5.329   1.891  13.931 -1.1957 -0.1418 -1.0696
13166TIP3   OH260988   2.830   1.672  15.895  0.1163 -0.3787  0.0437
13166TIP3    H160989   2.916   1.673  15.855  0.6366  2.0437  1.0949
13166TIP3    H260990   2.808   1.765  15.908 -1.4643 -0.9918  2.2478
13167TIP3   OH260991   0.705   2.636   0.917  0.1444 -0.7984  0.1135
13167TIP3    H160992   0.756   2.712   0.889  1.5413 -1.7021  0.1722
13167TIP3    H260993   0.744   2.562   0.871 -2.5406 -1.2179 -1.5695
13168TIP3   OH260994   3.273   2.851   5.213  0.0210 -0.2865 -0.2921
13168TIP3    H160995   3.290   2.839   5.307  3.1438  3.4421 -0.2212
13168TIP3    H260996   3.311   2.774   5.172  0.1784 -1.1332  1.3788
13169TIP3   OH260997   0.342   4.876  14.642  0.3289  0.0601  0.1312
13169TIP3    H160998   0.273   4.812  14.628 -1.5542  1.6363  1.9300
13169TIP3    H260999   0.401   4.835  14.705 -0.7905  0.0238  1.1659
13170TIP3   OH261000   6.646   5.296  11.830  0.5034 -0.4305 -0.5107
13170TIP3    H161001   6.584   5.246  11.884  1.9843 -0.3878  1.3147
13170TIP3    H261002   6.600   5.312  11.748 -1.7155 -0.7839  0.6292
13171TIP3   OH261003   2.770   5.311  15.905 -0.3377 -0.2553 -0.5145
13171TIP3    H161004   2.843   5.287  15.963 -2.2785 -2.0508  1.2759
13171TIP3    H261005   2.804   5.293  15.817  1.8080  0.1398  0.1841
13172TIP3   OH261006   3.936   3.849   4.938  0.1920 -0.3695  0.3680
13172TIP3    H161007   3.878   3.915   4.899  0.2494 -1.2093 -1.1849
13172TIP3    H261008   3.933   3.867   5.032 -2.7395 -0.4769  0.3570
13173TIP3   OH261009   1.321   0.732   2.699  0.0091 -0.2617 -0.3972
13173TIP3    H161010   1.356   0.669   2.762  0.7902  1.6714  1.1359
13173TIP3    H261011   1.229   0.741   2.723  0.0644 -0.2816 -0.1786
13174TIP3   OH261012   4.328   6.510   3.288 -0.4334  0.3476  0.0122
13174TIP3    H161013   4.317   6.606   3.287  1.9663  0.6342 -0.2345
13174TIP3    H261014   4.334   6.488   3.381  2.3764  0.8725 -0.0049
13175TIP3   OH261015   4.834   2.964   3.142 -0.0142 -0.1658  0.1121
13175TIP3    H161016   4.903   3.011   3.191 -1.2980  0.2506  1.5681
13175TIP3    H261017   4.787   2.915   3.209 -0.9720 -0.6559 -0.9149
13176TIP3   OH261018   3.734   4.202   3.859 -0.0757  0.5149  0.5807
13176TIP3    H161019   3.733   4.203   3.954  1.2471 -0.5983  0.6197
13176TIP3    H261020   3.825   4.220   3.835  0.3672 -2.7796 -0.3841
13177TIP3   OH261021   0.167   2.832   4.438  0.2583 -0.4479  0.1149
13177TIP3    H161022   0.154   2.751   4.486  0.4915  0.6297  2.0771
13177TIP3    H261023   0.079   2.864   4.420  0.1492 -1.7076 -1.7254
13178TIP3   OH261024   3.927   6.565  10.293  0.6790  0.3121 -0.0639
13178TIP3    H161025   3.960   6.502  10.357 -0.0904 -1.4546 -1.3666
13178TIP3    H261026   3.889   6.635  10.346  1.3128 -0.4396  1.4038
13179TIP3   OH261027   0.551   2.801  12.638 -0.0790 -0.2020  0.3021
13179TIP3    H161028   0.529   2.840  12.723  1.1970 -1.7111  1.3684
13179TIP3    H261029   0.522   2.710  12.646  1.5467 -0.7852 -0.2724
13180TIP3   OH261030   1.897   2.025   2.861  0.8109 -0.7707  0.0430
13180TIP3    H161031   1.917   1.931   2.855 -1.1193 -1.0876 -2.3392
13180TIP3    H261032   1.802   2.029   2.860  0.8713  1.1783  1.2686
13181TIP3   OH261033   3.457   2.287  15.158 -0.5578 -0.1600  1.1285
13181TIP3    H161034   3.546   2.319  15.145 -0.9411  0.6551  0.4213
13181TIP3    H261035   3.467   2.195  15.181  0.3681 -0.6435 -1.0745
13182TIP3   OH261036   3.841   2.686   2.031 -0.3163  0.2926 -0.4113
13182TIP3    H161037   3.865   2.656   2.119 -2.9128  2.7053  1.2095
13182TIP3    H261038   3.834   2.606   1.979  4.6089 -0.9868  0.6159
13183TIP3   OH261039   5.423   2.179  16.654 -0.3898  0.2450  0.0387
13183TIP3    H161040   5.331   2.153  16.659 -0.4937 -0.0873 -3.0259
13183TIP3    H261041   5.422   2.274  16.654 -0.8571  0.2502 -1.6216
13184TIP3   OH261042   5.846   5.343   2.236  0.3688  0.6361  0.5223
13184TIP3    H161043   5.804   5.362   2.152  1.2487 -0.6027 -0.2243
13184TIP3    H261044   5.778   5.356   2.301 -1.2810 -1.6111 -0.6861
13185TIP3   OH261045   5.765   1.679   1.054 -0.2980  0.0628  0.4992
13185TIP3    H161046   5.788   1.609   0.993 -2.4165 -1.5786  1.5271
13185TIP3    H261047   5.720   1.743   1.000  1.4815  0.5932 -0.4135
13186TIP3   OH261048   0.136   0.726  14.338  0.4551  0.2235  0.5982
13186TIP3    H161049   0.155   0.741  14.246 -1.1858 -2.8658 -0.3224
13186TIP3    H261050   0.125   0.814  14.375  1.2852  1.5172 -2.0802
13187TIP3   OH261051   2.937   0.475  15.761  0.2212  0.3551 -0.3434
13187TIP3    H161052   2.963   0.466  15.669  0.6683  0.4427 -0.2286
13187TIP3    H261053   2.928   0.570  15.774  1.6685  0.4390  0.1090
13188TIP3   OH261054   4.905   2.094  16.980  0.2633  0.7637  0.2364
13188TIP3    H161055   4.920   2.041  16.901 -2.4229  0.3630 -0.0631
13188TIP3    H261056   4.906   2.032  17.052 -0.4764  0.6568  0.1547
13189TIP3   OH261057   5.920   2.317   5.096 -0.3980  0.4505  0.8513
13189TIP3    H161058   5.928   2.413   5.093 -0.5870  0.4147 -0.8676
13189TIP3    H261059   6.008   2.287   5.118  0.5642  0.8671 -2.1991
13190TIP3   OH261060   2.593   3.643   1.392 -0.3855  0.1691 -0.4891
13190TIP3    H161061   2.647   3.722   1.395  1.0859 -0.8866  2.7960
13190TIP3    H261062   2.527   3.656   1.460 -0.3918 -1.2277 -0.2102
13191TIP3   OH261063   3.404   6.161   1.721  0.3245 -0.0075 -0.6760
13191TIP3    H161064   3.371   6.157   1.810 -2.7205 -0.5516 -1.7671
13191TIP3    H261065   3.353   6.095   1.673  2.3371 -0.1721 -2.6763
13192TIP3   OH261066   1.761   5.061   4.663  0.2964 -0.1109 -0.4329
13192TIP3    H161067   1.777   5.042   4.755  1.7927  1.3977 -0.3452
13192TIP3    H261068   1.697   4.996   4.635 -1.3446  0.3694  2.0665
13193TIP3   OH261069   0.324   1.837  11.748 -0.3929  0.0270 -0.1129
13193TIP3    H161070   0.274   1.918  11.759  0.1506  0.4700 -0.7926
13193TIP3    H261071   0.365   1.847  11.662 -1.4437 -1.5816 -0.8165
13194TIP3   OH261072   5.435   1.888  12.692  0.5455  0.3397  0.0086
13194TIP3    H161073   5.499   1.851  12.632 -1.1842 -0.5102 -1.3727
13194TIP3    H261074   5.440   1.832  12.770  0.0790 -0.9942 -0.8893
13195TIP3   OH261075   5.487   3.337   4.755 -0.3167 -0.3308 -0.0249
13195TIP3    H161076   5.503   3.405   4.820 -0.7566  0.8663 -1.1325
13195TIP3    H261077   5.400   3.302   4.777  1.5837 -3.3864  2.9907
13196TIP3   OH261078   5.241   1.337   4.651  0.0990 -0.3491 -0.2197
13196TIP3    H161079   5.311   1.271   4.649  0.4597 -0.0011  0.4833
13196TIP3    H261080   5.179   1.309   4.584 -1.2856 -3.0860  2.1260
13197TIP3   OH261081   4.686   5.249  14.917 -0.6963  0.2323  0.3811
13197TIP3    H161082   4.611   5.307  14.935 -1.3701 -0.7464  0.7710
13197TIP3    H261083   4.730   5.240  15.002  0.5443  1.7266 -0.0800
13198TIP3   OH261084   0.659   3.005  11.957 -0.4216 -0.1105  0.4125
13198TIP3    H161085   0.658   2.956  11.874 -1.3713  0.9934 -0.2409
13198TIP3    H261086   0.699   2.945  12.020  0.2342 -0.9927 -0.8294
13199TIP3   OH261087   4.747   0.831   6.491 -0.3123  0.1257 -0.6921
13199TIP3    H161088   4.696   0.851   6.570  0.5600  1.0808 -0.3530
13199TIP3    H261089   4.682   0.829   6.421 -1.3772 -2.5549  0.2843
13200TIP3   OH261090   3.844   2.706   2.739  0.0158  0.1185  0.0867
13200TIP3    H161091   3.917   2.660   2.781 -0.3721 -0.0972  0.5164
13200TIP3    H261092   3.817   2.772   2.803 -1.4376 -1.0732  0.7049
13201TIP3   OH261093   2.226   2.059  17.211 -0.5896  0.0773 -0.0916
13201TIP3    H161094   2.195   2.144  17.243  1.1489  0.8112 -0.3043
13201TIP3    H261095   2.309   2.079  17.168 -0.0441 -1.7832  0.0858
13202TIP3   OH261096   1.146   4.221  16.920  0.3953  0.1813 -0.1182
13202TIP3    H161097   1.074   4.196  16.978 -1.7704  1.1894 -2.2912
13202TIP3    H261098   1.193   4.139  16.904 -2.1488 -1.1200 -1.1584
13203TIP3   OH261099   4.301   2.415   3.087  0.0775  0.4019 -0.4775
13203TIP3    H161100   4.360   2.416   3.012  1.7186  1.4743  0.7957
13203TIP3    H261101   4.312   2.329   3.126  1.7145  1.0162  0.4455
13204TIP3   OH261102   6.116   4.286   0.514  0.1848  0.9323  0.3897
13204TIP3    H161103   6.139   4.193   0.515 -1.2910  0.5524  1.9656
13204TIP3    H261104   6.179   4.328   0.573 -1.4624  0.3005  2.6779
13205TIP3   OH261105   6.278   5.147  13.539 -0.3963 -0.1517 -0.3898
13205TIP3    H161106   6.234   5.127  13.622 -0.0428  1.6583  0.2451
13205TIP3    H261107   6.348   5.082  13.534 -0.2466 -0.1037  0.8598
13206TIP3   OH261108   2.551   4.806  16.143 -0.5856  0.9825  0.5092
13206TIP3    H161109   2.543   4.738  16.209  0.1639 -0.0426 -0.4299
13206TIP3    H261110   2.622   4.862  16.175  0.1089  0.2109  0.3566
13207TIP3   OH261111   6.349   1.168  11.126 -0.4459  0.0026  0.0031
13207TIP3    H161112   6.379   1.091  11.175 -0.6690 -0.5605 -0.7327
13207TIP3    H261113   6.378   1.242  11.178  0.3749 -0.5701  0.3786
13208TIP3   OH261114   2.422   3.013   2.590 -0.3542  0.3396  0.3286
13208TIP3    H161115   2.339   3.009   2.541  0.2888  1.2910 -0.8874
13208TIP3    H261116   2.431   2.927   2.630 -0.0560 -1.1061 -2.6763
13209TIP3   OH261117   1.447   5.345  14.462 -0.4846  0.3715 -0.0114
13209TIP3    H161118   1.463   5.259  14.423  0.5733  0.4189  0.2909
13209TIP3    H261119   1.389   5.389  14.400  1.0787  0.4129 -1.4714
13210TIP3   OH261120   4.616   6.050   2.596 -0.4428 -0.2957  0.0801
13210TIP3    H161121   4.546   6.110   2.569 -2.0221 -1.3883  1.6402
13210TIP3    H261122   4.673   6.104   2.651 -1.2237  0.0593  0.5491
13211TIP3   OH261123   2.587   5.115   2.735  0.0894  0.3661  0.0019
13211TIP3    H161124   2.537   5.166   2.671 -2.9021 -2.3370  0.0532
13211TIP3    H261125   2.657   5.075   2.684 -0.5023  0.5821 -0.9967
13212TIP3   OH261126   0.198   2.497  16.576  0.0634  0.4092  0.2403
13212TIP3    H161127   0.292   2.504  16.560 -0.1192 -0.5339 -1.3812
13212TIP3    H261128   0.174   2.411  16.540 -1.5735  1.0255 -0.1616
13213TIP3   OH261129   4.537   2.793   3.435 -0.4908  0.7833 -0.1473
13213TIP3    H161130   4.624   2.778   3.399 -0.6158  0.4690 -0.3249
13213TIP3    H261131   4.529   2.731   3.507 -0.9536  0.0879 -0.7896
13214TIP3   OH261132   3.710   5.578  13.550 -0.1205  0.4605 -0.2124
13214TIP3    H161133   3.762   5.530  13.485  0.1035  0.4703 -0.0413
13214TIP3    H261134   3.743   5.549  13.634 -0.7252  0.1120 -0.0966
13215TIP3   OH261135   2.764   0.225   3.820  0.5601 -0.0549 -0.2888
13215TIP3    H161136   2.700   0.275   3.770  0.7130  0.2583 -0.1723
13215TIP3    H261137   2.796   0.286   3.887  0.1881 -0.5393  0.3402
13216TIP3   OH261138   5.975   5.248   5.766  0.9026 -0.3291 -0.1112
13216TIP3    H161139   5.893   5.281   5.728  1.2835 -0.7204 -1.2654
13216TIP3    H261140   5.962   5.259   5.861 -0.0527  0.6255 -0.3327
13217TIP3   OH261141   3.630   4.962  13.579  0.0028  0.0291 -0.1220
13217TIP3    H161142   3.617   4.885  13.635 -0.0693  0.1809  0.0716
13217TIP3    H261143   3.546   4.973  13.533 -0.4736  0.8405  0.9229
13218TIP3   OH261144   4.980   3.182  12.225  0.6240  0.3250 -0.1103
13218TIP3    H161145   5.047   3.165  12.291  2.6477 -0.6699 -2.3580
13218TIP3    H261146   5.028   3.186  12.142 -1.9912  0.4813 -1.6757
13219TIP3   OH261147   4.446   5.728  14.834 -0.4906  0.4761 -0.2866
13219TIP3    H161148   4.519   5.666  14.843 -0.9810 -0.1940 -0.9063
13219TIP3    H261149   4.428   5.756  14.923 -0.0761 -0.0529 -0.0292
13220TIP3   OH261150   0.001   5.132   2.496  0.0682  0.0765  0.4157
13220TIP3    H161151  -0.016   5.061   2.434  0.7255  0.1243  0.1775
13220TIP3    H261152  -0.079   5.183   2.497 -0.8706 -1.3601  1.4994
13221TIP3   OH261153   1.981   6.713  12.925  0.1810 -0.6990  0.0343
13221TIP3    H161154   1.888   6.705  12.943  0.1668 -0.0352  0.2739
13221TIP3    H261155   2.023   6.706  13.011  0.1438  2.0314  0.3055
13222TIP3   OH261156   1.085   2.164   2.303  0.3028  0.1418 -0.0380
13222TIP3    H161157   1.166   2.147   2.254 -0.0741 -0.5424 -0.4304
13222TIP3    H261158   1.016   2.129   2.247 -0.2630  0.6699  0.3278
13223TIP3   OH261159   1.390   3.857   5.176 -0.1833 -0.3343  0.2981
13223TIP3    H161160   1.483   3.865   5.195 -0.7361 -1.3471  4.0285
13223TIP3    H261161   1.364   3.942   5.141  2.0278  0.0931 -0.3435
13224TIP3   OH261162   6.454   3.276   0.017 -0.0727  0.5217  0.4109
13224TIP3    H161163   6.516   3.254  -0.052 -0.6522  2.1873 -0.6626
13224TIP3    H261164   6.509   3.309   0.089  0.6626 -2.6477  1.3963
13225TIP3   OH261165   3.860   3.210   5.720 -0.0712  0.3842 -0.7518
13225TIP3    H161166   3.824   3.247   5.801  0.7489 -1.3250  0.4167
13225TIP3    H261167   3.891   3.123   5.745  0.0435 -0.2354 -2.9492
13226TIP3   OH261168   5.776   2.193   3.793 -0.1115 -0.3681  0.3721
13226TIP3    H161169   5.706   2.257   3.805  1.5743  1.0952  2.7970
13226TIP3    H261170   5.852   2.245   3.767  0.0831 -1.9578 -2.4137
13227TIP3   OH261171   6.293   5.846   2.465  0.3135  0.4203 -0.1175
13227TIP3    H161172   6.308   5.751   2.460 -1.0208  0.2033 -0.1410
13227TIP3    H261173   6.377   5.884   2.442  0.7013 -0.7649 -0.7252
13228TIP3   OH261174   5.257   5.346  10.976 -0.2833  0.1618  0.4832
13228TIP3    H161175   5.191   5.290  10.936 -0.6919  0.5703  0.5874
13228TIP3    H261176   5.330   5.345  10.914  0.0330 -1.1431  0.8770
13229TIP3   OH261177   5.364   4.619   2.587  0.6170  0.4541 -0.5112
13229TIP3    H161178   5.421   4.696   2.578  0.6824  0.4013 -0.5515
13229TIP3    H261179   5.372   4.573   2.504 -0.5987  1.2079 -1.0459
13230TIP3   OH261180   2.271   4.710  10.826  0.1502  0.3473  0.0089
13230TIP3    H161181   2.232   4.623  10.830  0.3776  0.3128  1.5568
13230TIP3    H261182   2.196   4.768  10.811 -0.5082  0.2359  2.5756
13231TIP3   OH261183   4.907   2.965  14.895 -0.5209 -0.0321 -0.4318
13231TIP3    H161184   4.994   2.933  14.921 -0.5796  0.5984  0.5799
13231TIP3    H261185   4.853   2.951  14.973 -0.5491  2.4702  0.0232
13232TIP3   OH261186   6.407   5.845  12.465  0.7578 -0.0329 -0.4043
13232TIP3    H161187   6.328   5.801  12.497  1.9503 -1.9345 -0.0753
13232TIP3    H261188   6.459   5.861  12.543  0.5525  1.6150 -0.5673
13233TIP3   OH261189   5.125   0.758   5.536  0.9392 -0.4736  0.1865
13233TIP3    H161190   5.167   0.845   5.539 -0.5589  0.2674  0.0755
13233TIP3    H261191   5.151   0.723   5.451  0.6972  0.3133 -0.2214
13234TIP3   OH261192   4.688   0.377  14.574  0.3710  0.0517  0.0175
13234TIP3    H161193   4.765   0.430  14.555  0.1912  0.1579 -0.4227
13234TIP3    H261194   4.693   0.304  14.512 -0.6427  0.8222 -1.0004
13235TIP3   OH261195   6.347   3.649  15.493  0.3269  0.1885 -0.1291
13235TIP3    H161196   6.370   3.570  15.543 -0.5213  0.9142  1.4350
13235TIP3    H261197   6.350   3.720  15.557  0.2685  1.3238 -1.3512
13236TIP3   OH261198   2.847   2.744  13.591  0.6077 -0.0736 -0.2935
13236TIP3    H161199   2.910   2.797  13.542  0.8221  0.8042  0.8988
13236TIP3    H261200   2.901   2.696  13.654 -0.1010  2.4402  2.3024
13237TIP3   OH261201   0.753   2.972   1.580  0.2965 -0.7108 -0.9299
13237TIP3    H161202   0.706   2.961   1.662  0.0407 -0.8465 -1.0933
13237TIP3    H261203   0.846   2.967   1.604  0.2198 -0.8733 -0.6693
13238TIP3   OH261204   6.199   3.908   2.788 -0.3635  0.5356 -0.0876
13238TIP3    H161205   6.249   3.889   2.709 -2.4806 -0.9690 -1.1315
13238TIP3    H261206   6.180   3.821   2.825 -3.7380  0.8895 -0.7764
13239TIP3   OH261207   4.260   5.641   1.126 -0.0263  0.5227  0.2030
13239TIP3    H161208   4.334   5.698   1.148  0.9866 -0.4941 -0.4893
13239TIP3    H261209   4.256   5.578   1.197  1.0031 -0.5853 -0.6847
13240TIP3   OH261210   5.216   5.227  11.268  0.1956  0.3887  0.3649
13240TIP3    H161211   5.264   5.147  11.288  0.9891  0.8581  0.3236
13240TIP3    H261212   5.129   5.211  11.305  0.2957 -0.5566  0.2124
13241TIP3   OH261213   2.407   0.539  11.529 -0.3999  0.1922 -0.7273
13241TIP3    H161214   2.477   0.563  11.468  0.2261 -2.6784 -1.1995
13241TIP3    H261215   2.450   0.535  11.614 -0.6214  1.2382 -0.5633
13242TIP3   OH261216   2.285   5.748   4.593 -0.4126  0.2835 -0.3507
13242TIP3    H161217   2.374   5.715   4.576 -0.2403  0.1601  0.7329
13242TIP3    H261218   2.235   5.669   4.614 -0.9555  0.2720 -1.6325
13243TIP3   OH261219   6.450   2.886   4.874 -0.1590  0.0106 -0.4535
13243TIP3    H161220   6.410   2.952   4.931  1.0882  0.7148 -0.3562
13243TIP3    H261221   6.386   2.815   4.869 -0.4449  0.1233  1.4946
13244TIP3   OH261222   5.583   3.367  17.196 -0.1166  0.5571  0.0526
13244TIP3    H161223   5.673   3.381  17.166 -0.4414 -1.0929 -1.7532
13244TIP3    H261224   5.534   3.347  17.116 -1.9270  0.5559  1.1384
13245TIP3   OH261225   5.129   0.542  15.744 -0.3774  0.2061 -0.4225
13245TIP3    H161226   5.112   0.467  15.800 -2.4208 -1.3674 -3.0802
13245TIP3    H261227   5.043   0.571  15.715  0.5826  1.5728 -1.9986
13246TIP3   OH261228   0.428   4.522  11.981 -0.2969 -0.0403 -0.2345
13246TIP3    H161229   0.409   4.534  11.887  0.8832  0.6344 -0.3956
13246TIP3    H261230   0.408   4.430  11.997 -6.2424  1.1242  0.2395
13247TIP3   OH261231   3.530   3.815  14.884 -0.0533  0.5628 -0.4442
13247TIP3    H161232   3.448   3.772  14.907 -1.1518  2.1844 -1.2527
13247TIP3    H261233   3.531   3.813  14.788  1.1350  0.0456 -0.4289
13248TIP3   OH261234   5.304   1.748  11.600 -0.0558  0.4217 -0.0009
13248TIP3    H161235   5.241   1.767  11.669 -0.7073 -1.4919 -0.0228
13248TIP3    H261236   5.251   1.717  11.527  0.7631  0.7906 -0.7676
13249TIP3   OH261237   1.323   3.482   5.184 -0.0969 -0.0764  0.2614
13249TIP3    H161238   1.401   3.455   5.232 -1.0882  0.8052  2.4358
13249TIP3    H261239   1.356   3.509   5.098  1.8695 -0.4532  0.8690
13250TIP3   OH261240   4.913   6.634  16.790  0.0464  0.8337  0.6362
13250TIP3    H161241   4.898   6.627  16.696  1.4458  2.2962  0.2788
13250TIP3    H261242   4.830   6.607  16.830 -1.2802  2.2771 -1.0714
13251TIP3   OH261243   0.780   6.573  13.377  0.5835  0.4677 -0.0472
13251TIP3    H161244   0.830   6.515  13.434 -0.0174  0.5165  0.5432
13251TIP3    H261245   0.757   6.519  13.302  0.5866  0.1261  0.1974
13252TIP3   OH261246   3.600   5.298  15.075  0.1719  0.0873 -0.5811
13252TIP3    H161247   3.619   5.205  15.074  2.4482  0.5162  0.3101
13252TIP3    H261248   3.551   5.312  15.156 -1.5782 -0.5723 -1.5041
13253TIP3   OH261249   6.384   2.888  12.831  0.2069  0.8308  0.1499
13253TIP3    H161250   6.424   2.862  12.747  0.5191 -0.3374  0.6512
13253TIP3    H261251   6.294   2.857  12.825  0.5972 -0.4373  0.7732
13254TIP3   OH261252   0.194   0.810   5.832 -0.0220  0.5012 -0.1222
13254TIP3    H161253   0.168   0.849   5.748  0.4514  0.3697 -0.3303
13254TIP3    H261254   0.223   0.722   5.809  0.4463  0.5898  0.1394
13255TIP3   OH261255   6.285   6.657   4.968 -0.1445 -0.1181  0.5219
13255TIP3    H161256   6.224   6.642   4.895  0.4789 -0.2325  0.0161
13255TIP3    H261257   6.238   6.715   5.027 -0.2509  0.8613 -0.5114
13256TIP3   OH261258   2.553   4.624  16.339  0.1071 -0.2705 -0.1185
13256TIP3    H161259   2.482   4.642  16.401 -0.2959  2.5045 -1.3175
13256TIP3    H261260   2.591   4.541  16.370 -0.4626  0.7065  3.4759
13257TIP3   OH261261   4.716   1.130   1.657  0.4996 -0.1477  1.1715
13257TIP3    H161262   4.690   1.212   1.700 -0.0312  1.0759 -1.3764
13257TIP3    H261263   4.779   1.157   1.590  1.4453 -2.0233  1.2869
13258TIP3   OH261264   2.762   2.889   3.649  0.2544 -0.7515 -0.4735
13258TIP3    H161265   2.851   2.896   3.613 -0.0874  1.0259 -1.0331
13258TIP3    H261266   2.775   2.878   3.743  1.0698 -0.7447 -0.5762
13259TIP3   OH261267   6.431   4.263   6.253 -0.2715  0.0007 -0.2692
13259TIP3    H161268   6.410   4.353   6.227 -1.8084 -0.6736 -1.3898
13259TIP3    H261269   6.393   4.255   6.341  0.3848  0.6106  0.0852
13260TIP3   OH261270   5.114   1.220  16.591 -0.1785  0.0168  0.5006
13260TIP3    H161271   5.075   1.184  16.511  0.4232  0.7990 -0.1660
13260TIP3    H261272   5.153   1.303  16.562 -0.8295  0.7940  1.8278
13261TIP3   OH261273   5.757   1.560   4.697  0.2306  0.1671 -0.2765
13261TIP3    H161274   5.765   1.523   4.785  3.0532  0.5561 -0.3054
13261TIP3    H261275   5.735   1.651   4.712  1.1104  0.3339  0.0666
13262TIP3   OH261276   5.330   0.010  13.027 -0.7744  0.3608 -0.0550
13262TIP3    H161277   5.349  -0.034  13.109 -0.9784 -0.1168 -0.2636
13262TIP3    H261278   5.336   0.104  13.048  1.5855  0.2563 -0.0566
13263TIP3   OH261279   2.960   2.856   1.839 -0.2270  0.5097 -0.2195
13263TIP3    H161280   2.881   2.812   1.868  0.7404 -1.2286 -0.1983
13263TIP3    H261281   2.936   2.949   1.838 -1.8526  0.1336  1.0740
13264TIP3   OH261282   6.126   0.553   5.954 -0.6993 -0.0660 -0.3607
13264TIP3    H161283   6.151   0.635   5.995  0.0810  0.0659 -1.0935
13264TIP3    H261284   6.090   0.579   5.869  1.8966 -0.6451 -1.6690
13265TIP3   OH261285   2.760   5.744  17.196  0.0781  0.1748  0.0886
13265TIP3    H161286   2.742   5.821  17.251  2.1386  1.0141 -0.3391
13265TIP3    H261287   2.830   5.698  17.243  0.4131 -0.2049 -0.7777
13266TIP3   OH261288   5.832   0.653   0.514  0.3777  0.0587  0.1316
13266TIP3    H161289   5.804   0.711   0.585 -0.4769 -2.1049  1.6177
13266TIP3    H261290   5.767   0.665   0.445 -1.1538 -0.8602  1.3875
13267TIP3   OH261291   5.994   0.796  14.864 -0.1786 -0.0728 -0.2617
13267TIP3    H161292   6.045   0.802  14.945 -1.0672  0.2957  0.2894
13267TIP3    H261293   5.933   0.869  14.869 -0.8818 -0.6092 -0.8110
13268TIP3   OH261294   3.248   5.786   5.435 -0.4752  0.6022 -0.4097
13268TIP3    H161295   3.225   5.721   5.368 -1.8314  1.8508 -1.1994
13268TIP3    H261296   3.211   5.868   5.402  1.0291  1.7481  0.6658
13269TIP3   OH261297   0.282   5.407   3.767 -0.2090 -0.3416  0.1829
13269TIP3    H161298   0.364   5.426   3.721  0.2683 -0.1808  1.0783
13269TIP3    H261299   0.243   5.493   3.783  1.0199 -0.1793  2.5557
13270TIP3   OH261300   2.304   6.262   0.379  0.0179  0.5845 -0.4645
13270TIP3    H161301   2.281   6.225   0.464  0.5744 -0.0729 -0.5983
13270TIP3    H261302   2.287   6.356   0.389 -4.3427 -0.0014 -1.0731
13271TIP3   OH261303   1.545   4.542   5.686 -0.1614 -0.0710  0.1524
13271TIP3    H161304   1.614   4.510   5.629 -1.3784 -1.3182 -0.6499
13271TIP3    H261305   1.564   4.503   5.772 -0.1871 -0.8874 -0.2076
13272TIP3   OH261306   3.881   0.741  15.219 -0.0765  0.0344  0.3065
13272TIP3    H161307   3.840   0.820  15.184 -0.7008 -0.2411  0.4010
13272TIP3    H261308   3.810   0.676  15.220 -0.0411  0.0098  2.0088
13273TIP3   OH261309   1.792   0.211  15.437 -0.9601 -0.2022  0.0903
13273TIP3    H161310   1.847   0.140  15.471 -0.2716  0.2709 -0.0092
13273TIP3    H261311   1.826   0.290  15.481  0.3233  0.5139 -2.1075
13274TIP3   OH261312   4.213   6.412   2.813 -0.2545  0.9078 -0.2437
13274TIP3    H161313   4.230   6.486   2.872  1.0902 -0.6308  1.3503
13274TIP3    H261314   4.140   6.441   2.759 -0.3534  3.0510  0.9820
13275TIP3   OH261315   1.917   0.215  17.098 -0.0361  0.0594 -0.1301
13275TIP3    H161316   1.985   0.221  17.031  0.6426 -0.7031  0.4840
13275TIP3    H261317   1.942   0.140  17.151 -0.1189  1.1380  1.4779
13276TIP3   OH261318   3.976   0.333   3.141  0.1440 -0.1962 -0.1554
13276TIP3    H161319   3.999   0.275   3.213  0.0968  0.9418  0.7825
13276TIP3    H261320   4.059   0.353   3.098 -0.0017 -2.1631 -1.4367
13277TIP3   OH261321   1.330   6.501  16.360  0.0813 -0.3050  0.4739
13277TIP3    H161322   1.415   6.543  16.343  0.1735 -1.1907 -1.4152
13277TIP3    H261323   1.279   6.568  16.406  1.7169  0.3287  1.4059
13278TIP3   OH261324   6.370   4.633  14.037 -0.2854  0.2281  0.2423
13278TIP3    H161325   6.337   4.546  14.062 -0.1795 -0.4571 -1.9073
13278TIP3    H261326   6.454   4.641  14.082 -0.6010 -0.5143  0.9759
13279TIP3   OH261327   3.673   6.203   0.176 -0.3951 -0.1288  0.0304
13279TIP3    H161328   3.707   6.208   0.087 -2.3172 -1.2361 -0.7876
13279TIP3    H261329   3.682   6.292   0.210  2.0495 -0.0942 -0.5973
13280TIP3   OH261330   5.068   5.851   0.048  0.1709 -0.3416 -0.2605
13280TIP3    H161331   5.042   5.871   0.138  0.0867  1.5599 -0.6896
13280TIP3    H261332   4.987   5.824   0.005 -0.5641  2.5276 -0.7677
13281TIP3   OH261333   3.227   0.511  14.012  0.3001 -0.3792 -0.4386
13281TIP3    H161334   3.192   0.451  13.947 -1.1115 -1.2351  1.0984
13281TIP3    H261335   3.308   0.469  14.042 -0.5377 -1.3650  0.4316
13282TIP3   OH261336   1.401   4.548   2.608 -0.1616 -0.2183  0.3575
13282TIP3    H161337   1.352   4.584   2.535 -0.8344 -0.5955  0.6194
13282TIP3    H261338   1.466   4.615   2.629 -0.7231  0.3878  0.1663
13283TIP3   OH261339   1.121   4.683   4.663  0.0833 -0.1091 -0.4917
13283TIP3    H161340   1.072   4.617   4.614 -1.3115 -0.4999  1.3636
13283TIP3    H261341   1.061   4.709   4.733  1.6109  1.2515  0.3206
13284TIP3   OH261342   5.986   0.134  16.320 -0.1536  0.3920  0.0294
13284TIP3    H161343   6.057   0.108  16.260 -1.0824  3.0345 -2.3056
13284TIP3    H261344   5.927   0.059  16.321  1.2399 -0.7383 -0.2228
13285TIP3   OH261345   5.985   6.398  13.507 -0.1237 -0.1214  0.1034
13285TIP3    H161346   5.960   6.306  13.493  4.7084 -1.6238  0.5399
13285TIP3    H261347   5.994   6.434  13.418  0.5415 -0.8331 -0.1213
13286TIP3   OH261348   2.476   1.077  12.726  0.1125  0.6340 -0.1786
13286TIP3    H161349   2.449   1.147  12.667  0.4863  0.0225 -1.0889
13286TIP3    H261350   2.463   0.996  12.676  2.4311  0.2436 -0.2169
13287TIP3   OH261351   6.422   0.668   0.306 -0.2990 -0.4721  0.4432
13287TIP3    H161352   6.503   0.671   0.255  0.7204 -1.1312  2.0016
13287TIP3    H261353   6.401   0.574   0.311 -1.3187 -0.2869 -0.1854
13288TIP3   OH261354   3.047   1.573  15.447 -0.1473 -0.1136  0.5953
13288TIP3    H161355   3.138   1.544  15.456 -0.4985 -0.8464  1.8026
13288TIP3    H261356   3.046   1.623  15.365  0.8439 -2.0294 -0.6318
13289TIP3   OH261357   0.445   2.878   3.349  0.5904  0.4121  0.1549
13289TIP3    H161358   0.417   2.969   3.351 -1.5521 -0.1987 -0.5708
13289TIP3    H261359   0.366   2.829   3.330  1.7695 -1.5924  0.2443
13290TIP3   OH261360   6.121   1.545   2.663  0.0649 -0.1157  0.0411
13290TIP3    H161361   6.050   1.499   2.707  0.7053 -0.8716  0.2909
13290TIP3    H261362   6.095   1.546   2.570 -0.7788  0.5652  0.2763
13291TIP3   OH261363   4.970   0.779   3.218  0.1913 -0.1954 -0.3213
13291TIP3    H161364   4.910   0.711   3.189  0.8570 -0.2598 -1.5920
13291TIP3    H261365   4.913   0.848   3.253 -0.5679 -0.6356 -0.6799
13292TIP3   OH261366   4.902   4.498  14.222  0.2082  0.3259 -0.1304
13292TIP3    H161367   4.992   4.482  14.194  0.4850 -0.1764  1.0148
13292TIP3    H261368   4.850   4.489  14.143  1.0947 -0.0310 -0.6728
13293TIP3   OH261369   3.900   4.397   0.402 -0.9069 -0.5771  0.5727
13293TIP3    H161370   3.871   4.456   0.471 -0.7578  2.0788 -1.5247
13293TIP3    H261371   3.860   4.432   0.322  1.8872 -1.3504 -1.2458
13294TIP3   OH261372   5.557   1.356  13.996  0.5812 -0.1958  0.2262
13294TIP3    H161373   5.508   1.304  14.059 -0.4444  0.3574 -0.1053
13294TIP3    H261374   5.588   1.431  14.046  1.4389 -0.7436  0.5293
13295TIP3   OH261375   0.732   4.429   5.149 -0.6229  0.3352  0.2039
13295TIP3    H161376   0.637   4.424   5.152 -0.6374  0.7107  0.3867
13295TIP3    H261377   0.751   4.514   5.110 -0.3667 -0.8777 -2.4157
13296TIP3   OH261378   3.021   4.791  16.619  0.6032  0.2648 -0.3537
13296TIP3    H161379   3.101   4.762  16.663 -0.0542 -0.1203  0.6026
13296TIP3    H261380   3.048   4.868  16.570  2.2367 -1.5766 -2.4431
13297TIP3   OH261381   0.938   1.866  15.500  0.2224  0.4103 -0.3473
13297TIP3    H161382   0.994   1.882  15.576  1.1052 -4.6028  0.2737
13297TIP3    H261383   0.849   1.885  15.531  0.7258 -0.1491  1.5383
13298TIP3   OH261384   2.866   4.313  14.781  0.4198  0.2027 -0.2504
13298TIP3    H161385   2.808   4.239  14.767 -0.5144  0.9583 -0.3699
13298TIP3    H261386   2.855   4.368  14.704  2.0710 -0.1503 -0.7716
13299TIP3   OH261387   6.316   1.677  12.534 -0.0267 -0.4912 -0.4838
13299TIP3    H161388   6.257   1.661  12.608  2.5164 -0.5218  1.5824
13299TIP3    H261389   6.348   1.590  12.510  2.4057 -0.1062  1.1794
13300TIP3   OH261390   5.900   0.268   0.127  0.2356  0.0157 -0.1302
13300TIP3    H161391   5.920   0.190   0.076  3.3288 -0.1626  1.3050
13300TIP3    H261392   5.814   0.250   0.167 -0.2988 -1.5096 -1.9187
13301TIP3   OH261393   3.047   3.833   2.635 -0.5068 -0.9206 -0.3066
13301TIP3    H161394   3.124   3.790   2.671 -0.6815  0.8564  2.3014
13301TIP3    H261395   2.972   3.791   2.678 -0.8321 -0.2302 -0.1923
13302TIP3   OH261396   1.875   3.378  17.172 -0.2173 -0.2179  0.3109
13302TIP3    H161397   1.882   3.286  17.198 -1.4667 -0.4010  0.0007
13302TIP3    H261398   1.841   3.423  17.249  0.1259 -0.0603  0.3698
13303TIP3   OH261399   4.636   4.869   1.072  0.6179  0.3636 -0.5655
13303TIP3    H161400   4.590   4.798   1.116 -0.9692  2.5857  1.4958
13303TIP3    H261401   4.727   4.861   1.101  0.0193  0.4403  1.3672
13304TIP3   OH261402   6.329   2.575   0.471  0.0423  0.1274  0.1016
13304TIP3    H161403   6.381   2.500   0.500 -0.2673 -0.0556  0.1809
13304TIP3    H261404   6.368   2.601   0.388  0.8929  0.6049  0.6313
13305TIP3   OH261405   4.399   2.071   2.183  0.3821  0.4318  0.0231
13305TIP3    H161406   4.378   2.000   2.244  0.5162 -0.5036 -1.0048
13305TIP3    H261407   4.446   2.136   2.236  1.8041 -1.0395  0.5943
13306TIP3   OH261408   4.746   2.202   6.668  0.5784  0.6070  0.0384
13306TIP3    H161409   4.696   2.145   6.610  1.1760 -0.7242  0.8022
13306TIP3    H261410   4.720   2.176   6.757  1.1164  1.2943  0.4125
13307TIP3   OH261411   6.710   6.043  11.552 -0.4410 -0.0699  0.8523
13307TIP3    H161412   6.791   6.085  11.522 -1.3407  0.8670 -0.3288
13307TIP3    H261413   6.685   6.092  11.629 -0.5398  0.4353  0.5022
13308TIP3   OH261414   4.282   1.518  11.834  0.0042  0.3747 -0.3866
13308TIP3    H161415   4.295   1.588  11.770 -2.4435  0.2028 -1.1099
13308TIP3    H261416   4.305   1.558  11.918 -0.4621  1.7697 -0.9133
13309TIP3   OH261417   4.088   4.410  10.949  0.5361 -0.0822 -0.3018
13309TIP3    H161418   3.999   4.405  10.916 -0.0783 -0.8239  1.3858
13309TIP3    H261419   4.080   4.456  11.033  1.3429 -2.3931  1.0936
13310TIP3   OH261420   3.754   6.087  13.302  0.2425 -0.2830 -0.0315
13310TIP3    H161421   3.745   6.133  13.219  0.6792 -1.5629 -0.7955
13310TIP3    H261422   3.799   6.150  13.359 -0.0140  0.5836 -0.7657
13311TIP3   OH261423   0.012   4.211  17.163  0.0662 -0.0525  0.6158
13311TIP3    H161424   0.093   4.263  17.161 -0.6500  1.1433  1.5372
13311TIP3    H261425  -0.057   4.275  17.181 -1.0003 -1.1646  0.5589
13312TIP3   OH261426   1.810   1.701   4.064  0.1026  0.1778  0.9758
13312TIP3    H161427   1.758   1.651   4.002  1.4251 -0.5954  0.4625
13312TIP3    H261428   1.752   1.713   4.139 -0.8794 -0.4920  0.3435
13313TIP3   OH261429   4.059   0.590  17.153 -0.3206 -0.0135  0.9066
13313TIP3    H161430   4.022   0.672  17.184 -0.6235 -0.1406  0.8878
13313TIP3    H261431   4.122   0.616  17.085  0.3291  0.2620  1.6081
13314TIP3   OH261432   2.461   0.170   5.953  0.3861 -0.2955  0.7254
13314TIP3    H161433   2.475   0.229   5.879  1.4883 -0.6709  0.6182
13314TIP3    H261434   2.476   0.082   5.918 -2.1974 -0.7373  0.6545
13315TIP3   OH261435   4.563   1.443  15.249  0.5988 -0.7018  0.3953
13315TIP3    H161436   4.534   1.532  15.267  1.1135 -0.1002 -1.6643
13315TIP3    H261437   4.525   1.390  15.320 -0.4840  0.9884  1.0914
13316TIP3   OH261438   0.066   3.473   4.721  0.5550  0.1044  0.5880
13316TIP3    H161439   0.132   3.412   4.687 -0.5416 -2.0153  2.1043
13316TIP3    H261440   0.113   3.526   4.784  1.2467 -0.0734  0.2293
13317TIP3   OH261441   1.256   1.176   0.483 -0.0830 -0.5825  0.1628
13317TIP3    H161442   1.199   1.194   0.559 -0.1266 -1.7157  0.4096
13317TIP3    H261443   1.339   1.149   0.522 -0.2811 -1.7104 -0.1828
13318TIP3   OH261444   2.636   4.320   5.307 -0.1531 -0.0443 -0.4927
13318TIP3    H161445   2.649   4.360   5.393 -0.3860  0.2875 -0.6112
13318TIP3    H261446   2.574   4.249   5.322  0.0874 -0.2180 -0.3212
13319TIP3   OH261447   2.245   3.513   2.932 -0.0283  0.2849 -0.4851
13319TIP3    H161448   2.289   3.447   2.986 -1.0152 -1.1603 -1.4428
13319TIP3    H261449   2.153   3.506   2.955 -0.5519 -0.7537 -2.7587
13320TIP3   OH261450   3.784   2.994  11.468  0.3582 -0.5562  0.2320
13320TIP3    H161451   3.708   3.036  11.426  1.1759  0.1956 -0.5375
13320TIP3    H261452   3.770   2.900  11.456 -0.8005 -0.4494  0.7156
13321TIP3   OH261453   0.176   5.072  13.138  0.6998 -0.0598 -0.0016
13321TIP3    H161454   0.087   5.105  13.124  0.2930 -2.1996 -2.9641
13321TIP3    H261455   0.164   4.978  13.155  2.4222 -0.4082 -0.6236
13322TIP3   OH261456   5.348   1.289  14.184  0.0804  0.4325  0.2747
13322TIP3    H161457   5.374   1.223  14.249 -1.3764 -0.8789 -0.4254
13322TIP3    H261458   5.339   1.370  14.234  2.6643  0.2919  1.0136
13323TIP3   OH261459   0.440   1.020   5.134  0.7912 -0.5155 -0.8830
13323TIP3    H161460   0.528   0.982   5.127  0.4480 -1.6325  0.6377
13323TIP3    H261461   0.455   1.113   5.152  1.6562 -0.4571 -1.9071
13324TIP3   OH261462   3.235   6.425   2.552  0.5338  0.2185 -0.1940
13324TIP3    H161463   3.263   6.440   2.462 -1.6958 -0.0059 -0.9426
13324TIP3    H261464   3.264   6.503   2.599 -1.2312  1.8715 -1.7908
13325TIP3   OH261465   1.861   6.271  10.549 -0.0272  0.6012 -0.2478
13325TIP3    H161466   1.937   6.245  10.496  0.1593  0.1791  0.2198
13325TIP3    H261467   1.831   6.189  10.588 -0.9951  0.6965 -0.7785
13326TIP3   OH261468   6.339   4.634   1.835  0.3193 -0.3187  0.0649
13326TIP3    H161469   6.365   4.610   1.746 -0.3169 -0.3311 -0.1255
13326TIP3    H261470   6.246   4.613   1.838  0.1589  0.4283  0.4759
13327TIP3   OH261471   3.142   2.884  15.960 -0.2900  1.5120  0.4374
13327TIP3    H161472   3.204   2.943  16.003  0.6110  0.6894  0.3004
13327TIP3    H261473   3.173   2.880  15.870  0.7556 -0.5674  0.8542
13328TIP3   OH261474   5.276   6.574   1.729 -0.3786 -0.0397  0.1336
13328TIP3    H161475   5.207   6.523   1.686 -1.4794  1.0081  0.6411
13328TIP3    H261476   5.339   6.592   1.659  0.3906 -2.6376  0.0796
13329TIP3   OH261477   6.740   1.111  15.855  0.4336  0.3660 -0.4201
13329TIP3    H161478   6.668   1.100  15.916 -0.0946  1.7349 -0.8012
13329TIP3    H261479   6.808   1.156  15.905  0.5886  0.1112 -0.3983
13330TIP3   OH261480   6.654   0.961   5.767 -0.0694 -0.6002 -0.1973
13330TIP3    H161481   6.686   1.048   5.744 -1.3445  0.3334  1.4198
13330TIP3    H261482   6.622   0.970   5.857 -1.1403 -2.4891 -0.3529
13331TIP3   OH261483   0.927   6.351  15.521 -0.0697 -0.3856 -0.4025
13331TIP3    H161484   0.837   6.355  15.552  0.2745  0.6202  0.5230
13331TIP3    H261485   0.959   6.441  15.529  0.1326 -0.1515 -3.4339
13332TIP3   OH261486   2.099   0.656  14.690 -0.1102 -0.6567  0.2130
13332TIP3    H161487   2.060   0.605  14.762  1.1877 -1.4970  0.3288
13332TIP3    H261488   2.188   0.673  14.719 -0.0673  0.3813 -0.5144
13333TIP3   OH261489   6.701   6.519   1.730 -0.1192  0.2227  0.3156
13333TIP3    H161490   6.716   6.465   1.652  2.6031 -0.2406  1.0941
13333TIP3    H261491   6.760   6.594   1.718  0.6738 -0.0822  2.1158
13334TIP3   OH261492   3.163   1.171   3.964 -0.5517 -0.1232 -0.4745
13334TIP3    H161493   3.205   1.193   3.881  0.1998  0.3819  0.0362
13334TIP3    H261494   3.077   1.213   3.959  0.2444  1.5607 -0.1822
13335TIP3   OH261495   1.031   4.028  12.467 -0.0475  0.0197 -0.6932
13335TIP3    H161496   0.992   4.085  12.401  0.0453  1.1946  0.2405
13335TIP3    H261497   0.999   3.941  12.446 -4.2905  1.0968  0.8076
13336TIP3   OH261498   5.219   2.126  14.594  0.3212 -0.3575 -0.2301
13336TIP3    H161499   5.185   2.185  14.661  0.0336 -0.0657 -0.6277
13336TIP3    H261500   5.188   2.163  14.511  3.3439  1.1127 -0.7649
13337TIP3   OH261501   1.882   6.039   4.723 -0.5461  0.0544  0.3601
13337TIP3    H161502   1.969   6.040   4.764  0.4058  1.1633 -1.5621
13337TIP3    H261503   1.900   6.019   4.631 -2.2134  1.3577 -0.2741
13338TIP3   OH261504   0.757   0.974  15.608  0.2102  0.8349  0.3768
13338TIP3    H161505   0.723   0.952  15.522  0.3671 -0.5758  0.6595
13338TIP3    H261506   0.787   0.891  15.644  2.2311  1.7544  0.8883
13339TIP3   OH261507   2.577   6.115  13.736 -0.0983  0.1848  0.2210
13339TIP3    H161508   2.547   6.194  13.782  0.5068  0.9434 -0.6487
13339TIP3    H261509   2.623   6.064  13.802  0.1553  0.9245  0.6263
13340TIP3   OH261510   6.492   4.013   2.390 -0.3731  0.1588 -0.2998
13340TIP3    H161511   6.569   4.053   2.430  0.2023 -0.5420 -0.6826
13340TIP3    H261512   6.525   3.971   2.311 -0.9917 -0.8489 -0.0397
13341TIP3   OH261513   3.959   2.664  13.324  0.3013 -0.0136 -0.4841
13341TIP3    H161514   4.008   2.711  13.257 -1.1967  1.1180 -0.8092
13341TIP3    H261515   3.874   2.645  13.283 -0.6150  0.6567  1.0753
13342TIP3   OH261516   3.842   5.592  15.284 -0.0252 -0.0440 -0.0727
13342TIP3    H161517   3.915   5.653  15.292 -0.0848 -0.0338  0.3910
13342TIP3    H261518   3.775   5.627  15.343 -0.2497 -0.2764 -0.1875
13343TIP3   OH261519   3.534   3.294  15.713 -0.0124 -0.7818 -0.7499
13343TIP3    H161520   3.498   3.355  15.778  1.5024 -2.2036  1.5089
13343TIP3    H261521   3.611   3.339  15.678 -1.5840  0.5517 -2.6149
13344TIP3   OH261522   1.504   4.453  13.311  0.8202 -0.7377 -0.8758
13344TIP3    H161523   1.419   4.433  13.274  0.7283 -0.6060 -0.7365
13344TIP3    H261524   1.552   4.370  13.310  0.7097 -0.7993 -1.0041
13345TIP3   OH261525   1.826   5.249   1.132 -0.0913  0.3088 -0.5838
13345TIP3    H161526   1.743   5.279   1.096 -1.7049 -3.6133 -0.4553
13345TIP3    H261527   1.804   5.212   1.217  2.1336  1.0350  0.3569
13346TIP3   OH261528   2.786   0.732   0.160 -0.2135  0.0334 -0.2468
13346TIP3    H161529   2.732   0.751   0.237 -0.3858 -2.7019  0.3688
13346TIP3    H261530   2.868   0.779   0.175 -0.2071 -0.5663  1.6723
13347TIP3   OH261531   2.349   4.981   0.902  0.7916  0.2162 -0.5746
13347TIP3    H161532   2.391   5.012   0.821 -0.7725  2.1825 -0.6588
13347TIP3    H261533   2.422   4.962   0.961  1.8994  0.2429 -1.9100
13348TIP3   OH261534   0.554   2.081   5.402  0.3732  0.3656  0.1099
13348TIP3    H161535   0.568   1.989   5.426  1.2975 -0.0515 -1.9529
13348TIP3    H261536   0.481   2.078   5.340  0.6701  1.0051 -0.2623
13349TIP3   OH261537   6.726   0.101   0.151  0.3234  0.0469 -0.4949
13349TIP3    H161538   6.810   0.145   0.144  0.2866  0.6755  2.1356
13349TIP3    H261539   6.747   0.012   0.180  0.0838  0.5778  1.4250
13350TIP3   OH261540   0.193   4.048   6.956  0.7428  0.3890 -0.0849
13350TIP3    H161541   0.236   4.075   6.875  0.2379 -1.8488 -1.1444
13350TIP3    H261542   0.225   3.959   6.972 -0.6750  0.0642  1.0818
13351TIP3   OH261543   4.893   1.682   1.667 -0.2905  0.3079  0.0365
13351TIP3    H161544   4.837   1.744   1.713  1.1752  0.4587  1.6793
13351TIP3    H261545   4.876   1.598   1.709  0.0056  0.1789 -0.0972
13352TIP3   OH261546   6.780   4.209  13.858  0.0053  0.3964  0.4104
13352TIP3    H161547   6.685   4.214  13.847 -0.1733  0.2553  1.7386
13352TIP3    H261548   6.805   4.127  13.817 -0.5047  0.2506  0.3904
13353TIP3   OH261549   3.134   4.936  13.628  0.0895 -0.2105 -0.3137
13353TIP3    H161550   3.070   4.903  13.690 -0.2245  0.0851 -0.4783
13353TIP3    H261551   3.130   5.032  13.638  0.7553 -0.2036 -0.0687
13354TIP3   OH261552   1.663   3.500  16.693  0.5546 -0.2206  0.0172
13354TIP3    H161553   1.720   3.440  16.645  1.8807  0.0645  1.1845
13354TIP3    H261554   1.673   3.473  16.785 -1.4182 -0.3444  0.2050
13355TIP3   OH261555   5.997   6.156  13.965 -0.6475 -0.2928  0.3168
13355TIP3    H161556   6.092   6.160  13.978 -0.9691 -0.4615  2.9821
13355TIP3    H261557   5.986   6.105  13.885  1.5127 -0.0936 -0.1403
13356TIP3   OH261558   5.071   3.610  12.942  0.2150 -0.2391 -0.0546
13356TIP3    H161559   5.038   3.524  12.919 -1.3125 -0.2598  2.0805
13356TIP3    H261560   5.132   3.594  13.014 -1.7530  0.6382  1.8587
13357TIP3   OH261561   4.606   3.868  15.929  0.0926 -0.0223 -0.5647
13357TIP3    H161562   4.517   3.888  15.957  0.6822  2.6195 -0.4211
13357TIP3    H261563   4.597   3.791  15.873 -2.2047 -0.1246 -0.0984
13358TIP3   OH261564   1.318   5.756   4.510  0.0607  0.2333 -0.1639
13358TIP3    H161565   1.364   5.838   4.525  1.4535 -0.3080 -1.3955
13358TIP3    H261566   1.318   5.712   4.595 -0.2962  1.3025  0.3909
13359TIP3   OH261567   2.577   2.373   4.408 -0.3831 -0.0338 -0.1052
13359TIP3    H161568   2.636   2.400   4.478 -0.0177 -1.7779  0.2939
13359TIP3    H261569   2.635   2.340   4.339 -0.8163 -0.0283 -0.4717
13360TIP3   OH261570   3.440   3.184   1.134 -0.4992 -0.2132  0.1864
13360TIP3    H161571   3.415   3.249   1.068  0.0014 -0.3898 -0.1785
13360TIP3    H261572   3.367   3.122   1.135 -1.0766  0.4687  0.6864
13361TIP3   OH261573   5.261   4.980  11.775 -0.4893 -0.2218 -0.4889
13361TIP3    H161574   5.220   4.926  11.843  0.3196 -0.1257  0.0773
13361TIP3    H261575   5.276   5.065  11.817 -0.3370 -0.0413 -0.9044
13362TIP3   OH261576   5.772   0.542   5.331 -0.5361  0.1723 -0.5024
13362TIP3    H161577   5.737   0.589   5.406  0.4306  0.0947  0.0092
13362TIP3    H261578   5.807   0.461   5.368  2.1851  1.2304 -0.6325
13363TIP3   OH261579   2.001   5.057   5.156  0.0834  0.2420 -0.4006
13363TIP3    H161580   1.916   5.016   5.172  0.0002  0.8320  0.6877
13363TIP3    H261581   2.062   5.006   5.209  0.2544  0.4325 -0.4158
13364TIP3   OH261582   5.784   2.908   6.585  0.3371 -0.4638 -0.1452
13364TIP3    H161583   5.739   2.891   6.668 -0.1578  2.9028  0.3622
13364TIP3    H261584   5.732   2.861   6.519  0.7381 -3.1593  1.4310
13365TIP3   OH261585   0.736   5.427   2.075  0.0871  0.5416  0.2747
13365TIP3    H161586   0.808   5.364   2.070  0.3463  0.8515  0.1052
13365TIP3    H261587   0.726   5.444   2.168  1.0624  1.4496  0.2241
13366TIP3   OH261588   6.204   6.711  13.389  0.0888 -0.4361 -0.2593
13366TIP3    H161589   6.272   6.660  13.344  0.7514  0.3480 -0.1625
13366TIP3    H261590   6.247   6.745  13.467 -0.6218 -0.5086  0.1666
13367TIP3   OH261591   4.597   5.129   6.370 -0.4284  0.3352  0.1382
13367TIP3    H161592   4.635   5.149   6.456  0.3865 -1.0096  0.1216
13367TIP3    H261593   4.609   5.209   6.319  2.5153 -0.0498  0.1095
13368TIP3   OH261594   1.175   4.976   2.491 -0.0315  0.0282 -0.1444
13368TIP3    H161595   1.264   4.987   2.457  0.0308 -0.3137 -0.1029
13368TIP3    H261596   1.135   5.062   2.484  0.1454  0.0718 -0.6156
13369TIP3   OH261597   4.600   5.471   5.373  0.6645 -0.0868  0.0572
13369TIP3    H161598   4.656   5.415   5.319 -2.3736 -2.4279 -0.8383
13369TIP3    H261599   4.523   5.417   5.391 -0.7682  2.5814  2.2414
13370TIP3   OH261600   3.933   3.095  12.173  0.2022  0.2015  0.1030
13370TIP3    H161601   3.896   3.021  12.125  0.8054 -0.2612  0.3414
13370TIP3    H261602   3.874   3.168  12.153  0.5217  0.0606 -1.4511
13371TIP3   OH261603   3.056   4.081   4.441 -0.1123  0.3817 -0.0060
13371TIP3    H161604   3.025   4.167   4.466  0.9909  0.6993  0.3149
13371TIP3    H261605   3.104   4.049   4.518 -0.7726 -0.6425 -0.0105
13372TIP3   OH261606   4.422   0.406  11.048  0.3989  0.3166 -0.4311
13372TIP3    H161607   4.432   0.314  11.075 -1.2980  0.3658  0.4469
13372TIP3    H261608   4.341   0.406  10.996 -0.2101  1.4898  0.4931
13373TIP3   OH261609   2.925   6.664  13.910  0.0235  0.0392  0.0738
13373TIP3    H161610   2.906   6.732  13.974 -3.4132 -2.9781  2.4620
13373TIP3    H261611   2.936   6.585  13.961  1.6081 -1.6864 -2.7976
13374TIP3   OH261612   4.782   5.518   2.560  0.4018 -0.4268  0.1428
13374TIP3    H161613   4.777   5.504   2.465  1.0820  0.5905 -0.0449
13374TIP3    H261614   4.731   5.446   2.597 -2.1906  0.7346 -1.0819
13375TIP3   OH261615   1.956   2.700   0.957 -0.3526 -0.0638  0.3129
13375TIP3    H161616   1.931   2.758   0.885 -0.2473 -1.4591 -0.8656
13375TIP3    H261617   2.045   2.726   0.979 -0.7223  0.9921  0.5616
13376TIP3   OH261618   1.441   2.581  16.753  0.1228  0.5607  0.3906
13376TIP3    H161619   1.464   2.489  16.764  0.7313  0.6150 -0.4005
13376TIP3    H261620   1.520   2.628  16.782 -0.0135  0.8189  0.3406
13377TIP3   OH261621   5.562   0.259   4.748 -0.0870 -0.1384 -0.2093
13377TIP3    H161622   5.647   0.256   4.705  0.6319 -1.7957  1.2846
13377TIP3    H261623   5.546   0.352   4.763  0.9716  0.2531 -1.4128
13378TIP3   OH261624   6.260   5.426   4.306 -0.1573  0.2241  0.0169
13378TIP3    H161625   6.283   5.492   4.371 -0.9864  0.5010  0.0335
13378TIP3    H261626   6.234   5.476   4.229  1.5814 -0.1014 -0.8180
13379TIP3   OH261627   4.815   1.029  15.265 -0.0066 -0.0765 -0.6101
13379TIP3    H161628   4.898   1.041  15.220  0.3219  2.1064  0.5093
13379TIP3    H261629   4.838   0.982  15.345  0.0638  0.0282 -0.5697
13380TIP3   OH261630   5.471   6.241   4.678  0.1978 -0.7180 -0.4291
13380TIP3    H161631   5.493   6.306   4.745  0.4295  0.8240 -1.9687
13380TIP3    H261632   5.375   6.243   4.674  0.1851 -0.7976 -0.1446
13381TIP3   OH261633   4.144   2.596   3.591  0.5121 -0.2516 -0.1406
13381TIP3    H161634   4.239   2.603   3.579  0.4617 -1.4858 -1.3342
13381TIP3    H261635   4.113   2.552   3.512 -0.8565 -1.3006  0.9553
13382TIP3   OH261636   4.552   4.719   0.114 -0.3676 -0.3997  0.2662
13382TIP3    H161637   4.487   4.692   0.049 -1.0782  0.3907  0.6231
13382TIP3    H261638   4.531   4.667   0.192 -1.6311  1.0232  0.9010
13383TIP3   OH261639   0.622   4.812   0.636  0.3824 -0.2680 -0.2360
13383TIP3    H161640   0.527   4.816   0.629  0.4052  2.0883  0.3259
13383TIP3    H261641   0.652   4.894   0.596  2.3993 -2.6290 -3.8447
13384TIP3   OH261642   4.865   0.567  15.105  0.0195  0.7289 -1.0230
13384TIP3    H161643   4.814   0.614  15.039 -1.1574 -0.1438 -0.7462
13384TIP3    H261644   4.802   0.512  15.150  1.3271 -1.0511 -1.2681
13385TIP3   OH261645   6.393   1.055   1.945 -0.3954 -0.7806 -0.4891
13385TIP3    H161646   6.446   1.005   1.882 -0.9345 -0.4719 -1.1979
13385TIP3    H261647   6.413   1.146   1.926  0.4925 -0.7118  0.7227
13386TIP3   OH261648   1.900   4.512  12.279 -0.0619 -0.1337  0.1824
13386TIP3    H161649   1.817   4.465  12.283  0.0478 -0.4636 -1.2895
13386TIP3    H261650   1.956   4.466  12.341 -0.1591 -1.5715 -0.7605
13387TIP3   OH261651   6.512   4.004   4.741  0.5990  0.5198  0.1684
13387TIP3    H161652   6.508   3.974   4.832  0.5471  1.7910  0.5886
13387TIP3    H261653   6.421   4.020   4.717  0.4004 -1.7890 -0.8000
13388TIP3   OH261654   2.918   6.416  16.889 -0.2908 -0.5483  0.1784
13388TIP3    H161655   2.897   6.509  16.886 -1.1729 -0.7854 -1.2442
13388TIP3    H261656   2.867   6.377  16.818 -1.0036 -2.3254  1.6101
13389TIP3   OH261657   0.046   6.003  16.392  0.2944 -0.2138  0.3021
13389TIP3    H161658   0.010   5.961  16.470  0.4721  0.9719  1.0452
13389TIP3    H261659   0.127   5.955  16.374  0.8856  0.2857  1.5859
13390TIP3   OH261660   1.096   3.136  16.104 -0.0230 -0.0432  0.0268
13390TIP3    H161661   1.138   3.123  16.189 -0.2010  0.0265  0.1236
13390TIP3    H261662   1.136   3.215  16.069 -0.5132  0.3636  0.3858
13391TIP3   OH261663   3.721   3.064  15.164 -0.2359  0.5655 -0.3007
13391TIP3    H161664   3.670   2.983  15.171  0.4109  0.3200  2.4611
13391TIP3    H261665   3.789   3.045  15.100  1.0735 -1.7990  1.6882
13392TIP3   OH261666   3.620   0.163   5.395 -0.0415  0.0005  0.5193
13392TIP3    H161667   3.536   0.209   5.402 -0.1194  0.4303 -2.3268
13392TIP3    H261668   3.613   0.114   5.313  1.1245 -2.8677  2.0993
13393TIP3   OH261669   3.639   5.452  13.011 -0.1246  0.4357  0.3851
13393TIP3    H161670   3.707   5.421  13.070  0.2822 -0.5844 -0.6029
13393TIP3    H261671   3.670   5.428  12.924 -0.4912  2.3414 -0.2938
13394TIP3   OH261672   0.315   2.672  16.377 -0.2936 -0.0716  0.5101
13394TIP3    H161673   0.243   2.639  16.430  0.7257 -1.4366  1.0866
13394TIP3    H261674   0.359   2.737  16.433  0.0241 -0.5863  0.8598
13395TIP3   OH261675   3.919   6.203  12.897 -0.5015 -0.0099  0.3490
13395TIP3    H161676   3.903   6.267  12.827  1.7350 -0.4945 -0.6459
13395TIP3    H261677   3.939   6.121  12.851  1.5569 -0.2020  1.5175
13396TIP3   OH261678   1.109   1.597   5.855 -0.1905  0.1829 -0.1563
13396TIP3    H161679   1.188   1.578   5.905 -0.2493 -1.5841 -0.6965
13396TIP3    H261680   1.038   1.598   5.919  0.2851  2.1004  0.3787
13397TIP3   OH261681   1.875   4.928   4.219 -0.1828 -0.1295  0.5199
13397TIP3    H161682   1.929   4.875   4.161 -0.8131 -0.8734  0.5969
13397TIP3    H261683   1.785   4.912   4.189 -0.4230  0.4084  0.9438
13398TIP3   OH261684   3.663   0.133   6.152 -0.0538 -0.3151  0.3273
13398TIP3    H161685   3.633   0.177   6.232  1.4382  1.8343 -0.2477
13398TIP3    H261686   3.735   0.076   6.181 -0.8339 -1.0636  0.8086
13399TIP3   OH261687   2.834   0.257  10.814  0.5848 -0.5026 -0.2330
13399TIP3    H161688   2.874   0.171  10.827  1.6825 -0.3326 -2.3310
13399TIP3    H261689   2.866   0.286  10.729 -1.7792  0.8769 -0.7132
13400TIP3   OH261690   3.805   6.670   0.301  0.2035  0.3239  0.2658
13400TIP3    H161691   3.758   6.742   0.258  1.3726  0.9044 -0.0630
13400TIP3    H261692   3.855   6.713   0.371 -0.0718 -0.3394  0.8712
13401TIP3   OH261693   4.688   1.547   0.994 -0.1151  0.1048  0.2411
13401TIP3    H161694   4.781   1.525   1.003  0.0615  1.4764  1.8432
13401TIP3    H261695   4.666   1.596   1.073 -2.1043  0.1828 -0.3242
13402TIP3   OH261696   4.116   4.758  14.437  0.0011  0.4279 -0.4990
13402TIP3    H161697   4.086   4.842  14.402  1.4846  1.5378  0.7863
13402TIP3    H261698   4.207   4.752  14.408  0.3050 -0.1055  0.5437
13403TIP3   OH261699   0.045   0.275   3.105  0.1295  0.2942  0.0567
13403TIP3    H161700  -0.040   0.276   3.150  0.0625  1.9943 -0.0431
13403TIP3    H261701   0.086   0.358   3.130  1.3168 -0.0452 -0.7210
13404TIP3   OH261702   5.650   2.616  11.605  0.5843 -0.2978  0.3806
13404TIP3    H161703   5.637   2.627  11.700  0.5326 -2.2389  0.6015
13404TIP3    H261704   5.607   2.533  11.584  0.5035  0.1701 -1.3785
13405TIP3   OH261705   1.626   2.397  12.873  0.0781  0.4550 -0.1823
13405TIP3    H161706   1.559   2.344  12.917  2.5505 -4.1304 -1.7373
13405TIP3    H261707   1.671   2.442  12.944  0.0291 -2.0697  1.4898
13406TIP3   OH261708   0.941   5.645  14.048  0.3387  0.5567 -0.0639
13406TIP3    H161709   0.999   5.712  14.085  1.0476  0.4181 -0.9021
13406TIP3    H261710   0.907   5.684  13.968 -0.5047  0.5181  0.2670
13407TIP3   OH261711   2.546   1.090   5.953 -0.1777  1.0933 -0.5832
13407TIP3    H161712   2.637   1.118   5.968  0.3206  0.0330 -1.5961
13407TIP3    H261713   2.535   1.014   6.010 -0.3187  0.9876 -0.7531
13408TIP3   OH261714   4.129   2.297  16.281 -0.4982 -0.9891 -0.7396
13408TIP3    H161715   4.214   2.337  16.259 -0.7773  1.0866  1.7139
13408TIP3    H261716   4.152   2.223  16.338 -0.2385 -1.5636 -1.5841
13409TIP3   OH261717   5.953   2.883  16.759 -0.3597 -0.2325  0.6005
13409TIP3    H161718   5.902   2.825  16.816 -2.2379 -0.3613 -1.1599
13409TIP3    H261719   5.899   2.961  16.749  1.1494  0.9013  1.1021
13410TIP3   OH261720   4.673   4.960  11.880  0.2875  0.6510 -0.3399
13410TIP3    H161721   4.708   4.983  11.966 -0.6535  1.5999 -0.2005
13410TIP3    H261722   4.601   5.022  11.866 -2.2094 -2.0453 -0.0348
13411TIP3   OH261723   1.336   1.848   2.399 -0.4527  0.1018  0.1313
13411TIP3    H161724   1.274   1.918   2.423 -1.8147 -1.0201 -0.0283
13411TIP3    H261725   1.290   1.767   2.423  1.3126 -0.7235  0.7720
13412TIP3   OH261726   5.218   0.629   2.654 -0.2307 -0.1219  0.3133
13412TIP3    H161727   5.301   0.619   2.607  0.0381  0.6553  0.6263
13412TIP3    H261728   5.236   0.693   2.722 -1.8086  2.1637 -1.3237
13413TIP3   OH261729   2.654   1.060  13.476  0.2416 -0.6827  0.2709
13413TIP3    H161730   2.703   0.980  13.497  1.9779  0.0229 -0.9383
13413TIP3    H261731   2.693   1.090  13.394 -1.1358  0.8195  0.1562
13414TIP3   OH261732   0.021   0.799   3.977  0.5929  0.1707 -0.1664
13414TIP3    H161733   0.032   0.705   3.992  1.1218  0.3317  0.4595
13414TIP3    H261734  -0.039   0.804   3.902  0.8763 -0.6646 -0.4568
13415TIP3   OH261735   5.500   0.694  10.839 -0.0523 -0.4735  0.0192
13415TIP3    H161736   5.429   0.752  10.812 -1.1334 -1.5119  0.5999
13415TIP3    H261737   5.503   0.703  10.934  0.3466 -0.7091  0.0310
13416TIP3   OH261738   6.728   5.499   3.174 -0.5260  0.0783 -0.0808
13416TIP3    H161739   6.679   5.580   3.163  1.0461  0.8850 -1.4297
13416TIP3    H261740   6.819   5.526   3.179 -0.0866 -1.5071  0.8100
13417TIP3   OH261741   1.418   6.656  10.666  0.2987 -0.0228  0.1610
13417TIP3    H161742   1.487   6.699  10.716  1.2320 -0.5113 -0.6954
13417TIP3    H261743   1.368   6.728  10.627  1.1627  0.3193 -0.3350
13418TIP3   OH261744   3.926   1.750  12.114 -0.6572  0.3956  0.2985
13418TIP3    H161745   3.847   1.712  12.075 -0.1363  0.8681 -1.2396
13418TIP3    H261746   3.896   1.835  12.148 -0.8994  0.3994  0.0825
13419TIP3   OH261747   2.789   4.077   0.496 -0.2360  0.2116 -0.4031
13419TIP3    H161748   2.871   4.050   0.536  0.0732  0.3794 -0.9246
13419TIP3    H261749   2.801   4.171   0.477 -0.0095 -0.0847 -1.7887
13420TIP3   OH261750   0.832   2.698   4.632  0.0908  0.4451  0.2355
13420TIP3    H161751   0.753   2.754   4.633  0.1861  0.5701  1.0919
13420TIP3    H261752   0.893   2.743   4.690  0.5660  0.0147  0.0639
13421TIP3   OH261753   0.607   2.420   0.342  0.0175 -0.1785  1.2628
13421TIP3    H161754   0.659   2.493   0.311  0.1584  0.0023  1.9085
13421TIP3    H261755   0.539   2.408   0.276  0.2906  0.2195  0.9148
13422TIP3   OH261756   1.046   4.060  15.180 -0.8133  0.0364 -0.1632
13422TIP3    H161757   0.967   4.099  15.142 -1.1282 -0.5228 -0.0829
13422TIP3    H261758   1.117   4.088  15.122 -0.7378  2.4092  0.9966
13423TIP3   OH261759   2.753   5.780   1.830  0.2481 -0.1742  0.2907
13423TIP3    H161760   2.845   5.802   1.846  0.3818 -0.9967  0.7103
13423TIP3    H261761   2.753   5.740   1.743  0.5361 -1.5325  0.8926
13424TIP3   OH261762   3.684   3.309   5.922  0.3808 -0.0468  0.7510
13424TIP3    H161763   3.615   3.331   5.860  0.5462 -1.3446  0.0896
13424TIP3    H261764   3.639   3.296   6.005 -0.0636 -0.0297  0.5136
13425TIP3   OH261765   1.120   4.437   5.230 -1.0180 -0.0595 -0.3491
13425TIP3    H161766   1.119   4.502   5.159 -0.5440 -1.6119 -1.7945
13425TIP3    H261767   1.097   4.355   5.188 -0.2525 -1.0995  1.2185
13426TIP3   OH261768   4.705   6.099  14.848 -0.6771 -0.4373 -0.0591
13426TIP3    H161769   4.733   6.015  14.814 -0.2266 -0.7448  1.0407
13426TIP3    H261770   4.612   6.089  14.865 -0.8728 -0.3240 -1.0610
13427TIP3   OH261771   3.438   5.614  13.653 -0.1355  0.0188 -0.3348
13427TIP3    H161772   3.398   5.701  13.645 -1.6876 -0.6070  0.4427
13427TIP3    H261773   3.531   5.632  13.664 -0.5975  1.6563  1.2259
13428TIP3   OH261774   2.386   5.208  14.771 -0.5151  0.1099 -0.3273
13428TIP3    H161775   2.473   5.247  14.784 -0.7445  0.8234 -0.8927
13428TIP3    H261776   2.403   5.114  14.764  0.4806  0.4187 -2.5241
13429TIP3   OH261777   1.005   0.783  10.763  0.2855 -0.2268 -0.5557
13429TIP3    H161778   1.028   0.873  10.737 -1.2725  0.6983  1.1564
13429TIP3    H261779   0.912   0.774  10.739 -0.3584 -0.3725  1.8855
13430TIP3   OH261780   0.569   5.425  15.061  0.4010 -0.4297  0.0380
13430TIP3    H161781   0.595   5.515  15.083  0.8466 -0.9916  1.8572
13430TIP3    H261782   0.631   5.399  14.993 -0.0158  0.7852 -0.8320
13431TIP3   OH261783   4.203   6.777  12.643 -0.7632 -0.2673 -0.0409
13431TIP3    H161784   4.121   6.826  12.655 -1.1722 -0.7293 -0.9253
13431TIP3    H261785   4.178   6.702  12.590  0.1302 -0.7224  0.1810
13432TIP3   OH261786   5.675   1.471   0.780 -0.8062 -0.7447 -0.2656
13432TIP3    H161787   5.601   1.448   0.836 -0.2639 -0.2560  0.6880
13432TIP3    H261788   5.747   1.418   0.814 -0.1068  0.6540  0.4758
13433TIP3   OH261789   3.706   0.495   2.279 -0.4204  0.1080  0.2962
13433TIP3    H161790   3.687   0.464   2.191  0.8625  0.9261 -0.2741
13433TIP3    H261791   3.766   0.569   2.267 -1.7703  1.4804  1.7359
13434TIP3   OH261792   4.746   2.713  12.394  0.0685  0.0530  0.2239
13434TIP3    H161793   4.673   2.693  12.336  0.5936 -0.8945 -0.1184
13434TIP3    H261794   4.705   2.748  12.473 -0.7460 -0.3937  0.0072
13435TIP3   OH261795   5.688   2.121  10.664 -0.0322  0.0181  0.1755
13435TIP3    H161796   5.596   2.097  10.657  0.3769 -1.1600 -1.3456
13435TIP3    H261797   5.730   2.045  10.704  0.1856  0.8003  1.4544
13436TIP3   OH261798   0.595   6.488   1.062  0.3324  0.2599  0.1190
13436TIP3    H161799   0.643   6.543   1.125  0.4341  0.0410  0.2353
13436TIP3    H261800   0.510   6.531   1.052  1.2904  1.8029 -1.6593
13437TIP3   OH261801   4.738   1.346   6.743 -0.6729 -0.1023  0.4320
13437TIP3    H161802   4.689   1.286   6.799 -0.3748 -1.7570 -1.0258
13437TIP3    H261803   4.679   1.365   6.670 -0.6745  1.2176  0.7579
13438TIP3   OH261804   0.852   3.135  15.688 -0.7206  0.5828 -0.3324
13438TIP3    H161805   0.789   3.063  15.690  1.5908 -1.5003 -0.2223
13438TIP3    H261806   0.856   3.161  15.596  0.2630 -1.1293 -0.7976
13439TIP3   OH261807   6.788   3.539  13.690  0.0654 -0.1335  0.0015
13439TIP3    H161808   6.708   3.493  13.663  0.6448 -1.1676  0.0286
13439TIP3    H261809   6.762   3.631  13.696 -0.7502 -0.2491 -1.4775
13440TIP3   OH261810   0.853   6.395  12.212  0.3485 -0.1058 -0.0648
13440TIP3    H161811   0.772   6.365  12.253  0.1789 -2.2409 -1.8038
13440TIP3    H261812   0.825   6.461  12.149 -0.1232 -1.1213 -0.9430
13441TIP3   OH261813   2.957   5.662  15.673  0.0647 -0.2823 -0.5100
13441TIP3    H161814   2.962   5.753  15.703  0.8616 -0.7027  0.6924
13441TIP3    H261815   3.003   5.612  15.742 -1.8360 -1.7933 -0.3063
13442TIP3   OH261816   5.538   5.739  13.071 -0.4729  0.4660 -0.5866
13442TIP3    H161817   5.631   5.733  13.092 -0.8538  0.8205  1.2869
13442TIP3    H261818   5.534   5.798  12.996  0.6934  1.6711  0.2816
13443TIP3   OH261819   6.445   3.193  12.921 -0.5443 -0.1332 -0.3302
13443TIP3    H161820   6.363   3.242  12.932 -1.4744 -1.4372 -1.3345
13443TIP3    H261821   6.417   3.105  12.896  1.1046 -1.2036  1.4304
13444TIP3   OH261822   0.006   4.515   1.314  0.2137 -0.1952  0.0189
13444TIP3    H161823   0.037   4.572   1.244  1.0013 -0.2238  0.3435
13444TIP3    H261824   0.043   4.552   1.394  0.5265 -1.0196  0.2591
13445TIP3   OH261825   2.857   1.615   3.136  0.0421  0.0373 -0.2567
13445TIP3    H161826   2.868   1.705   3.167  1.1469 -0.2033  0.0778
13445TIP3    H261827   2.946   1.586   3.115 -0.4196 -0.6340 -1.3330
13446TIP3   OH261828   1.728   6.081   3.141 -0.2108 -0.1597 -0.2235
13446TIP3    H161829   1.655   6.140   3.157  0.8802  1.5681 -1.4811
13446TIP3    H261830   1.777   6.080   3.224 -0.7080  0.0192  0.0706
13447TIP3   OH261831   4.082   3.303   3.421  0.6211  0.3188 -0.4883
13447TIP3    H161832   4.141   3.359   3.473  0.9317  0.2088 -0.7195
13447TIP3    H261833   4.139   3.233   3.388  0.2083 -0.2118 -0.0866
13448TIP3   OH261834   0.734   6.466   4.949  0.3532  0.0945  0.8009
13448TIP3    H161835   0.805   6.441   5.008  0.3177 -2.1327 -0.0607
13448TIP3    H261836   0.655   6.460   5.003  0.7491  2.1855  1.6498
13449TIP3   OH261837   6.357   3.694  16.537 -0.2768 -0.3468 -0.4958
13449TIP3    H161838   6.336   3.682  16.629 -0.4684 -0.8859 -0.6056
13449TIP3    H261839   6.280   3.737  16.500 -0.9053 -1.6576 -0.7472
13450TIP3   OH261840   3.596   2.893   5.523 -0.8193 -0.0021  0.3710
13450TIP3    H161841   3.613   2.984   5.499  1.3696 -0.3726  0.4552
13450TIP3    H261842   3.578   2.849   5.440  0.7473 -0.0295  0.0353
13451TIP3   OH261843   0.630   5.152   0.834 -0.0174 -0.1934 -0.1748
13451TIP3    H161844   0.708   5.170   0.885  1.4237 -1.4255 -1.8766
13451TIP3    H261845   0.604   5.237   0.799  0.9452  0.1205 -0.1314
13452TIP3   OH261846   4.280   5.953  15.292  0.0293  0.2338  0.0409
13452TIP3    H161847   4.287   5.867  15.335  0.5918 -0.2861 -1.0594
13452TIP3    H261848   4.363   5.962  15.245 -0.8910  0.4419 -1.5696
13453TIP3   OH261849   2.687   5.734  11.685  0.8857 -0.1737  0.0110
13453TIP3    H161850   2.658   5.810  11.635  1.6682 -0.1467 -0.4082
13453TIP3    H261851   2.728   5.677  11.620  1.1154 -0.5396  0.4771
13454TIP3   OH261852   2.622   6.530  10.190 -0.2528 -0.4914  0.4728
13454TIP3    H161853   2.699   6.479  10.214 -0.7300 -1.6406 -0.4447
13454TIP3    H261854   2.564   6.468  10.146 -1.0258  0.7330 -0.2578
13455TIP3   OH261855   3.304   3.906  11.801  0.0816 -0.0340  0.3566
13455TIP3    H161856   3.396   3.879  11.796  0.3459  0.8028  0.6543
13455TIP3    H261857   3.270   3.860  11.878  0.6522  0.8112  1.1291
13456TIP3   OH261858   3.600   3.649   2.739  0.3869  0.1345  0.3924
13456TIP3    H161859   3.605   3.618   2.829  2.4779  0.1034  0.2798
13456TIP3    H261860   3.605   3.569   2.686 -0.7387  0.1611  0.2255
13457TIP3   OH261861   1.679   2.909  15.899 -0.2587  0.1890  0.1738
13457TIP3    H161862   1.591   2.939  15.877 -0.6050 -0.2291  0.9852
13457TIP3    H261863   1.694   2.833  15.843 -0.3706  0.3189 -0.0332
13458TIP3   OH261864   4.659   4.430   1.350  0.1656 -0.4922  0.5349
13458TIP3    H161865   4.595   4.360   1.339 -0.4278  0.2074 -0.5780
13458TIP3    H261866   4.645   4.462   1.439 -0.2804 -1.0798  0.6753
13459TIP3   OH261867   5.221   3.941  11.456  0.4919  0.4752  0.1752
13459TIP3    H161868   5.186   3.956  11.544  1.5842 -0.3515  0.7635
13459TIP3    H261869   5.191   4.017  11.405 -1.1114  0.3901  0.9617
13460TIP3   OH261870   0.234   0.906   1.948  0.6206 -0.3309  0.0259
13460TIP3    H161871   0.175   0.933   1.877  1.3527  1.8521  0.1986
13460TIP3    H261872   0.308   0.865   1.903  1.9014  2.5812 -0.6560
13461TIP3   OH261873   3.941   0.451   3.828 -0.2639  0.4384 -0.3503
13461TIP3    H161874   3.981   0.525   3.873  1.2185  0.3184 -1.4375
13461TIP3    H261875   3.885   0.491   3.762  1.1024  0.6166 -1.4285
13462TIP3   OH261876   1.714   1.395  12.151 -0.2575  0.1555 -0.4861
13462TIP3    H161877   1.680   1.306  12.165 -2.6564  1.0569 -0.3574
13462TIP3    H261878   1.678   1.421  12.066  0.0229  1.2209 -0.2809
13463TIP3   OH261879   3.315   5.570  12.156 -0.1802  0.5371  0.3030
13463TIP3    H161880   3.222   5.593  12.158  0.0518  1.4615  0.9545
13463TIP3    H261881   3.341   5.580  12.064 -0.3501  1.8520  0.3867
13464TIP3   OH261882   3.698   5.235  12.133  0.6347 -0.1218  0.4493
13464TIP3    H161883   3.625   5.174  12.124  1.1257 -0.8772  1.4555
13464TIP3    H261884   3.662   5.319  12.105  0.2555 -1.0514 -1.9864
13465TIP3   OH261885   4.037   4.284   5.645 -0.0502 -0.1191 -0.9952
13465TIP3    H161886   3.989   4.318   5.720 -2.1240  0.0374 -2.3514
13465TIP3    H261887   4.019   4.346   5.574  1.8442 -0.2761 -1.6657
13466TIP3   OH261888   0.865   1.440   4.676  0.4007 -0.0376 -0.3024
13466TIP3    H161889   0.786   1.386   4.679 -0.9547  1.8607 -0.8281
13466TIP3    H261890   0.928   1.388   4.627  0.2342 -2.5022  1.9795
13467TIP3   OH261891   5.512   2.786  16.787 -0.2111  0.4196 -0.3074
13467TIP3    H161892   5.486   2.870  16.823  4.0261  1.0569  1.5159
13467TIP3    H261893   5.525   2.802  16.694  2.4973  2.3497  0.3585
13468TIP3   OH261894   0.773   0.692   3.670 -0.2125 -0.1035  0.1227
13468TIP3    H161895   0.866   0.690   3.689  0.0929  0.8127 -1.1874
13468TIP3    H261896   0.760   0.624   3.604 -0.3269  0.2638 -0.2421
13469TIP3   OH261897   0.599   5.361  13.045 -0.0292  0.0239 -0.2310
13469TIP3    H161898   0.533   5.298  13.075  0.4300 -0.9279 -1.1943
13469TIP3    H261899   0.550   5.441  13.028 -0.7685 -0.3519  0.0976
13470TIP3   OH261900   4.326   0.826  11.645 -0.2343  0.7450  0.7744
13470TIP3    H161901   4.346   0.896  11.707  0.8389  1.6790 -0.5824
13470TIP3    H261902   4.350   0.746  11.690 -0.5598  1.3166  1.9868
13471TIP3   OH261903   4.511   6.171  11.557 -0.4042 -0.6025  0.3694
13471TIP3    H161904   4.591   6.221  11.574 -1.5339  1.2857  0.2774
13471TIP3    H261905   4.504   6.112  11.632 -0.3832  1.1704  1.8107
13472TIP3   OH261906   3.755   2.096  14.176  0.4352  0.1811  0.0536
13472TIP3    H161907   3.736   2.172  14.122  0.1512  0.2852  0.2981
13472TIP3    H261908   3.736   2.021  14.120  0.2370  0.2888 -0.0237
13473TIP3   OH261909   6.756   3.237  10.849  0.4264 -0.1706 -0.1910
13473TIP3    H161910   6.784   3.160  10.898  1.2876 -0.0947 -0.5550
13473TIP3    H261911   6.830   3.297  10.853 -0.9116  1.4245  1.6563
13474TIP3   OH261912   3.354   1.962   4.532 -0.0455 -0.0566 -0.0398
13474TIP3    H161913   3.428   1.994   4.481 -0.2429  0.4606 -0.0024
13474TIP3    H261914   3.287   2.030   4.524 -0.0929  0.0107  0.8802
13475TIP3   OH261915   3.873   2.302   4.611  0.2522  0.0756 -0.8604
13475TIP3    H161916   3.892   2.355   4.533 -0.1344  0.3212 -0.7908
13475TIP3    H261917   3.919   2.220   4.596  1.1178  0.5425 -0.8374
13476TIP3   OH261918   2.917   5.612  16.323  0.6882 -0.1675 -0.0568
13476TIP3    H161919   2.965   5.680  16.275  2.5754  0.7686  2.9575
13476TIP3    H261920   2.927   5.533  16.270  0.3153  1.4015 -2.5346
13477TIP3   OH261921   1.277   2.128   2.109  0.2426 -0.0474 -0.0213
13477TIP3    H161922   1.296   2.035   2.103  0.6365  0.0771 -0.8145
13477TIP3    H261923   1.266   2.156   2.018 -1.2455  0.4000  0.2751
13478TIP3   OH261924   5.768   6.616   5.646 -0.2297  0.2474 -0.0935
13478TIP3    H161925   5.814   6.590   5.567 -0.2138 -1.7663  0.5650
13478TIP3    H261926   5.829   6.678   5.689 -0.5351  1.8651 -1.9420
13479TIP3   OH261927   2.928   1.014  15.747  0.6423 -0.1530 -0.5485
13479TIP3    H161928   2.907   1.036  15.657 -1.5497 -1.3165 -0.3606
13479TIP3    H261929   2.997   1.075  15.771  0.4624  0.9236 -2.6467
13480TIP3   OH261930   1.783   2.868   4.338 -0.1092 -0.2624  0.2804
13480TIP3    H161931   1.688   2.875   4.341 -0.0158  1.4572 -0.3590
13480TIP3    H261932   1.810   2.862   4.429 -0.8010 -0.3396  0.4829
13481TIP3   OH261933   0.572   1.807  14.622 -0.5120  0.2629  0.1854
13481TIP3    H161934   0.524   1.821  14.540 -1.3944  0.1174  0.6626
13481TIP3    H261935   0.634   1.737  14.603  0.1291  1.0495 -0.6947
13482TIP3   OH261936   1.957   5.967   0.700  0.3062 -0.4701 -0.1833
13482TIP3    H161937   1.968   6.043   0.642 -0.5949  0.0218  0.2753
13482TIP3    H261938   2.032   5.911   0.681  0.6780  0.2724 -0.9368
13483TIP3   OH261939   3.264   6.355  12.207  0.2203 -0.1139  0.0635
13483TIP3    H161940   3.296   6.344  12.297 -0.6967 -0.5276  0.3345
13483TIP3    H261941   3.197   6.423  12.214  3.1992  3.0647 -0.9957
13484TIP3   OH261942   0.622   5.126   2.782 -0.2435 -0.0758  0.1136
13484TIP3    H161943   0.559   5.193   2.755 -0.5509 -0.4541 -0.1168
13484TIP3    H261944   0.569   5.059   2.825 -0.3523 -1.5872 -2.2834
13485TIP3   OH261945   0.467   1.949  16.600 -0.1314 -0.2601 -0.6230
13485TIP3    H161946   0.483   1.864  16.641  0.9426 -0.8361 -2.2061
13485TIP3    H261947   0.425   2.001  16.669  0.0341 -1.7652  0.6461
13486TIP3   OH261948   5.456   2.123  12.275  0.0881 -0.7088  0.6957
13486TIP3    H161949   5.543   2.104  12.310  0.1814 -0.3705  0.6556
13486TIP3    H261950   5.396   2.082  12.337  0.2595 -0.3543  1.0993
13487TIP3   OH261951   0.943   6.211  11.250  0.0002 -0.4703 -0.5803
13487TIP3    H161952   0.888   6.207  11.328  0.2573 -1.3574 -0.4414
13487TIP3    H261953   0.927   6.298  11.213  0.6465  0.3472  1.0232
13488TIP3   OH261954   6.359   1.386   2.895  0.3834 -0.2121  0.2968
13488TIP3    H161955   6.338   1.399   2.987  1.7046  2.0185  0.3272
13488TIP3    H261956   6.449   1.354   2.895  0.1083 -0.9925 -0.1861
13489TIP3   OH261957   0.543   3.363   5.666  0.1399 -0.2797  0.4907
13489TIP3    H161958   0.505   3.317   5.740 -1.2031 -0.1521 -0.1130
13489TIP3    H261959   0.636   3.371   5.688 -0.3676  0.3550  2.4605
13490TIP3   OH261960   3.007   6.723   2.338 -0.1471 -0.0507  0.3674
13490TIP3    H161961   3.019   6.796   2.277 -0.5788 -0.1222  0.1909
13490TIP3    H261962   3.043   6.755   2.420 -1.9855  1.0726  0.7831
13491TIP3   OH261963   3.190   0.089  13.201 -0.8786  0.5168  0.8875
13491TIP3    H161964   3.155   0.159  13.146 -0.7836 -1.5079 -1.8648
13491TIP3    H261965   3.130   0.016  13.188  0.4848 -0.7620  1.6130
13492TIP3   OH261966   1.110   6.733  10.852 -0.6671 -0.5058  0.0291
13492TIP3    H161967   1.030   6.695  10.890 -0.8162 -0.5330 -0.3045
13492TIP3    H261968   1.177   6.667  10.867 -0.4720 -0.0356  1.2398
13493TIP3   OH261969   5.596   3.348  14.948 -0.2876  0.4739  0.1347
13493TIP3    H161970   5.671   3.400  14.922  0.7483 -1.1333 -0.1679
13493TIP3    H261971   5.547   3.335  14.866  0.4171 -0.5335 -0.1358
13494TIP3   OH261972   1.619   3.228  14.311 -0.0587  0.3040  0.1911
13494TIP3    H161973   1.604   3.301  14.372  1.2118 -0.8353  1.9322
13494TIP3    H261974   1.609   3.150  14.365 -0.1948 -0.7807 -1.3889
13495TIP3   OH261975   3.493   3.520  14.201  0.0630 -0.3198 -0.2802
13495TIP3    H161976   3.455   3.507  14.288  0.9410  2.9233  0.6688
13495TIP3    H261977   3.433   3.581  14.158  1.5196  0.8979 -0.6049
13496TIP3   OH261978   4.907   0.547   2.036 -0.1275 -0.3313 -0.2421
13496TIP3    H161979   4.977   0.606   2.065  1.1526 -2.4209  1.0229
13496TIP3    H261980   4.829   0.577   2.083  0.2465  0.9952 -0.4357
13497TIP3   OH261981   4.668   6.502  11.001 -0.2711  0.4155 -0.5498
13497TIP3    H161982   4.679   6.422  10.950 -1.1578 -0.5961  0.8098
13497TIP3    H261983   4.578   6.530  10.982 -0.2933  0.5414 -0.2574
13498TIP3   OH261984   0.735   5.080  14.674  0.1572  0.4437  0.4967
13498TIP3    H161985   0.821   5.045  14.698  0.1705 -1.0712 -1.5964
13498TIP3    H261986   0.721   5.048  14.585 -2.6485  0.5343  0.8722
13499TIP3   OH261987   1.492   3.623   5.636 -0.0283 -0.0960  0.5711
13499TIP3    H161988   1.434   3.578   5.697 -0.6826 -0.4966 -0.3293
13499TIP3    H261989   1.455   3.604   5.549 -0.2403  2.0503  0.1645
13500TIP3   OH261990   6.320   3.539   0.645 -0.4165 -0.0326  0.2055
13500TIP3    H161991   6.261   3.524   0.571 -0.4628  1.2385 -0.0273
13500TIP3    H261992   6.327   3.454   0.688 -1.4033 -0.4868 -0.5155
13501TIP3   OH261993   0.701   5.446  12.604 -0.0725 -0.1391 -0.3359
13501TIP3    H161994   0.679   5.534  12.635  1.3347  0.8945 -2.1600
13501TIP3    H261995   0.678   5.447  12.511 -2.8509 -2.7087  0.2537
13502TIP3   OH261996   3.921   5.310  12.280 -0.4596  0.3614 -0.1936
13502TIP3    H161997   3.980   5.236  12.266 -0.6489  0.0275  0.7024
13502TIP3    H261998   3.870   5.315  12.200 -1.2769 -1.2535  0.2019
13503TIP3   OH261999   1.315   5.157  13.632  0.0664  0.4957  0.3817
13503TIP3    H162000   1.304   5.088  13.567  0.4517  1.0537 -0.2795
13503TIP3    H262001   1.267   5.231  13.597 -0.0925  0.6609  0.9472
13504TIP3   OH262002   4.171   2.287  14.501  0.4636  0.0268  0.3078
13504TIP3    H162003   4.230   2.224  14.542  0.2830 -0.1723  0.2651
13504TIP3    H262004   4.203   2.295  14.411  0.8402  0.4374  0.4763
13505TIP3   OH262005   3.544   0.165  11.604 -0.1312 -0.1887 -0.0231
13505TIP3    H162006   3.515   0.215  11.528 -0.7808 -1.3162 -0.5231
13505TIP3    H262007   3.509   0.214  11.679 -1.7704 -0.5204 -0.5518
13506TIP3   OH262008   6.478   6.311   2.777 -0.5992 -0.0346  0.0867
13506TIP3    H162009   6.386   6.286   2.789 -1.2809  1.7027 -1.2383
13506TIP3    H262010   6.505   6.266   2.697 -0.5099 -0.0234  0.1110
13507TIP3   OH262011   6.477   0.016   2.818  0.1143 -0.1930 -0.1116
13507TIP3    H162012   6.560   0.063   2.827  0.3648 -0.6724  0.1160
13507TIP3    H262013   6.453   0.027   2.727  0.3673  0.0572 -0.1490
13508TIP3   OH262014   3.480   2.135   3.435  0.5879 -0.0861  0.2077
13508TIP3    H162015   3.432   2.053   3.426  1.4496 -0.5573 -0.1877
13508TIP3    H262016   3.542   2.134   3.362 -1.1826  2.1646 -1.4289
13509TIP3   OH262017   0.811   4.358   2.393  0.5279 -0.0648  0.0208
13509TIP3    H162018   0.822   4.411   2.314 -1.6691 -0.3756 -0.5295
13509TIP3    H262019   0.889   4.377   2.446  1.2665  1.3252 -1.5234
13510TIP3   OH262020   6.179   3.632  15.247  0.1176  0.1092  0.0823
13510TIP3    H162021   6.118   3.567  15.281  1.1900 -0.9723 -0.0372
13510TIP3    H262022   6.233   3.657  15.322  2.1358 -1.8874 -0.6559
13511TIP3   OH262023   3.092   0.962   5.708  0.4477  0.7553  0.3833
13511TIP3    H162024   3.072   1.043   5.755  1.0897  1.7033 -0.9412
13511TIP3    H262025   3.188   0.957   5.710  0.5720  1.5034 -1.9116
13512TIP3   OH262026   5.705   6.272   4.878 -0.1637 -0.1458  0.4033
13512TIP3    H162027   5.650   6.323   4.937 -0.4557 -0.6367  0.5534
13512TIP3    H262028   5.667   6.185   4.878 -0.9059  0.1516 -1.4646
13513TIP3   OH262029   3.475   4.201   0.606 -0.1256  0.9001  0.7878
13513TIP3    H162030   3.559   4.203   0.561 -0.9527  0.1956 -0.8106
13513TIP3    H262031   3.484   4.131   0.671  0.2107  0.2024 -0.0059
13514TIP3   OH262032   5.187   1.275  17.246  0.2292  0.3474 -0.4694
13514TIP3    H162033   5.212   1.361  17.214  0.1417  0.4439 -0.2766
13514TIP3    H262034   5.095   1.284  17.272 -0.3007 -0.2450 -2.0384
13515TIP3   OH262035   2.703   1.706  14.557 -0.0307  0.1028  0.6821
13515TIP3    H162036   2.747   1.791  14.559  2.5188 -1.1661  0.1295
13515TIP3    H262037   2.673   1.696  14.467  0.2066  0.1541  0.5976
13516TIP3   OH262038   4.658   0.559  14.086  0.6193 -0.8396  0.3681
13516TIP3    H162039   4.664   0.654  14.081  0.2198 -0.8283  0.0457
13516TIP3    H262040   4.622   0.542  14.173  0.0586 -0.6641  0.1726
13517TIP3   OH262041   1.000   0.236   2.177  0.7120  0.5430  0.9890
13517TIP3    H162042   1.026   0.284   2.098 -1.0880  0.0217  0.0654
13517TIP3    H262043   1.009   0.301   2.248 -0.0965  1.7661 -0.0094
13518TIP3   OH262044   4.749   2.924  15.137  0.1638 -0.1825  0.4543
13518TIP3    H162045   4.751   3.013  15.170 -0.3760 -0.2157  0.5712
13518TIP3    H262046   4.663   2.891  15.160  0.1293 -0.5252 -0.1495
13519TIP3   OH262047   3.584   6.180  15.060  0.0440 -0.4782 -0.1376
13519TIP3    H162048   3.542   6.127  15.128 -3.3925  2.3388  0.1070
13519TIP3    H262049   3.528   6.169  14.983  1.4707 -0.2281 -1.2398
13520TIP3   OH262050   5.629   5.690  11.653 -0.0187 -0.4324 -0.4102
13520TIP3    H162051   5.549   5.741  11.645  0.5122  0.5436  0.4738
13520TIP3    H262052   5.675   5.705  11.570 -0.1358  0.0538 -0.3891
13521TIP3   OH262053   2.490   3.996   2.088  0.5813 -0.1262 -0.5201
13521TIP3    H162054   2.509   4.090   2.094 -0.5371  0.1770 -1.5598
13521TIP3    H262055   2.577   3.955   2.089  1.1802  1.0405 -2.0557
13522TIP3   OH262056   0.629   6.083   3.442  0.1722 -0.3557  0.0971
13522TIP3    H162057   0.708   6.136   3.451  0.3294 -0.5963  0.1307
13522TIP3    H262058   0.646   6.028   3.366  0.7408 -1.6321  1.1254
13523TIP3   OH262059   4.964   3.441  11.300 -0.3146  0.2948  0.0734
13523TIP3    H162060   5.050   3.400  11.291  0.0215  0.4058  2.3962
13523TIP3    H262061   4.920   3.422  11.217  1.0834 -1.7886 -0.2479
13524TIP3   OH262062   4.271   5.309  16.016 -0.8011 -0.1081 -0.0630
13524TIP3    H162063   4.185   5.315  16.058 -1.5461 -1.4802 -1.3532
13524TIP3    H262064   4.254   5.269  15.931  1.0260  0.2766 -0.6405
13525TIP3   OH262065   3.249   3.751  16.733 -0.5279 -0.6335  0.3552
13525TIP3    H162066   3.338   3.736  16.703  0.0215  0.0593  1.5889
13525TIP3    H262067   3.198   3.678  16.697  0.0636  0.2090 -2.2785
13526TIP3   OH262068   6.308   0.675   1.938 -0.1060  0.3007  0.4502
13526TIP3    H162069   6.220   0.640   1.953 -0.3502  0.8926  0.4536
13526TIP3    H262070   6.365   0.627   1.998 -0.8216  1.6213  2.2430
13527TIP3   OH262071   1.170   2.021  15.978 -0.3650 -0.2396  0.2093
13527TIP3    H162072   1.249   2.005  16.029 -0.9651  1.0249  1.5637
13527TIP3    H262073   1.103   1.967  16.019 -0.6414  0.0805  0.1794
13528TIP3   OH262074   6.379   0.026  16.592  0.1872 -0.0740 -0.0355
13528TIP3    H162075   6.298   0.076  16.580 -0.1933  0.1783  3.1578
13528TIP3    H262076   6.409   0.050  16.679  1.3418 -3.5322  0.5820
13529TIP3   OH262077   2.731   4.871  12.834  0.5545  0.4987  0.1530
13529TIP3    H162078   2.711   4.944  12.892 -0.4566  0.2560  0.1079
13529TIP3    H262079   2.710   4.793  12.884 -0.0839  0.2812 -0.4436
13530TIP3   OH262080   1.285   0.864  12.342  0.0582 -0.5494 -0.0131
13530TIP3    H162081   1.259   0.773  12.348  1.0703 -0.9131 -0.8770
13530TIP3    H262082   1.216   0.906  12.290 -0.1773 -0.9161  0.0047
13531TIP3   OH262083   1.950   5.647   2.312 -0.2606  0.1053 -0.1618
13531TIP3    H162084   1.942   5.709   2.239 -2.8269 -0.1730 -0.1448
13531TIP3    H262085   2.019   5.587   2.285  1.2505  2.0876 -0.8121
13532TIP3   OH262086   0.845   5.480   4.218  0.2185  0.1232  0.0903
13532TIP3    H162087   0.815   5.417   4.152  0.5517  1.7496 -1.6523
13532TIP3    H262088   0.765   5.504   4.266  0.1222 -1.7418  0.9198
13533TIP3   OH262089   2.715   1.491  15.695  0.0839  0.3597  0.2272
13533TIP3    H162090   2.633   1.466  15.738 -1.4672  0.8160 -2.3315
13533TIP3    H262091   2.757   1.551  15.756 -1.7693  0.5381  1.3585
13534TIP3   OH262092   2.482   2.731  10.779  0.5103  0.6231  0.8091
13534TIP3    H162093   2.390   2.731  10.806  0.7542  1.0086  1.6495
13534TIP3    H262094   2.483   2.683  10.696 -0.6763  2.0051 -0.0168
13535TIP3   OH262095   0.441   1.436   4.387  1.0957 -0.1682  0.3558
13535TIP3    H162096   0.422   1.527   4.367 -2.0668 -0.6328  0.9362
13535TIP3    H262097   0.509   1.440   4.455  0.8410  1.7342  0.5261
13536TIP3   OH262098   2.688   3.760   3.631  0.2299  0.2018  0.4226
13536TIP3    H162099   2.667   3.853   3.640 -0.8459  0.0828 -0.7571
13536TIP3    H262100   2.622   3.726   3.572 -0.6646 -1.7899  2.4913
13537TIP3   OH262101   3.513   4.414   2.169 -0.4626 -0.1200 -0.5313
13537TIP3    H162102   3.601   4.450   2.154 -0.5261 -0.3008 -1.3507
13537TIP3    H262103   3.473   4.476   2.230 -0.5688  1.2176 -1.9242
13538TIP3   OH262104   5.659   2.906  12.877  0.2410 -0.1422  0.0163
13538TIP3    H162105   5.740   2.877  12.920 -0.0024 -0.3857  0.3093
13538TIP3    H262106   5.613   2.826  12.853 -1.1069 -0.0422  2.1048
13539TIP3   OH262107   2.496   2.974  15.447  0.1353 -0.4607 -0.0289
13539TIP3    H162108   2.551   2.899  15.466 -1.8309 -1.5784  1.4071
13539TIP3    H262109   2.435   2.943  15.380 -0.3596  0.0129  0.2017
13540TIP3   OH262110   2.705   2.878   0.128 -0.0385 -0.3642 -0.5294
13540TIP3    H162111   2.652   2.950   0.161  0.7060 -0.7444  1.5215
13540TIP3    H262112   2.707   2.814   0.199  0.2838 -1.9053 -1.8921
13541TIP3   OH262113   1.568   2.019   5.488  0.3351  0.2621 -0.3426
13541TIP3    H162114   1.541   2.026   5.580 -0.0054  0.2061 -0.4392
13541TIP3    H262115   1.564   1.926   5.469 -0.0377  0.3169 -0.5464
13542TIP3   OH262116   4.054   5.996  13.683 -0.1678 -0.7936 -0.3369
13542TIP3    H162117   4.096   6.050  13.615 -0.8119 -0.0615 -0.1518
13542TIP3    H262118   4.027   5.917  13.636  0.7242 -0.9433 -0.6227
13543TIP3   OH262119   6.324   2.148  14.549 -0.1940 -0.1834 -0.2867
13543TIP3    H162120   6.318   2.075  14.488 -1.5994 -1.2075  1.0177
13543TIP3    H262121   6.257   2.210  14.520  1.2084  0.7501 -1.5772
13544TIP3   OH262122   3.374   1.778   0.387  0.3840 -0.0411 -0.0459
13544TIP3    H162123   3.291   1.765   0.340  0.7715  0.1383 -0.7842
13544TIP3    H262124   3.348   1.818   0.470 -0.1904  0.7942 -0.6252
13545TIP3   OH262125   2.170   2.844   4.586  0.2794 -0.1868  0.1968
13545TIP3    H162126   2.161   2.842   4.491  1.8920  0.6563  0.0097
13545TIP3    H262127   2.129   2.762   4.615 -0.0495 -0.5537 -1.2293
13546TIP3   OH262128   2.803   3.748  16.129 -0.9536  0.1609 -0.0069
13546TIP3    H162129   2.837   3.745  16.040 -0.4093 -1.3534  0.2475
13546TIP3    H262130   2.880   3.762  16.184 -0.7730 -2.5717  0.5055
13547TIP3   OH262131   0.982   4.968   0.313 -0.2402  0.6229 -0.9039
13547TIP3    H162132   0.956   4.879   0.337 -0.3696  0.6078 -1.1031
13547TIP3    H262133   0.901   5.010   0.285 -0.6496  1.5857  1.6099
13548TIP3   OH262134   0.327   0.212  12.938  0.0973  0.2727 -0.3330
13548TIP3    H162135   0.296   0.268  12.866 -2.5493 -1.4437 -0.5840
13548TIP3    H262136   0.392   0.155  12.898  0.3004  0.8724 -0.8578
13549TIP3   OH262137   4.902   3.436  12.477  0.2307  0.5764  0.0283
13549TIP3    H162138   4.946   3.512  12.440  2.1071 -0.8104 -0.6703
13549TIP3    H262139   4.857   3.396  12.402  0.3899  0.2382  0.1105
13550TIP3   OH262140   0.549   5.386  17.226 -0.1265 -0.3007 -0.1444
13550TIP3    H162141   0.612   5.322  17.191  0.2757 -0.2790  0.5265
13550TIP3    H262142   0.593   5.470  17.218 -0.7599 -0.0648 -1.2661
13551TIP3   OH262143   5.198   6.801  14.169 -0.4697  0.0433  0.1177
13551TIP3    H162144   5.240   6.725  14.128  1.9522  0.5948  1.4679
13551TIP3    H262145   5.243   6.810  14.254 -3.3123  0.7202  1.6069
13552TIP3   OH262146   0.847   2.089  16.414  0.7946 -0.2166  0.1661
13552TIP3    H162147   0.887   2.159  16.466 -0.2930 -0.3597  1.2142
13552TIP3    H262148   0.756   2.086  16.443  0.6265 -1.5355 -0.4449
13553TIP3   OH262149   5.381   2.057   3.710 -0.7822  0.1464  0.1025
13553TIP3    H162150   5.466   2.041   3.752 -0.4055  0.1294 -0.6476
13553TIP3    H262151   5.321   1.997   3.754 -0.0317 -1.1143 -0.5410
13554TIP3   OH262152   0.784   1.883  13.031 -0.2175 -0.0191  0.6005
13554TIP3    H162153   0.714   1.848  12.976  0.9667 -2.0600  0.3705
13554TIP3    H262154   0.738   1.925  13.104 -1.6971 -0.2461 -0.1754
13555TIP3   OH262155   2.484   6.469  13.694 -0.4022  0.0385  0.1642
13555TIP3    H162156   2.511   6.500  13.608 -2.6164  1.0213 -0.2239
13555TIP3    H262157   2.457   6.378  13.680 -1.1632  0.3283 -0.2866
13556TIP3   OH262158   6.660   1.851  14.019  0.1398  0.3757 -0.1678
13556TIP3    H162159   6.734   1.809  14.063  0.7460  2.1423  0.5744
13556TIP3    H262160   6.605   1.882  14.091 -0.1412  1.0907 -0.6893
13557TIP3   OH262161   3.242   4.329  16.199  0.0692  0.1159  0.3368
13557TIP3    H162162   3.310   4.373  16.251  0.1577 -0.1363  0.4322
13557TIP3    H262163   3.219   4.394  16.132  0.0242  0.4024  0.6245
13558TIP3   OH262164   3.605   3.757  15.852 -0.2648  0.1098 -0.4145
13558TIP3    H162165   3.682   3.715  15.815 -2.0711 -1.9309 -2.0290
13558TIP3    H262166   3.559   3.793  15.776 -1.6184  0.0376  0.3402
13559TIP3   OH262167   2.197   4.229  12.785 -0.5575  0.3801  0.3139
13559TIP3    H162168   2.233   4.312  12.815  1.3131 -0.1754 -0.3306
13559TIP3    H262169   2.148   4.251  12.706  3.7366  0.3112 -2.5340
13560TIP3   OH262170   5.011   4.349   3.915  0.0520  0.3516 -0.4802
13560TIP3    H162171   4.955   4.374   3.988  1.4334 -1.5175  1.2927
13560TIP3    H262172   5.078   4.417   3.910  0.9488 -0.3790  1.1501
13561TIP3   OH262173   1.684   5.016   0.631  0.5659  0.1833 -0.4680
13561TIP3    H162174   1.680   4.921   0.641 -0.6751  0.2351 -0.2950
13561TIP3    H262175   1.669   5.030   0.537  1.0003  0.1986 -0.5354
13562TIP3   OH262176   0.398   2.835  15.340 -0.1523 -0.4168  0.3487
13562TIP3    H162177   0.303   2.851  15.344 -0.0214  0.7035 -0.5863
13562TIP3    H262178   0.408   2.766  15.274 -0.3882 -1.2775  1.2022
13563TIP3   OH262179   0.395   1.168   3.155  0.0502  0.5191 -0.2838
13563TIP3    H162180   0.409   1.109   3.228  0.7685  1.0322 -0.0098
13563TIP3    H262181   0.482   1.188   3.122 -0.3567 -2.2998 -3.3827
13564TIP3   OH262182   0.274   2.928   1.170 -0.2527  0.1075  0.4618
13564TIP3    H162183   0.302   2.908   1.259  1.9345 -0.9611 -0.4134
13564TIP3    H262184   0.303   3.018   1.155 -2.0006  0.8390  1.3203
13565TIP3   OH262185   3.091   4.760   6.204 -0.0541  0.2217  0.3219
13565TIP3    H162186   3.140   4.701   6.261  0.5641 -0.0400 -0.4681
13565TIP3    H262187   3.147   4.838   6.196 -0.9880  1.0568  1.5845
13566TIP3   OH262188   5.857   5.753   1.808 -0.2045  0.0197 -0.0178
13566TIP3    H162189   5.865   5.707   1.892 -1.9110  0.4630  0.4097
13566TIP3    H262190   5.884   5.843   1.827  0.9923 -0.2517 -0.3462
13567TIP3   OH262191   0.998   3.437  12.066 -0.1716 -0.0193 -0.1904
13567TIP3    H162192   0.992   3.342  12.073 -1.6677  0.1369  0.9475
13567TIP3    H262193   0.910   3.468  12.088  0.5036  1.6636  0.2154
13568TIP3   OH262194   6.022   0.034  14.099  0.2764 -0.3007  0.0388
13568TIP3    H162195   5.984  -0.054  14.106 -0.2548 -0.1810 -1.1344
13568TIP3    H262196   6.104   0.021  14.051 -0.3072 -0.0313 -1.0458
13569TIP3   OH262197   1.464   1.424   5.582 -0.7185  1.1067  0.3206
13569TIP3    H162198   1.415   1.371   5.645 -1.7868  0.3128 -1.1504
13569TIP3    H262199   1.552   1.431   5.620 -0.7584 -1.1452  0.8852
13570TIP3   OH262200   2.116   2.655  12.455  0.2663  0.3258  0.2222
13570TIP3    H162201   2.113   2.614  12.369  0.1622 -0.4255  0.5775
13570TIP3    H262202   2.097   2.748  12.438 -1.2635 -0.0793 -0.3874
13571TIP3   OH262203   4.775   0.152  14.455 -0.1109  0.2059 -0.9234
13571TIP3    H162204   4.805   0.136  14.365 -0.7485  1.1355 -1.3047
13571TIP3    H262205   4.856   0.162  14.505  0.2645 -0.8907 -1.2732
13572TIP3   OH262206   5.210   5.476   2.851 -0.0786  0.1658  0.1129
13572TIP3    H162207   5.276   5.408   2.864 -0.5706 -0.2810  0.2377
13572TIP3    H262208   5.222   5.535   2.926 -1.6182 -1.3739  1.5978
13573TIP3   OH262209   4.890   6.202  16.971  0.4644  0.5116  0.3048
13573TIP3    H162210   4.836   6.280  16.983  0.2398  0.4334 -0.1550
13573TIP3    H262211   4.953   6.205  17.042 -0.2463  0.5228  0.9423
13574TIP3   OH262212   6.277   2.628   3.965 -0.0859 -0.0284 -0.0850
13574TIP3    H162213   6.260   2.629   3.870 -0.4720 -0.2597 -0.0200
13574TIP3    H262214   6.334   2.553   3.978 -0.5250 -0.3538 -0.0506
13575TIP3   OH262215   2.013   4.487   4.807  0.8228  0.3269  0.3366
13575TIP3    H162216   1.995   4.571   4.764  0.5497 -0.4741 -1.1231
13575TIP3    H262217   1.940   4.476   4.868  0.6445  0.9492  0.2424
13576TIP3   OH262218   2.897   4.125   2.190  0.5131 -0.1791 -0.0601
13576TIP3    H162219   2.887   4.171   2.273  0.1463 -0.8792  0.2914
13576TIP3    H262220   2.865   4.036   2.208  2.5828 -1.0085 -0.3256
13577TIP3   OH262221   2.716   5.470   5.241 -0.2837 -0.1593  0.3701
13577TIP3    H162222   2.715   5.503   5.151  1.4068 -1.6053 -0.2023
13577TIP3    H262223   2.713   5.549   5.295  0.0381  0.7866 -0.9581
13578TIP3   OH262224   5.761   1.686  17.006 -0.2650 -0.0684  0.2234
13578TIP3    H162225   5.758   1.773  17.046 -1.7152 -0.4250  0.9090
13578TIP3    H262226   5.851   1.657  17.022 -0.2579  0.5851  1.5475
13579TIP3   OH262227   4.975   1.865  15.277 -0.2211  1.0943  0.4261
13579TIP3    H162228   5.030   1.886  15.202 -1.2075  0.2304 -0.5430
13579TIP3    H262229   4.906   1.809  15.242  0.1692 -0.5957  2.2611
13580TIP3   OH262230   1.223   2.579  15.812 -0.0754 -0.5150 -0.1089
13580TIP3    H162231   1.193   2.533  15.891  1.4861  0.1553  0.9107
13580TIP3    H262232   1.152   2.569  15.750 -0.5913 -2.6212  0.7741
13581TIP3   OH262233   5.098   5.606   0.812 -0.0396 -0.5920  0.7273
13581TIP3    H162234   5.051   5.533   0.851  0.1856 -0.7808  0.6491
13581TIP3    H262235   5.031   5.673   0.797 -0.2613 -0.8178  0.7122
13582TIP3   OH262236   2.563   2.970  13.132 -0.3694 -0.8654  0.5675
13582TIP3    H162237   2.480   2.980  13.178 -0.6308 -2.0525  0.3668
13582TIP3    H262238   2.625   2.942  13.199 -0.2837 -0.6179  0.5907
13583TIP3   OH262239   1.558   5.006  13.402  0.3595  0.2547  0.1135
13583TIP3    H162240   1.468   4.983  13.376  0.5845 -0.0995 -0.3602
13583TIP3    H262241   1.559   4.992  13.497 -0.0572  0.1615  0.1079
13584TIP3   OH262242   1.396   5.233  10.225 -0.5047 -0.8254 -0.4161
13584TIP3    H162243   1.480   5.189  10.210 -0.7906 -1.7403  0.5676
13584TIP3    H262244   1.402   5.313  10.174  1.2281 -0.5566  0.1420
13585TIP3   OH262245   2.805   5.050  13.209 -0.0719  0.6238 -0.3219
13585TIP3    H162246   2.855   5.034  13.289 -0.7271  2.5147  0.4892
13585TIP3    H262247   2.775   4.963  13.182 -1.6585  0.1653  2.6890
13586TIP3   OH262248   2.862   2.190   1.098  0.1409  0.2235  0.1154
13586TIP3    H162249   2.833   2.124   1.161 -2.1114  3.4127  2.5506
13586TIP3    H262250   2.944   2.223   1.134 -0.7803  1.5391  1.0477
13587TIP3   OH262251   3.758   1.414   3.922  0.0716  0.3718 -0.0846
13587TIP3    H162252   3.710   1.375   3.849  0.3776  0.5983 -0.4094
13587TIP3    H262253   3.696   1.412   3.995 -0.6183  1.1317 -0.6281
13588TIP3   OH262254   3.304   3.114  13.156  1.0428  0.1822  0.6204
13588TIP3    H162255   3.342   3.087  13.073 -0.2238 -1.5887  0.5967
13588TIP3    H262256   3.210   3.096  13.147  0.1899  4.0394  0.8302
13589TIP3   OH262257   3.193   0.715  15.969  0.2219 -0.2878  0.0359
13589TIP3    H162258   3.203   0.741  15.877 -1.0982 -1.3216 -0.4110
13589TIP3    H262259   3.210   0.621  15.969 -2.0504 -0.7217  0.4684
13590TIP3   OH262260   3.967   2.366   2.881  0.2983  0.0230  0.4395
13590TIP3    H162261   3.884   2.354   2.927  0.5437  2.1467  1.4858
13590TIP3    H262262   4.022   2.295   2.913 -0.7810 -0.7839  0.5245
13591TIP3   OH262263   5.247   2.477   0.259 -0.0789  0.0887 -0.0013
13591TIP3    H162264   5.280   2.407   0.202  1.3001  1.2072 -0.5891
13591TIP3    H262265   5.260   2.557   0.208 -2.9415  0.6727  0.0698
13592TIP3   OH262266   2.062   2.211  13.247  0.0894 -0.2770 -0.0724
13592TIP3    H162267   2.134   2.273  13.257  0.9945 -1.1454 -0.9922
13592TIP3    H262268   2.078   2.145  13.314  0.8504 -1.1065 -1.0457
13593TIP3   OH262269   2.987   3.850   5.331  0.1377  0.6049  0.2013
13593TIP3    H162270   2.916   3.907   5.300  0.5643  0.7843 -0.4395
13593TIP3    H262271   2.953   3.761   5.318  0.7053  0.6449 -1.7558
13594TIP3   OH262272   3.170   5.177   0.119  0.3904 -0.8510  0.5303
13594TIP3    H162273   3.265   5.176   0.125  0.4973 -1.2300 -0.9227
13594TIP3    H262274   3.151   5.153   0.028 -0.9961  2.2358 -0.0670
13595TIP3   OH262275   0.657   3.593  13.197  0.2708 -0.1813 -0.5769
13595TIP3    H162276   0.633   3.507  13.160 -0.7516  1.0807 -2.9743
13595TIP3    H262277   0.573   3.633  13.219  0.7527  0.2278  0.5527
13596TIP3   OH262278   2.473   2.462  11.942  0.2180  0.3849 -0.4707
13596TIP3    H162279   2.492   2.452  12.035 -0.4331  0.9688 -0.2775
13596TIP3    H262280   2.382   2.492  11.938 -0.3025 -1.2766 -1.3649
13597TIP3   OH262281   6.320   0.624   5.366  0.3557 -0.0864  0.4551
13597TIP3    H162282   6.400   0.647   5.318  0.6128 -2.6229 -0.4097
13597TIP3    H262283   6.347   0.549   5.420 -1.5661 -1.3287 -0.2738
13598TIP3   OH262284   5.046   0.694   0.734  0.3468 -0.1758  0.3059
13598TIP3    H162285   5.073   0.678   0.825 -2.7048  1.7317  1.5916
13598TIP3    H262286   4.962   0.648   0.726  0.5443 -0.2360 -1.5470
13599TIP3   OH262287   3.725   0.095   0.189 -0.5423  0.2451  0.3044
13599TIP3    H162288   3.637   0.131   0.204 -0.7546 -0.0462 -0.2333
13599TIP3    H262289   3.782   0.148   0.244 -0.8380  1.4800 -0.5590
13600TIP3   OH262290   2.954   5.505   2.330 -0.1197  0.1412 -0.6596
13600TIP3    H162291   3.028   5.461   2.287 -0.5168 -2.4290  1.1624
13600TIP3    H262292   2.877   5.471   2.286 -0.4101 -0.6322  0.4377
13601TIP3   OH262293   3.747   1.616  12.854  0.3649  0.0048  0.5476
13601TIP3    H162294   3.777   1.673  12.925 -0.6452 -0.5735  1.4507
13601TIP3    H262295   3.706   1.676  12.791 -2.1731  0.1476  2.2606
13602TIP3   OH262296   0.626   0.537  12.582  0.3283 -0.2076 -0.3883
13602TIP3    H162297   0.686   0.505  12.515 -0.0895 -1.7778 -0.0511
13602TIP3    H262298   0.579   0.458  12.612 -1.0455  0.7973  0.1899
13603TIP3   OH262299   1.764   4.805   0.087  0.2449 -0.4988  0.2588
13603TIP3    H162300   1.688   4.749   0.073  0.7728 -0.4327 -3.4044
13603TIP3    H262301   1.744   4.886   0.042  1.6679  0.2485  0.9289
13604TIP3   OH262302   5.553   4.376  16.043 -0.5587 -0.1459 -0.0793
13604TIP3    H162303   5.553   4.311  15.973 -0.3675  0.3777 -0.5736
13604TIP3    H262304   5.636   4.423  16.032 -0.8438  0.3969  0.0687
13605TIP3   OH262305   2.252   2.930   1.259  0.1761  0.4886 -0.0243
13605TIP3    H162306   2.244   2.984   1.180 -0.9724  0.5463  0.1297
13605TIP3    H262307   2.166   2.889   1.269 -0.6187  2.6732  2.7791
13606TIP3   OH262308   4.825   2.833   4.243  0.4354  0.6259  0.2816
13606TIP3    H162309   4.823   2.928   4.251  1.1609  0.6216  0.4684
13606TIP3    H262310   4.833   2.801   4.334 -1.1347  0.3514  0.3457
13607TIP3   OH262311   3.006   0.615   3.887  0.3003 -0.3226  0.5682
13607TIP3    H162312   2.990   0.698   3.932 -0.0731 -0.5448  0.8491
13607TIP3    H262313   2.932   0.560   3.911  1.6798 -1.5250  2.2590
13608TIP3   OH262314   3.156   2.646   5.496 -0.0575 -0.4055 -0.0429
13608TIP3    H162315   3.067   2.681   5.500 -0.1794 -0.2675 -2.8392
13608TIP3    H262316   3.212   2.721   5.513 -0.4398  0.0888 -0.9002
13609TIP3   OH262317   6.543   5.197  15.316  0.3656 -0.3977  0.5175
13609TIP3    H162318   6.483   5.232  15.251 -0.1621 -2.2359 -0.0406
13609TIP3    H262319   6.594   5.272  15.345  0.5694  0.4801 -1.9804
13610TIP3   OH262320   3.411   5.095  11.812  0.3247 -0.2946 -0.0836
13610TIP3    H162321   3.401   5.109  11.906 -0.5927  3.1368 -0.6235
13610TIP3    H262322   3.341   5.034  11.789  0.4068 -0.9702  1.3980
13611TIP3   OH262323   2.339   5.674   3.282 -0.5685  0.0038  0.4030
13611TIP3    H162324   2.392   5.674   3.362 -1.8357  0.7390  1.2598
13611TIP3    H262325   2.272   5.740   3.297 -1.5672 -0.7066 -0.7775
13612TIP3   OH262326   2.674   0.254  13.198  0.4038  0.6212  0.0147
13612TIP3    H162327   2.669   0.202  13.118 -0.7666  0.5602  0.1078
13612TIP3    H262328   2.686   0.190  13.268  2.7403  0.7717 -0.2252
13613TIP3   OH262329   5.117   2.366  11.084 -0.4124  0.4100 -0.1216
13613TIP3    H162330   5.062   2.301  11.040  2.0761  0.1802 -3.0962
13613TIP3    H262331   5.112   2.443  11.027  2.1928  0.4093 -0.4063
13614TIP3   OH262332   0.662   4.655   1.440  0.0933  0.0280  0.2259
13614TIP3    H162333   0.584   4.710   1.431  0.0562 -0.0033  0.3523
13614TIP3    H262334   0.629   4.567   1.454  0.1586 -0.1391 -0.6358
13615TIP3   OH262335   5.290   6.144  15.671 -0.2388  0.1449  0.2862
13615TIP3    H162336   5.347   6.106  15.605  0.7617  1.3026  0.4642
13615TIP3    H262337   5.207   6.096  15.662  1.2192 -2.5834  1.0574
13616TIP3   OH262338   1.160   3.333  16.466 -0.2298 -0.2040  0.1046
13616TIP3    H162339   1.130   3.326  16.556  1.7188 -1.0131  0.7056
13616TIP3    H262340   1.139   3.248  16.426  0.1967 -0.3507  0.1936
13617TIP3   OH262341   3.297   0.260   2.713  0.4704 -0.3370 -0.2968
13617TIP3    H162342   3.346   0.240   2.792 -0.2544 -2.0995 -0.2738
13617TIP3    H262343   3.216   0.300   2.745  0.7362  0.1602 -0.2275
13618TIP3   OH262344   2.913   4.803   0.956  0.2821 -0.1414 -0.3060
13618TIP3    H162345   2.871   4.788   0.871 -0.8713  1.4479 -0.0287
13618TIP3    H262346   3.006   4.815   0.935 -0.1930  1.5355 -1.4741
13619TIP3   OH262347   6.798   0.800  12.525 -0.3423  0.9511 -0.6025
13619TIP3    H162348   6.758   0.885  12.506 -0.0809  1.4664  1.0539
13619TIP3    H262349   6.793   0.792  12.620  1.8584  0.2162 -0.5199
13620TIP3   OH262350   0.849   6.082  12.418  0.3091 -0.5716  0.2337
13620TIP3    H162351   0.888   6.028  12.349  2.1180  0.2230  0.6083
13620TIP3    H262352   0.910   6.075  12.491  0.1342  1.3141  0.5794
13621TIP3   OH262353   3.432   5.046   4.149 -0.3407  0.4707 -0.3684
13621TIP3    H162354   3.427   5.070   4.242  0.8518  1.5438 -0.5631
13621TIP3    H262355   3.514   5.086   4.119  0.0747 -1.1729 -1.5105
13622TIP3   OH262356   3.005   2.587  16.401  0.5119 -0.1794  0.1088
13622TIP3    H162357   3.081   2.530  16.385 -0.3920 -1.1839 -0.6092
13622TIP3    H262358   3.040   2.676  16.389  2.2310 -0.4815  2.4416
13623TIP3   OH262359   1.125   6.071  10.526 -0.0293  0.1164  0.2398
13623TIP3    H162360   1.189   6.032  10.586 -0.3671  1.4402  1.4827
13623TIP3    H262361   1.106   6.001  10.463  1.2265 -0.9036  0.9607
13624TIP3   OH262362   3.809   5.180  12.520  0.6677 -0.1773 -1.0328
13624TIP3    H162363   3.859   5.261  12.510 -1.1287  1.2339  0.8611
13624TIP3    H262364   3.845   5.138  12.598 -0.0168  0.0797 -0.5620
13625TIP3   OH262365   3.673   2.475   2.926 -0.1494  0.4054 -0.5878
13625TIP3    H162366   3.681   2.501   2.834 -1.3247  1.0210 -0.5305
13625TIP3    H262367   3.645   2.555   2.971 -1.7602 -0.4362 -0.0637
13626TIP3   OH262368   6.359   3.429  16.475 -0.0199  0.7528 -0.1542
13626TIP3    H162369   6.355   3.520  16.504 -0.1725  0.8996 -0.6366
13626TIP3    H262370   6.297   3.424  16.402  0.4366  0.4065 -0.5194
13627TIP3   OH262371   2.110   1.610  11.905  0.5263 -0.1772  0.4050
13627TIP3    H162372   2.185   1.566  11.865  1.6916  1.1325  1.0848
13627TIP3    H262373   2.035   1.554  11.884  1.6851 -1.5068 -0.2972
13628TIP3   OH262374   2.896   0.261  11.468 -0.6135 -0.3125  0.4651
13628TIP3    H162375   2.949   0.328  11.424  0.2594  0.3635  2.4633
13628TIP3    H262376   2.910   0.182  11.417  0.1577  0.4998 -0.6178
13629TIP3   OH262377   1.311   1.686  13.816  0.3665 -0.1091  0.3418
13629TIP3    H162378   1.247   1.636  13.766  0.4244  0.2063 -0.0583
13629TIP3    H262379   1.394   1.641  13.800  0.2595 -0.4706  0.7942
13630TIP3   OH262380   1.292   6.769  13.154 -0.8238 -0.0674  0.1105
13630TIP3    H162381   1.265   6.690  13.107  0.7538  0.1850 -1.2777
13630TIP3    H262382   1.337   6.737  13.231 -1.5083 -0.5049  0.3353
13631TIP3   OH262383   6.322   3.114   0.432  0.0342 -1.0562  0.0491
13631TIP3    H162384   6.370   3.066   0.500 -0.9728  1.2870  2.4843
13631TIP3    H262385   6.245   3.060   0.415  0.7750 -2.1422  0.0080
13632TIP3   OH262386   6.402   2.606   2.792  0.0215 -0.2869 -0.4707
13632TIP3    H162387   6.406   2.638   2.702 -2.7068  0.2547 -0.4315
13632TIP3    H262388   6.358   2.522   2.786  0.6355 -0.6757  0.2880
13633TIP3   OH262389   3.060   5.934  14.503 -0.1983 -0.2893  0.1022
13633TIP3    H162390   3.103   5.852  14.529 -0.1061 -0.1792  0.2935
13633TIP3    H262391   3.132   5.996  14.489 -0.2534 -0.3138 -0.3019
13634TIP3   OH262392   2.950   0.192  11.188  0.1678  0.0684  0.6249
13634TIP3    H162393   2.981   0.101  11.184  0.0253  0.0105  0.8744
13634TIP3    H262394   2.855   0.185  11.177  0.3638  0.3382 -1.4542
13635TIP3   OH262395   1.652   3.525  15.689 -0.4445 -0.6771 -0.0217
13635TIP3    H162396   1.648   3.511  15.784 -0.2918 -0.8340 -0.0386
13635TIP3    H262397   1.718   3.463  15.658 -0.4873 -0.6191 -0.2287
13636TIP3   OH262398   6.025   3.029   3.332  0.1276 -0.1438 -0.2812
13636TIP3    H162399   5.996   3.013   3.242 -0.1304  1.5573 -0.5069
13636TIP3    H262400   6.116   2.997   3.333  0.4950  0.8090 -1.4490
13637TIP3   OH262401   4.162   5.374   5.860  0.0684  0.2810  0.3687
13637TIP3    H162402   4.219   5.394   5.785  1.3293 -0.5010  1.1022
13637TIP3    H262403   4.182   5.443   5.923 -0.1303  0.2680  0.4442
13638TIP3   OH262404   2.204   3.579  15.767  0.2076  0.2901  0.4654
13638TIP3    H162405   2.138   3.512  15.753  0.2223  0.1063  1.2439
13638TIP3    H262406   2.280   3.531  15.801  0.0160  0.7692  1.5976
13639TIP3   OH262407   0.253   0.934   3.028 -0.2786  0.1973  0.0347
13639TIP3    H162408   0.321   0.999   3.041  0.6029 -0.7459  0.2246
13639TIP3    H262409   0.187   0.955   3.095  1.0629 -0.4752  1.6117
13640TIP3   OH262410   5.060   4.098   4.847 -0.5890 -0.3263 -0.0211
13640TIP3    H162411   5.155   4.088   4.850 -0.5238  0.5481  1.1424
13640TIP3    H262412   5.042   4.134   4.761  0.5320  3.3863  1.2144
13641TIP3   OH262413   3.544   1.052  12.619  0.4934 -0.6153 -0.2874
13641TIP3    H162414   3.472   1.086  12.671  1.1356  0.1465  0.1005
13641TIP3    H262415   3.502   1.023  12.538 -0.1363  0.6012 -0.4145
13642TIP3   OH262416   3.363   0.428  10.535  0.0049 -0.5327  0.0902
13642TIP3    H162417   3.422   0.398  10.603 -0.9394 -1.6933  0.4183
13642TIP3    H262418   3.374   0.523  10.534  0.8811 -0.6136  1.0601
13643TIP3   OH262419   0.919   0.908   2.205  0.1653  0.4420 -0.2984
13643TIP3    H162420   0.894   0.899   2.114  0.9441 -1.0125 -0.3805
13643TIP3    H262421   0.927   0.818   2.237 -0.6477  0.9382  1.3541
13644TIP3   OH262422   3.735   4.449  11.074 -0.4339 -0.7003 -0.1122
13644TIP3    H162423   3.754   4.511  11.004 -0.6035 -0.6406 -0.1056
13644TIP3    H262424   3.639   4.444  11.076 -0.4237 -0.8788 -0.0396
13645TIP3   OH262425   5.011   4.225  11.798 -0.0118  0.4201  0.3177
13645TIP3    H162426   4.955   4.217  11.722  0.3318 -3.2847  0.3967
13645TIP3    H262427   4.959   4.274  11.862 -1.4527  0.8223 -1.1476
13646TIP3   OH262428   1.107   3.620  16.098 -0.0956 -0.3290  0.2767
13646TIP3    H162429   1.037   3.658  16.045  0.0892  1.5595  1.3163
13646TIP3    H262430   1.061   3.577  16.171 -0.2848 -1.6288 -0.6014
13647TIP3   OH262431   3.090   4.304   1.354 -0.1805  0.1552  0.1750
13647TIP3    H162432   3.047   4.222   1.377 -0.4173  0.9006  2.4181
13647TIP3    H262433   3.117   4.291   1.263 -0.5594 -2.2553  0.3685
13648TIP3   OH262434   6.183   0.018  11.567  0.1817 -0.1501 -0.4227
13648TIP3    H162435   6.153   0.020  11.657 -0.6563  2.7823 -0.7273
13648TIP3    H262436   6.230  -0.065  11.559 -1.7173 -1.5207  2.0428
13649TIP3   OH262437   4.994   6.127  16.467 -0.1670 -0.0178  0.7401
13649TIP3    H162438   4.968   6.100  16.378  0.3333  1.3072  0.1782
13649TIP3    H262439   4.920   6.101  16.522 -1.8321  1.8056 -0.5236
13650TIP3   OH262440   1.200   0.272  13.671  0.1334 -0.7579 -0.7104
13650TIP3    H162441   1.253   0.282  13.591  0.0645  0.9500 -0.5681
13650TIP3    H262442   1.118   0.317  13.651 -0.5588 -1.8261 -0.2860
13651TIP3   OH262443   4.117   2.170  16.682 -0.5654  0.3577  0.2453
13651TIP3    H162444   4.060   2.240  16.650 -1.1777  0.3383  1.2849
13651TIP3    H262445   4.144   2.198  16.770  0.7801  0.2229 -0.1034
13652TIP3   OH262446   6.685   0.473   6.329  0.5728 -0.0170  0.3101
13652TIP3    H162447   6.595   0.481   6.298  0.5817 -0.6724  0.0969
13652TIP3    H262448   6.730   0.548   6.291  0.7145 -1.1238 -1.7610
13653TIP3   OH262449   0.499   3.861  14.212  0.3521  0.1791  0.0479
13653TIP3    H162450   0.488   3.803  14.137  0.4290  0.6865 -0.3610
13653TIP3    H262451   0.591   3.885  14.211  0.5222 -0.4111  0.7577
13654TIP3   OH262452   6.172   0.390   4.861 -0.2944  0.2292  0.3558
13654TIP3    H162453   6.110   0.323   4.887 -1.1910  0.2996 -1.4749
13654TIP3    H262454   6.240   0.343   4.813 -0.2530  0.4573  0.1848
13655TIP3   OH262455   3.127   6.499   1.935 -0.2569  0.1762 -0.0234
13655TIP3    H162456   3.207   6.452   1.957 -0.7499 -0.9989 -0.7170
13655TIP3    H262457   3.082   6.511   2.019 -1.2398 -2.6552 -0.0958
13656TIP3   OH262458   4.801   1.308  16.604 -0.1090  0.0735 -0.7653
13656TIP3    H162459   4.781   1.233  16.548 -0.5065 -0.4676  0.0871
13656TIP3    H262460   4.793   1.274  16.693  1.1544  0.7583 -0.3827
13657TIP3   OH262461   3.460   2.771  16.978  0.7836 -0.2123  0.0158
13657TIP3    H162462   3.492   2.842  16.922  2.7031 -0.6634  0.5193
13657TIP3    H262463   3.538   2.736  17.021 -0.0076 -3.0533 -0.6960
13658TIP3   OH262464   4.819   1.233  14.533  0.4184 -0.2041 -0.0363
13658TIP3    H162465   4.790   1.285  14.458 -2.6696 -0.8955  0.6215
13658TIP3    H262466   4.815   1.143  14.503  1.1124 -0.3712  0.3498
13659TIP3   OH262467   0.625   4.020  14.911 -0.2547  0.3826  0.0492
13659TIP3    H162468   0.694   3.970  14.954  0.0543  1.0035  0.2870
13659TIP3    H262469   0.568   3.954  14.872 -0.2264 -0.1712  0.9304
13660TIP3   OH262470   1.900   4.756   0.453  0.5819  0.3414 -0.1490
13660TIP3    H162471   1.885   4.665   0.428  0.4474 -0.7313  3.4451
13660TIP3    H262472   1.850   4.808   0.390  0.1944 -2.0964 -1.8958
13661TIP3   OH262473   0.822   6.593   3.424  0.1084 -0.4847 -0.4916
13661TIP3    H162474   0.819   6.568   3.332 -0.8026 -0.9316 -0.3481
13661TIP3    H262475   0.739   6.562   3.460  0.2708  0.0765  0.3811
13662TIP3   OH262476   3.634   4.924  11.741  0.6606 -0.3507  0.2910
13662TIP3    H162477   3.659   5.002  11.692  0.4872 -0.7444 -0.4307
13662TIP3    H262478   3.545   4.941  11.772  0.4792 -0.4177 -0.1923
13663TIP3   OH262479   5.766   1.684  16.028  0.2538 -0.1672  0.1442
13663TIP3    H162480   5.771   1.621  15.955 -1.0537  0.2258 -0.2983
13663TIP3    H262481   5.721   1.760  15.990 -0.7442 -0.0962  1.4547
13664TIP3   OH262482   2.730   5.441  13.140  0.3019  0.7714  0.1394
13664TIP3    H162483   2.646   5.475  13.107 -0.3109  0.3955  1.3020
13664TIP3    H262484   2.708   5.400  13.223  1.5157 -0.0495  0.0583
13665TIP3   OH262485   5.905   3.606   6.159  0.5952  0.5448 -0.5721
13665TIP3    H162486   5.844   3.552   6.209 -1.0833  3.4130  0.6303
13665TIP3    H262487   5.989   3.596   6.203 -0.0968  0.3206  0.6991
13666TIP3   OH262488   3.223   2.343  15.752 -0.0797 -0.7904  0.5476
13666TIP3    H162489   3.260   2.362  15.838  0.8214  0.9122 -0.1813
13666TIP3    H262490   3.284   2.382  15.690 -0.7165 -1.9906 -0.8820
13667TIP3   OH262491   3.880   4.265   5.006 -0.2630  0.3807 -0.5246
13667TIP3    H162492   3.967   4.274   4.968 -0.2256  1.6174 -0.1497
13667TIP3    H262493   3.828   4.224   4.936  0.4412  0.2699 -0.9893
13668TIP3   OH262494   1.167   0.129  11.275 -0.0010 -0.2986 -0.3495
13668TIP3    H162495   1.250   0.080  11.275 -0.3451 -0.8902 -1.1060
13668TIP3    H262496   1.145   0.138  11.183  1.4956  3.7734 -0.4021
13669TIP3   OH262497   2.637   3.203   1.280  0.3616 -0.1792 -0.4134
13669TIP3    H162498   2.635   3.289   1.239  1.9813  0.3501  0.5626
13669TIP3    H262499   2.550   3.191   1.317  0.0772  0.9576 -0.7115
13670TIP3   OH262500   5.511   6.503   4.821  0.1231 -0.1516 -0.3134
13670TIP3    H162501   5.563   6.560   4.878  1.6427  0.2899 -2.0867
13670TIP3    H262502   5.561   6.498   4.740 -1.5449 -1.5072 -1.2994
13671TIP3   OH262503   0.235   2.992   4.190  0.2308  0.6813 -0.1351
13671TIP3    H162504   0.275   2.918   4.236 -3.0453 -0.6138  0.7503
13671TIP3    H262505   0.218   2.960   4.102  1.9005  1.5333 -0.7938
13672TIP3   OH262506   6.186   4.375   0.102 -0.4782  0.3649  0.0012
13672TIP3    H162507   6.274   4.411   0.095 -0.9739  1.1494 -2.8611
13672TIP3    H262508   6.198   4.280   0.103  0.4483  0.4857  0.9551
13673TIP3   OH262509   6.387   4.019  15.872  0.7077  0.9509  0.3507
13673TIP3    H162510   6.481   4.024  15.854  0.6247 -1.8515 -1.1523
13673TIP3    H262511   6.348   4.083  15.812  1.6250  1.7867  0.6439
13674TIP3   OH262512   0.773   5.573  16.237 -0.4935 -0.0095 -0.1939
13674TIP3    H162513   0.793   5.645  16.297  1.3064  1.0643 -2.0012
13674TIP3    H262514   0.854   5.522  16.233 -0.6856 -0.2339 -1.4765
13675TIP3   OH262515   6.087   0.007  12.279  0.2476 -0.6985 -0.2511
13675TIP3    H162516   6.011   0.057  12.310  1.9415  1.8713 -0.0541
13675TIP3    H262517   6.125  -0.031  12.359  1.0214  0.7377  0.0816
13676TIP3   OH262518   3.821   0.504   4.765 -0.2647 -0.0849 -0.6134
13676TIP3    H162519   3.784   0.592   4.764 -0.9162 -0.3391  0.2482
13676TIP3    H262520   3.752   0.448   4.729  0.1749 -0.2326 -1.2293
13677TIP3   OH262521   6.058   5.579  16.968  0.6545  0.4515  0.5164
13677TIP3    H162522   6.026   5.616  17.051  0.2808  0.8232  0.2107
13677TIP3    H262523   6.017   5.634  16.901  1.3408  0.4522  0.0973
13678TIP3   OH262524   2.179   4.671  11.117 -0.4890  0.4890  0.5769
13678TIP3    H162525   2.187   4.590  11.067 -0.0947  0.7224  0.2513
13678TIP3    H262526   2.190   4.740  11.051  1.7847  0.7946  1.2462
13679TIP3   OH262527   4.550   1.106  15.344 -0.1968 -0.5765  0.6921
13679TIP3    H162528   4.491   1.088  15.270 -0.7982 -0.0115  1.0342
13679TIP3    H262529   4.636   1.075  15.314 -0.1150  1.1077 -0.8598
13680TIP3   OH262530   1.128   3.858  11.134 -0.3091 -0.3051 -0.6532
13680TIP3    H162531   1.152   3.947  11.108 -0.5591  0.2464  0.9579
13680TIP3    H262532   1.043   3.843  11.091 -0.6703  0.5522 -0.2469
13681TIP3   OH262533   3.859   0.840  16.426  0.5878 -0.2304  0.0298
13681TIP3    H162534   3.861   0.758  16.475 -0.6701  0.0507  0.5541
13681TIP3    H262535   3.776   0.838  16.378 -0.5272  1.7202  1.7804
13682TIP3   OH262536   5.564   6.736  15.539 -0.0748 -1.3284  0.0188
13682TIP3    H162537   5.522   6.653  15.518 -0.0134 -0.5150 -3.6879
13682TIP3    H262538   5.552   6.790  15.461  1.8656  1.3679  1.4667
13683TIP3   OH262539   5.580   4.205  11.314  0.3959  0.2124 -0.2047
13683TIP3    H162540   5.557   4.208  11.407  1.2042 -0.3223  0.0134
13683TIP3    H262541   5.546   4.120  11.284 -0.8247  0.8498 -0.6580
13684TIP3   OH262542   3.473   5.626   3.626 -0.8646  0.2636 -0.4132
13684TIP3    H162543   3.529   5.694   3.588 -0.6396  1.8206  2.5074
13684TIP3    H262544   3.389   5.669   3.640 -0.4278  0.3342  2.3999
13685TIP3   OH262545   4.773   3.004  14.137  0.1481 -0.1139 -0.7429
13685TIP3    H162546   4.701   3.066  14.124  1.6953  1.7098 -0.7612
13685TIP3    H262547   4.841   3.032  14.077  1.0606 -1.5756 -0.4308
13686TIP3   OH262548   4.991   4.546   5.123 -0.9152  0.0651  0.2855
13686TIP3    H162549   4.914   4.558   5.066 -1.9936 -3.1303  0.9882
13686TIP3    H262550   4.957   4.557   5.211 -0.8141 -2.3210  0.6503
13687TIP3   OH262551   0.569   0.488   6.192 -0.0834 -0.3073  0.0321
13687TIP3    H162552   0.630   0.440   6.136 -0.8884 -1.3751  0.0535
13687TIP3    H262553   0.513   0.420   6.230  1.4121  0.1993  3.3161
13688TIP3   OH262554   3.324   4.922  16.160  0.1188 -0.0827 -0.5260
13688TIP3    H162555   3.323   4.945  16.253  0.9672  0.6106 -0.6794
13688TIP3    H262556   3.415   4.934  16.133 -0.1415 -0.1726 -1.4674
13689TIP3   OH262557   5.838   0.755  15.518 -0.2340 -0.3421  0.0382
13689TIP3    H162558   5.925   0.741  15.480  0.7001  2.4722  1.0235
13689TIP3    H262559   5.783   0.780  15.444  0.4359  0.4106 -0.2143
13690TIP3   OH262560   3.828   1.140   4.115 -0.5474 -0.2739 -0.1082
13690TIP3    H162561   3.815   1.225   4.157  0.3880 -0.3052  0.2577
13690TIP3    H262562   3.917   1.114   4.141  0.1314 -0.2021 -2.2733
13691TIP3   OH262563   4.713   4.985   2.448  0.1525 -0.2151 -0.8816
13691TIP3    H162564   4.669   5.069   2.437  1.5539  0.6321 -0.0818
13691TIP3    H262565   4.727   4.953   2.359 -0.8983  0.1048 -1.1745
13692TIP3   OH262566   2.480   4.161   5.847  0.2608  0.4704  0.5013
13692TIP3    H162567   2.408   4.208   5.888 -2.0833 -1.6513 -1.0426
13692TIP3    H262568   2.545   4.151   5.917 -2.5640 -0.9131  3.0373
13693TIP3   OH262569   3.317   2.109  11.405 -0.1786  0.4498 -0.3270
13693TIP3    H162570   3.383   2.039  11.404  1.0986  1.6219 -0.1917
13693TIP3    H262571   3.248   2.078  11.347  1.0310 -0.3077 -1.3844
13694TIP3   OH262572   5.493   3.845  15.702 -0.6452  0.5237  0.0355
13694TIP3    H162573   5.493   3.783  15.629  0.6179  1.7621 -1.0624
13694TIP3    H262574   5.508   3.930  15.661  0.0077  1.2542  1.7360
13695TIP3   OH262575   6.110   4.111  12.197  0.1089  0.7666 -0.1675
13695TIP3    H162576   6.134   4.101  12.105 -0.5381 -1.1097 -0.1482
13695TIP3    H262577   6.046   4.041  12.213  0.4257  0.9016  1.7747
13696TIP3   OH262578   5.582   3.540   3.749  0.0195 -0.4246 -0.3758
13696TIP3    H162579   5.520   3.594   3.799 -1.5671 -2.0827 -0.5056
13696TIP3    H262580   5.624   3.485   3.815  1.9669  1.2066 -0.1820
13697TIP3   OH262581   4.537   1.435   5.588  0.1744 -0.0231  0.9907
13697TIP3    H162582   4.617   1.463   5.632  1.0982 -0.0754 -0.6262
13697TIP3    H262583   4.564   1.416   5.498 -2.3409  3.8986 -0.7590
13698TIP3   OH262584   4.689   2.327  10.716  0.4213  0.0616 -0.4742
13698TIP3    H162585   4.596   2.348  10.731  0.5446  0.2136  0.0981
13698TIP3    H262586   4.727   2.410  10.689  1.0330  0.7634  2.3623
13699TIP3   OH262587   0.003   3.015   0.653  0.1305 -0.0413 -0.7799
13699TIP3    H162588  -0.053   3.067   0.595  2.1124  0.4726 -2.2910
13699TIP3    H262589   0.092   3.041   0.630  0.9867  0.2820  2.6309
13700TIP3   OH262590   3.874   4.842  12.236  0.1279  0.0806  0.4561
13700TIP3    H162591   3.828   4.905  12.292 -2.6565 -0.4793 -1.0744
13700TIP3    H262592   3.860   4.757  12.278 -2.6243 -0.4485 -1.3407
13701TIP3   OH262593   1.031   3.189   5.141 -0.6277 -0.3887  0.0404
13701TIP3    H162594   1.002   3.250   5.073 -1.0654 -0.8832 -0.2139
13701TIP3    H262595   1.121   3.167   5.116 -0.3796  0.3259  0.2612
13702TIP3   OH262596   6.538   2.339  17.171  0.5876 -0.0464  0.6331
13702TIP3    H162597   6.624   2.354  17.211  0.7016 -0.6999  0.6380
13702TIP3    H262598   6.476   2.377  17.233  0.9239  1.2452  0.1864
13703TIP3   OH262599   2.014   3.545   5.152 -0.5307  0.2078 -0.1451
13703TIP3    H162600   2.040   3.522   5.063 -0.9690  2.0766 -0.7695
13703TIP3    H262601   1.931   3.500   5.165 -0.7681  0.4229 -0.9089
13704TIP3   OH262602   3.409   2.251   6.251 -0.2562 -0.0991 -0.1579
13704TIP3    H162603   3.437   2.160   6.258  1.2594  0.3405 -0.3886
13704TIP3    H262604   3.390   2.277   6.341  1.2837 -0.0311  0.1497
13705TIP3   OH262605   4.938   5.515  17.014  0.0477 -0.5227 -0.0064
13705TIP3    H162606   5.028   5.489  16.997  0.4245  0.7313  0.0005
13705TIP3    H262607   4.943   5.609  17.032 -1.0181 -0.7963  1.8446
13706TIP3   OH262608   5.626   4.989   4.904  0.1433 -0.2696 -0.4437
13706TIP3    H162609   5.597   4.977   4.994 -0.4408 -0.9115 -0.7175
13706TIP3    H262610   5.547   5.011   4.855  0.5274  0.5158 -0.7255
13707TIP3   OH262611   3.742   1.097   2.425  0.1219  0.1497  0.2981
13707TIP3    H162612   3.715   1.162   2.489  0.5610 -1.3677  2.0735
13707TIP3    H262613   3.711   1.014   2.461 -0.1200 -0.6623 -1.7383
13708TIP3   OH262614   5.164   4.943  16.985  0.5264  0.0692 -0.5639
13708TIP3    H162615   5.146   5.031  17.017  0.6774 -0.5207  1.1832
13708TIP3    H262616   5.236   4.911  17.039 -0.1454 -1.4743 -0.5501
13709TIP3   OH262617   4.168   1.371  15.206 -0.0251 -0.0703  0.1573
13709TIP3    H162618   4.174   1.293  15.151  1.5933  0.2369 -0.1394
13709TIP3    H262619   4.209   1.345  15.289 -0.4845  0.1264  0.4488
13710TIP3   OH262620   2.572   2.018  11.129  0.2089  0.1250  0.3544
13710TIP3    H162621   2.620   2.076  11.070 -2.2011 -1.6205 -3.5196
13710TIP3    H262622   2.592   1.930  11.097 -3.0214 -0.7659  0.5739
13711TIP3   OH262623   5.353   5.157  16.297  0.1626 -0.0113 -1.0081
13711TIP3    H162624   5.401   5.110  16.228  0.8841  1.0537 -1.2641
13711TIP3    H262625   5.421   5.208  16.341 -0.5848  0.6906 -0.6711
13712TIP3   OH262626   2.897   6.777   1.757  0.4523 -0.3692 -0.0639
13712TIP3    H162627   2.966   6.720   1.791 -0.4791 -0.7030  1.3307
13712TIP3    H262628   2.820   6.756   1.810 -0.6637  0.1723 -1.4212
13713TIP3   OH262629   5.789   1.831  11.810  0.2458 -0.1272  0.4931
13713TIP3    H162630   5.756   1.750  11.846  2.4975 -0.1787  2.5668
13713TIP3    H262631   5.801   1.889  11.885  1.3223  1.1465 -0.6108
13714TIP3   OH262632   0.894   0.163  16.531  0.4537 -0.8166 -0.4795
13714TIP3    H162633   0.980   0.192  16.502  0.5776 -1.4903 -0.7954
13714TIP3    H262634   0.864   0.103  16.462 -0.7295  0.2513 -0.9251
13715TIP3   OH262635   3.064   6.588   0.989  0.3311  0.2499 -0.4401
13715TIP3    H162636   3.013   6.662   0.954 -0.2010  0.1872  0.1879
13715TIP3    H262637   3.037   6.582   1.081 -1.0568 -1.9339 -0.9690
13716TIP3   OH262638   1.713   1.928   0.449 -0.4358  0.2933 -0.0567
13716TIP3    H162639   1.808   1.918   0.441 -0.7064 -2.5399 -0.3496
13716TIP3    H262640   1.701   2.010   0.497  2.1480  0.6955 -0.0378
13717TIP3   OH262641   5.911   0.364   2.491  0.7031  0.2103 -0.6134
13717TIP3    H162642   5.892   0.272   2.512 -1.1740  0.3014 -1.7307
13717TIP3    H262643   5.870   0.414   2.561  2.1225  0.1903  0.2424
13718TIP3   OH262644   0.737   1.595  14.722 -0.3018  0.2816 -0.5647
13718TIP3    H162645   0.761   1.538  14.795 -1.4667  0.6636  0.1246
13718TIP3    H262646   0.716   1.535  14.650  0.3791 -0.1054 -0.4419
13719TIP3   OH262647   0.510   0.119  17.128 -0.6532 -0.2285 -0.1764
13719TIP3    H162648   0.508   0.073  17.044  2.4145  0.1907 -0.5113
13719TIP3    H262649   0.584   0.081  17.175  1.3646  3.6022 -0.0667
13720TIP3   OH262650   3.636   0.723   5.562 -0.6032  0.0792 -0.7478
13720TIP3    H162651   3.671   0.791   5.504 -0.1806 -0.1252 -0.7407
13720TIP3    H262652   3.703   0.714   5.630 -0.4731 -0.6131 -0.9605
13721TIP3   OH262653   4.681   4.528   5.218 -0.0521  0.1064 -0.1126
13721TIP3    H162654   4.711   4.439   5.202 -0.8045 -0.3647  1.0437
13721TIP3    H262655   4.597   4.534   5.173  0.3540  0.4899 -0.8393
13722TIP3   OH262656   6.799   1.945  14.666 -0.8890 -0.3499 -0.2082
13722TIP3    H162657   6.821   2.029  14.628 -1.2081  0.7265  1.9015
13722TIP3    H262658   6.876   1.890  14.651 -0.2641  0.6353 -0.6419
13723TIP3   OH262659   5.890   3.327   0.054  0.0628 -0.6476  0.0440
13723TIP3    H162660   5.884   3.314  -0.041  0.1440 -0.8472  0.0683
13723TIP3    H262661   5.970   3.377   0.066  0.4083 -1.2064  0.0704
13724TIP3   OH262662   4.283   4.850   0.374 -0.2068 -0.0980 -0.0346
13724TIP3    H162663   4.355   4.831   0.434  0.4560  1.1828 -0.3958
13724TIP3    H262664   4.266   4.768   0.329  2.0299 -0.0627 -1.0084
13725TIP3   OH262665   1.296   2.211  17.287 -0.8735 -0.8627  0.3975
13725TIP3    H162666   1.228   2.279  17.282  0.0436 -0.0710 -2.0730
13725TIP3    H262667   1.261   2.137  17.238 -0.3119 -0.7383 -0.2114
13726TIP3   OH262668   2.908   0.987   2.022  0.3850  0.1626 -0.1531
13726TIP3    H162669   2.894   1.035   1.941 -0.7299  0.8584  0.4283
13726TIP3    H262670   2.956   0.908   1.996 -0.8168 -0.1093 -1.6329
13727TIP3   OH262671   1.792   5.014  12.297  0.0958 -0.1371  0.3293
13727TIP3    H162672   1.719   5.068  12.328 -0.8212  0.2890 -2.4057
13727TIP3    H262673   1.819   5.056  12.215  1.1035 -2.3124 -0.4939
13728TIP3   OH262674   0.351   2.101   6.222  0.1285 -0.5070 -0.1904
13728TIP3    H162675   0.349   2.015   6.179 -0.1378 -1.0508  0.8687
13728TIP3    H262676   0.368   2.163   6.152 -1.1874 -1.2823 -1.2255
13729TIP3   OH262677   3.690   6.051   4.460  0.0851  0.5585  0.2871
13729TIP3    H162678   3.669   5.989   4.531 -0.7962  0.9708  0.3924
13729TIP3    H262679   3.741   6.120   4.502 -2.3402  1.9803  1.0239
13730TIP3   OH262680   1.254   5.732   5.606  0.0981  0.4572 -0.1093
13730TIP3    H162681   1.188   5.688   5.659 -0.4444  0.7929 -0.5045
13730TIP3    H262682   1.327   5.747   5.666  0.0197 -0.3687  0.1978
13731TIP3   OH262683   1.940   1.341   4.881 -0.2767  0.0224 -0.4083
13731TIP3    H162684   1.966   1.402   4.950  0.4894  0.4955 -1.1071
13731TIP3    H262685   1.947   1.392   4.800 -1.7894 -0.3419 -0.7749
13732TIP3   OH262686   6.054   3.538  13.145  0.1836 -0.2133  0.3272
13732TIP3    H162687   6.037   3.464  13.087  0.5112  0.5632 -0.7882
13732TIP3    H262688   6.149   3.545  13.148  0.1551  0.9175 -0.5953
13733TIP3   OH262689   4.579   2.423   1.553  0.0257  0.0805  0.5756
13733TIP3    H162690   4.567   2.350   1.492 -1.0965  0.7820 -0.0457
13733TIP3    H262691   4.674   2.439   1.551  0.4557 -2.0873  1.5881
13734TIP3   OH262692   2.115   0.724  15.072  0.3720  0.0902  0.1466
13734TIP3    H162693   2.136   0.773  15.152  0.0805 -0.0216  0.2892
13734TIP3    H262694   2.099   0.635  15.102 -0.6870  0.2551  0.0796
13735TIP3   OH262695   0.653   5.242   4.327 -0.0264  0.0984  0.1920
13735TIP3    H162696   0.664   5.267   4.419 -0.1487  1.2039 -0.0828
13735TIP3    H262697   0.735   5.198   4.305  0.6084  1.1308  0.4345
13736TIP3   OH262698   6.752   3.181   0.155  0.1529  0.0858  0.2655
13736TIP3    H162699   6.810   3.165   0.080 -0.8516 -0.0766 -0.4800
13736TIP3    H262700   6.738   3.094   0.193 -1.4726 -0.1900 -0.9459
13737TIP3   OH262701   0.928   0.892   1.907 -0.1065  0.7960  0.7385
13737TIP3    H162702   1.001   0.952   1.923  0.1064  0.5944  0.5294
13737TIP3    H262703   0.967   0.821   1.856 -0.3090  0.3752  1.1766
13738TIP3   OH262704   5.108   4.035   5.786 -0.1412  0.4156  0.3099
13738TIP3    H162705   5.159   4.110   5.753 -0.8723  0.1247 -1.5561
13738TIP3    H262706   5.086   4.059   5.876  1.4439  1.4959  0.4473
13739TIP3   OH262707   6.254   3.398  13.718  0.4144  0.0013 -0.0970
13739TIP3    H162708   6.274   3.305  13.712 -2.6273 -0.5648 -2.6617
13739TIP3    H262709   6.224   3.410  13.808  3.3457 -0.8953  1.0612
13740TIP3   OH262710   4.187   6.697   4.452  0.1357 -0.4681 -0.4837
13740TIP3    H162711   4.269   6.729   4.413 -0.3508  1.6208  0.1092
13740TIP3    H262712   4.163   6.621   4.399  1.5503 -0.0750 -1.7461
13741TIP3   OH262713   2.272   3.572   6.268 -0.5051  0.1997  0.0126
13741TIP3    H162714   2.323   3.629   6.210 -0.8735  0.9759  0.4496
13741TIP3    H262715   2.302   3.484   6.247  0.5144  0.5988 -0.2350
13742TIP3   OH262716   1.482   0.686  16.066  0.8619  0.0662  0.2751
13742TIP3    H162717   1.447   0.754  16.124  1.6072 -0.4959  1.3987
13742TIP3    H262718   1.569   0.718  16.041  1.5004 -0.8085  1.3780
13743TIP3   OH262719   3.173   2.083  13.637 -0.5151 -0.1110  0.1007
13743TIP3    H162720   3.145   2.106  13.726  0.5118 -1.1693  0.7107
13743TIP3    H262721   3.147   1.991  13.628  0.4210 -0.3430 -0.2609
13744TIP3   OH262722   6.571   3.684  12.511 -0.1887  0.1176  0.4798
13744TIP3    H162723   6.592   3.597  12.544  1.1941 -0.5480 -1.9889
13744TIP3    H262724   6.618   3.744  12.568  0.6514 -0.8670  0.8368
13745TIP3   OH262725   3.026   1.109   4.353 -0.1846  0.4873 -0.2043
13745TIP3    H162726   2.981   1.043   4.300 -1.0257 -0.1905  1.3203
13745TIP3    H262727   2.963   1.180   4.361  0.1364  0.8092 -0.5523
13746TIP3   OH262728   0.231   2.169   0.966  0.8054 -0.3614  0.1252
13746TIP3    H162729   0.267   2.225   1.035  0.9342  2.2018 -1.9714
13746TIP3    H262730   0.166   2.115   1.011  0.3292  1.8054  2.1462
13747TIP3   OH262731   5.010   5.305  14.343 -0.5052  0.0606  0.3226
13747TIP3    H162732   4.992   5.211  14.340 -1.0243  0.1859 -1.3539
13747TIP3    H262733   5.105   5.311  14.339 -0.4891 -0.3868 -0.1021
13748TIP3   OH262734   3.544   5.120   5.851  0.4265  0.2377 -0.6183
13748TIP3    H162735   3.517   5.064   5.779  0.8904 -1.1161  0.2262
13748TIP3    H262736   3.519   5.071   5.930  1.1958  1.0442  0.1392
13749TIP3   OH262737   4.043   0.688   3.912 -0.4817  0.4968  0.1668
13749TIP3    H162738   4.129   0.695   3.870 -0.4696  2.2434  0.4366
13749TIP3    H262739   3.984   0.738   3.855 -1.3705 -0.8592 -0.1219
13750TIP3   OH262740   0.778   3.696   5.709 -0.3247 -0.1703 -0.0576
13750TIP3    H162741   0.757   3.603   5.720  0.2913 -0.1863  0.9820
13750TIP3    H262742   0.807   3.725   5.795  1.3731  0.5045 -0.8257
13751TIP3   OH262743   6.625   5.568  13.959 -0.1848 -0.2402 -0.1911
13751TIP3    H162744   6.705   5.524  13.987 -0.7690 -1.2378 -0.0674
13751TIP3    H262745   6.565   5.497  13.936 -0.9051  0.5028 -0.6527
13752TIP3   OH262746   4.563   4.920  12.151  0.7844 -0.0042 -0.5144
13752TIP3    H162747   4.539   4.869  12.229  2.4264 -1.0764 -0.6760
13752TIP3    H262748   4.658   4.908  12.143  0.3011 -2.2065 -4.2561
13753TIP3   OH262749   6.608   4.286  16.211 -0.7361  0.6890 -0.2338
13753TIP3    H162750   6.690   4.323  16.243 -1.4835  1.7817  0.4372
13753TIP3    H262751   6.584   4.341  16.136  0.5864 -1.3605 -2.2687
13754TIP3   OH262752   3.556   1.457   5.776 -0.7262  0.0928  0.4292
13754TIP3    H162753   3.597   1.522   5.833 -0.5570  1.2249 -0.9494
13754TIP3    H262754   3.519   1.392   5.835 -0.3971  1.1539  1.8073
13755TIP3   OH262755   3.110   0.082  12.832 -0.3272 -0.5577  0.2243
13755TIP3    H162756   3.170   0.154  12.814 -2.3222  1.0225 -0.2124
13755TIP3    H262757   3.086   0.047  12.746  1.1166 -2.1900  0.4496
13756TIP3   OH262758   1.951   2.250   6.080 -0.0865  0.7177  0.0379
13756TIP3    H162759   1.890   2.289   6.017  1.5844  3.4626  0.0349
13756TIP3    H262760   1.932   2.294   6.163 -0.8145 -1.3288  0.9932
13757TIP3   OH262761   4.574   2.015   2.925 -0.4776 -0.1019 -0.0137
13757TIP3    H162762   4.539   2.104   2.921 -2.6371 -0.8112  2.0739
13757TIP3    H262763   4.520   1.965   2.863  0.8364  0.0287 -1.3053
13758TIP3   OH262764   5.602   1.848   1.704  0.2919  0.1964  0.2218
13758TIP3    H162765   5.588   1.937   1.736 -0.5187  0.5216 -1.0105
13758TIP3    H262766   5.579   1.852   1.611  1.1235 -1.0908 -0.0542
13759TIP3   OH262767   2.038   6.642  12.436 -0.2417  0.1937  0.2203
13759TIP3    H162768   1.996   6.700  12.373  1.8113 -0.6114 -1.9410
13759TIP3    H262769   2.062   6.564  12.386  2.0245 -0.2100  1.8514
13760TIP3   OH262770   3.703   6.357   1.976 -0.0262  0.0726 -0.0312
13760TIP3    H162771   3.703   6.288   1.909  1.3915  0.5043 -0.4958
13760TIP3    H262772   3.676   6.436   1.928  0.2448  0.2287  0.0757
13761TIP3   OH262773   6.423   0.687   2.497  0.1312  0.3587  1.0173
13761TIP3    H162774   6.345   0.634   2.510  0.4062  0.0851  1.6237
13761TIP3    H262775   6.391   0.775   2.478 -0.3255  0.0384  0.3207
13762TIP3   OH262776   3.816   3.702   3.291 -0.0978 -0.5239 -0.1668
13762TIP3    H162777   3.760   3.642   3.341  0.5075 -1.6754 -0.8312
13762TIP3    H262778   3.881   3.644   3.250  1.4252  0.7560  0.4004
13763TIP3   OH262779   6.768   4.486   4.627 -0.7831  0.2881 -0.6885
13763TIP3    H162780   6.727   4.517   4.707 -0.3864  1.1781 -0.8223
13763TIP3    H262781   6.737   4.546   4.559  1.6483  1.7713 -0.5905
13764TIP3   OH262782   1.164   6.393  16.166 -0.7207  0.1624 -0.2537
13764TIP3    H162783   1.204   6.440  16.239 -0.2232 -0.4565 -0.1274
13764TIP3    H262784   1.213   6.311  16.160 -0.0712  0.6566 -1.9482
13765TIP3   OH262785   3.483   0.299   1.903  0.4518 -0.5024 -0.3290
13765TIP3    H162786   3.408   0.281   1.960  0.6006  1.0798  0.3906
13765TIP3    H262787   3.538   0.360   1.953  1.1726  0.0012 -1.6952
13766TIP3   OH262788   0.715   3.465  12.103  0.2109 -0.2857 -0.6375
13766TIP3    H162789   0.709   3.545  12.051 -1.8121 -1.0056 -1.5969
13766TIP3    H262790   0.683   3.396  12.044  0.3667 -1.5471  0.7133
13767TIP3   OH262791   2.183   5.597   0.495 -0.1533 -0.1556  0.2608
13767TIP3    H162792   2.148   5.638   0.416 -2.0269  1.8834  2.0511
13767TIP3    H262793   2.132   5.517   0.505 -1.2117  0.5254  0.3989
13768TIP3   OH262794   0.719   6.108   3.979 -0.5155  0.0751 -0.5406
13768TIP3    H162795   0.730   6.160   3.899  3.6912 -0.5227 -0.4823
13768TIP3    H262796   0.715   6.017   3.948 -1.5869  0.0177 -0.2383
13769TIP3   OH262797   2.036   0.387  11.360  0.7058 -0.1001  0.2477
13769TIP3    H162798   2.114   0.332  11.349  0.2955 -0.6102 -0.1706
13769TIP3    H262799   1.978   0.335  11.417  0.7027  0.3084  0.6208
13770TIP3   OH262800   1.665   4.266  13.535  0.8666 -0.3079  0.1896
13770TIP3    H162801   1.618   4.314  13.603  0.4786  0.7696 -0.8144
13770TIP3    H262802   1.618   4.183  13.528  1.2005 -0.6131  1.5589
13771TIP3   OH262803   2.026   3.068   0.967 -0.5532  0.1069  0.5509
13771TIP3    H162804   2.025   3.010   0.890  0.8504  0.0947  0.5278
13771TIP3    H262805   2.119   3.083   0.984 -0.8856  2.5453  0.4223
13772TIP3   OH262806   4.789   4.445   0.268 -0.3578 -0.7129  0.0781
13772TIP3    H162807   4.800   4.351   0.287 -0.1424 -0.3578  1.8255
13772TIP3    H262808   4.708   4.469   0.313  0.0091  0.1125  0.3006
13773TIP3   OH262809   6.060   5.010   1.790  1.0370 -0.2541  0.0203
13773TIP3    H162810   6.154   5.002   1.775  0.8799 -0.4406 -0.9340
13773TIP3    H262811   6.033   5.080   1.730  0.8965  1.1838  1.7253
13774TIP3   OH262812   1.530   1.076  15.798  0.0201  0.7361  0.4982
13774TIP3    H162813   1.547   0.989  15.834  2.7440  0.3205 -1.5942
13774TIP3    H262814   1.595   1.133  15.840 -1.3766  1.6410  1.4375
13775TIP3   OH262815   5.996   2.396   3.074  0.0902 -0.6113  0.1205
13775TIP3    H162816   6.090   2.412   3.085  0.2362  1.0239 -2.9057
13775TIP3    H262817   5.988   2.301   3.067  1.7170 -0.6670 -1.1277
13776TIP3   OH262818   5.853   4.756  11.930 -0.1941 -1.0431 -0.1433
13776TIP3    H162819   5.849   4.669  11.892 -0.7941 -2.1053  2.2281
13776TIP3    H262820   5.869   4.815  11.856 -0.6645 -3.0617 -1.8874
13777TIP3   OH262821   0.428   4.381   2.789  0.0685 -0.8034 -0.0917
13777TIP3    H162822   0.406   4.473   2.807  1.9333 -0.2119 -0.6958
13777TIP3    H262823   0.454   4.345   2.873 -2.2437 -1.2542  0.4565
13778TIP3   OH262824   2.560   4.898  14.024  0.0704 -0.0035 -0.1187
13778TIP3    H162825   2.523   4.948  14.097  0.6521 -0.8489  0.7697
13778TIP3    H262826   2.654   4.902  14.038  0.2197  0.4452 -1.2473
13779TIP3   OH262827   3.742   6.036  12.101 -0.2883  0.1099  0.2553
13779TIP3    H162828   3.729   6.049  12.195  0.0863  1.6885  0.0986
13779TIP3    H262829   3.654   6.022  12.066 -0.4945  0.1687  0.7514
13780TIP3   OH262830   0.442   1.758  14.852 -0.4349  0.2252 -0.3622
13780TIP3    H162831   0.502   1.776  14.779  0.2858 -1.0397 -0.1062
13780TIP3    H262832   0.494   1.706  14.913 -1.3542  0.3828  0.5713
13781TIP3   OH262833   4.015   0.952  12.741  0.1686 -0.1057 -0.3118
13781TIP3    H162834   3.944   1.014  12.722 -0.5257 -0.9451 -0.4777
13781TIP3    H262835   4.082   0.972  12.676 -1.3256 -1.5594 -2.3321
13782TIP3   OH262836   2.394   0.232   5.098 -0.0516  0.4318  0.1470
13782TIP3    H162837   2.381   0.309   5.042 -0.1090  0.8705  0.7541
13782TIP3    H262838   2.311   0.185   5.094 -0.6731  1.3827  1.2313
13783TIP3   OH262839   3.253   4.847  15.528  0.0412  0.0361 -0.1171
13783TIP3    H162840   3.344   4.854  15.499 -0.0329 -0.3172 -0.4355
13783TIP3    H262841   3.219   4.936  15.524  0.5507  0.2625  0.5842
13784TIP3   OH262842   2.252   2.297  14.089 -0.0945 -0.4237  0.5042
13784TIP3    H162843   2.318   2.348  14.042 -0.2098  0.1397  0.9481
13784TIP3    H262844   2.197   2.261  14.020 -0.2630  0.3959  0.2004
13785TIP3   OH262845   4.516   1.819   2.289  0.4077 -0.2979  0.0457
13785TIP3    H162846   4.477   1.749   2.343  2.2425 -1.4206 -0.0479
13785TIP3    H262847   4.465   1.817   2.208 -2.2216  1.2333  1.5724
13786TIP3   OH262848   6.236   5.597  12.442  0.0746  0.6651  0.2201
13786TIP3    H162849   6.145   5.573  12.462  1.5851 -3.4944  2.8064
13786TIP3    H262850   6.255   5.550  12.360 -0.2834  2.2168 -0.7847
13787TIP3   OH262851   3.046   0.599  13.684  0.0514 -0.8724  0.3520
13787TIP3    H162852   3.117   0.617  13.622  0.8873 -1.5459  1.1035
13787TIP3    H262853   3.039   0.679  13.736  0.9662 -1.1761  0.9562
13788TIP3   OH262854   2.500   6.795   4.595  0.4961 -0.6336 -0.3847
13788TIP3    H162855   2.517   6.731   4.526  1.1477  0.8264 -1.6259
13788TIP3    H262856   2.558   6.769   4.667  2.4431 -0.1324 -1.7355
13789TIP3   OH262857   5.135   6.339  11.180 -0.0837 -0.0382  0.0495
13789TIP3    H162858   5.084   6.310  11.256  0.8142  2.4393  1.6529
13789TIP3    H262859   5.083   6.409  11.141 -0.5780 -1.3540 -1.7133
13790TIP3   OH262860   4.544   3.069  11.556  0.0750  0.0688 -0.2436
13790TIP3    H162861   4.536   2.976  11.536  1.0976  0.0279 -0.4712
13790TIP3    H262862   4.463   3.091  11.602 -0.3135 -0.8545 -0.4901
13791TIP3   OH262863   5.353   2.533   6.144 -0.0754 -0.0819  0.4922
13791TIP3    H162864   5.387   2.560   6.230 -1.2562 -1.5880  1.4617
13791TIP3    H262865   5.265   2.571   6.140 -0.0588 -0.0964 -0.0203
13792TIP3   OH262866   2.985   4.842   5.070  0.2120  0.4408  0.3123
13792TIP3    H162867   2.932   4.771   5.107  0.8811 -0.3655 -0.2552
13792TIP3    H262868   3.053   4.797   5.020  1.1698  1.4786  0.6718
13793TIP3   OH262869   2.283   0.189   0.438 -0.1115  0.2010 -0.4372
13793TIP3    H162870   2.362   0.235   0.465  0.6036 -0.8315 -0.7351
13793TIP3    H262871   2.315   0.118   0.381 -1.1478 -0.9235  0.3577
13794TIP3   OH262872   6.153   2.655  16.009  0.0018 -0.3739  0.1665
13794TIP3    H162873   6.246   2.641  16.024  0.4573  1.0771 -1.1882
13794TIP3    H262874   6.142   2.750  16.013 -1.3857 -0.5197  0.1093
13795TIP3   OH262875   3.879   3.301  11.010  0.2730  0.0411 -0.2331
13795TIP3    H162876   3.820   3.226  11.010 -1.2457  1.2118  1.4384
13795TIP3    H262877   3.878   3.331  10.919 -1.3745 -0.2208 -0.3224
13796TIP3   OH262878   4.455   3.116  13.516  0.0281 -0.1842 -0.1369
13796TIP3    H162879   4.424   3.026  13.511  2.7469 -1.1568 -0.5663
13796TIP3    H262880   4.534   3.117  13.461  0.7303  2.1363  0.8420
13797TIP3   OH262881   1.753   5.887  13.620  0.0596  0.0428  0.2403
13797TIP3    H162882   1.848   5.895  13.622  0.1585 -0.1512 -2.4630
13797TIP3    H262883   1.734   5.843  13.538 -2.2604 -1.7597  1.6880
13798TIP3   OH262884   0.628   5.763  14.424  0.2071 -0.1337 -0.0889
13798TIP3    H162885   0.541   5.753  14.386  0.5886  0.4283 -1.1430
13798TIP3    H262886   0.632   5.855  14.452  0.4439 -0.1729  0.0111
13799TIP3   OH262887   6.267   5.237   6.699 -0.1781 -0.2064 -0.2074
13799TIP3    H162888   6.242   5.170   6.634 -0.0770 -0.5007  0.0563
13799TIP3    H262889   6.345   5.201   6.742  0.1909  0.3290 -0.4359
13800TIP3   OH262890   2.162   4.755   0.080 -0.1642 -0.2173  0.4368
13800TIP3    H162891   2.121   4.673   0.108 -1.1193 -0.1695 -0.7979
13800TIP3    H262892   2.115   4.780   0.001  1.6826  0.2953 -0.5232
13801TIP3   OH262893   3.685   6.594  12.361  0.7348 -0.1474 -0.6746
13801TIP3    H162894   3.636   6.669  12.328  1.7193  1.0455  0.4634
13801TIP3    H262895   3.703   6.616  12.453 -0.5568 -2.6358  0.2111
13802TIP3   OH262896   4.972   3.930   3.280  0.0623 -0.1856  0.0026
13802TIP3    H162897   5.049   3.922   3.336 -0.0246  1.3667  0.3632
13802TIP3    H262898   5.008   3.942   3.192  0.2400  1.0514  0.2420
13803TIP3   OH262899   4.683   6.000  12.230  0.4651 -0.3643 -0.5864
13803TIP3    H162900   4.624   5.945  12.179 -0.9496 -0.3533  1.0071
13803TIP3    H262901   4.740   5.937  12.276  0.2715 -0.4350 -0.4437
13804TIP3   OH262902   5.827   5.209  13.829 -0.0125 -0.4861 -0.0532
13804TIP3    H162903   5.890   5.199  13.900 -0.1278  0.3579  0.1721
13804TIP3    H262904   5.741   5.202  13.871 -0.0823  0.4892 -0.0422
13805TIP3   OH262905   6.588   5.598   0.413  0.1633  0.1059 -0.5580
13805TIP3    H162906   6.499   5.563   0.411  0.5122 -0.8100  0.1016
13805TIP3    H262907   6.595   5.644   0.496  0.6611 -0.7431 -0.1284
13806TIP3   OH262908   2.590   3.455   4.824 -0.0197 -0.1881 -0.7829
13806TIP3    H162909   2.669   3.454   4.769  0.1603 -0.6026 -0.5203
13806TIP3    H262910   2.617   3.497   4.905  0.3700 -1.7639 -0.0629
13807TIP3   OH262911   3.837   2.628  11.520 -0.1010  0.2963  0.5835
13807TIP3    H162912   3.781   2.658  11.591  1.7885  2.4033  1.2470
13807TIP3    H262913   3.924   2.621  11.560  1.8460  5.3550 -2.2970
13808TIP3   OH262914   5.588   1.034  15.725  0.3354  0.0012  0.1394
13808TIP3    H162915   5.551   0.998  15.644  0.2231  0.6138 -0.0859
13808TIP3    H262916   5.538   0.992  15.795 -1.2789  1.3483 -0.1764
13809TIP3   OH262917   3.605   1.271   1.956 -0.7519  0.3497  0.2774
13809TIP3    H162918   3.636   1.225   2.034 -1.3984  1.0263  0.9504
13809TIP3    H262919   3.542   1.212   1.916 -1.0545  0.3485  0.7491
13810TIP3   OH262920   4.831   4.124   1.304  0.3435 -0.1518 -0.1066
13810TIP3    H162921   4.786   4.148   1.385 -0.0785 -0.5700 -0.2170
13810TIP3    H262922   4.855   4.208   1.264  0.2211  0.0600  0.2614
13811TIP3   OH262923   4.664   5.845  10.598 -0.4326 -0.3770 -0.2026
13811TIP3    H162924   4.757   5.830  10.615 -0.0255 -0.8222 -2.5717
13811TIP3    H262925   4.658   5.939  10.580 -0.0431 -0.6625 -2.0240
13812TIP3   OH262926   3.581   4.992  14.434  0.2166  0.5137 -0.6189
13812TIP3    H162927   3.509   4.931  14.413  0.9476 -0.5563 -0.1039
13812TIP3    H262928   3.537   5.075  14.452 -0.7854  0.2170 -1.6264
13813TIP3   OH262929   0.798   3.914   5.346  0.1645  0.3058  0.1221
13813TIP3    H162930   0.729   3.852   5.367 -0.8722  1.1118 -0.8629
13813TIP3    H262931   0.753   3.998   5.337  1.4884  1.1320  1.0495
13814TIP3   OH262932   3.956   0.053   2.385 -0.0805 -0.1532 -0.2060
13814TIP3    H162933   3.933   0.134   2.340  0.7226  1.0816  1.5650
13814TIP3    H262934   4.050   0.059   2.399 -0.3804 -0.3108  2.0008
13815TIP3   OH262935   5.818   4.721   5.040 -0.2440 -0.9451 -0.3037
13815TIP3    H162936   5.738   4.697   5.087 -0.0410 -0.6527  0.2058
13815TIP3    H262937   5.808   4.683   4.953 -2.0394  1.1824 -1.0687
13816TIP3   OH262938   5.485   4.856   2.624  0.1533  0.3854 -0.0483
13816TIP3    H162939   5.420   4.919   2.592  0.8780  1.8031  1.2185
13816TIP3    H262940   5.566   4.881   2.581  0.7928  1.3429  1.6562
13817TIP3   OH262941   1.399   4.657  15.568  0.2143 -0.0689 -0.1970
13817TIP3    H162942   1.381   4.714  15.643 -0.3678 -1.2925  0.6208
13817TIP3    H262943   1.457   4.708  15.512  0.8976  0.7638  1.2291
13818TIP3   OH262944   0.986   3.226  14.622 -0.0827  0.0040  0.4075
13818TIP3    H162945   0.994   3.162  14.552  0.2730  1.4563 -0.9129
13818TIP3    H262946   0.893   3.248  14.625  0.0343  0.6079 -0.2363
13819TIP3   OH262947   4.397   3.757  10.753  0.0306  0.3705  0.4089
13819TIP3    H162948   4.368   3.716  10.834 -0.1641  1.3939  0.8649
13819TIP3    H262949   4.350   3.840  10.750 -0.7133 -0.0884 -1.2466
13820TIP3   OH262950   0.154   2.865   3.965 -0.9997 -0.5511 -0.1012
13820TIP3    H162951   0.099   2.886   3.889 -0.6862 -0.8129 -0.4012
13820TIP3    H262952   0.227   2.815   3.928  0.6323  1.7137 -0.0302
13821TIP3   OH262953   4.997   6.433   3.685  0.0479 -0.5077  0.3186
13821TIP3    H162954   4.988   6.487   3.764  2.1939  1.3345 -0.6515
13821TIP3    H262955   4.954   6.350   3.708  1.2842 -0.2989  3.6962
13822TIP3   OH262956   2.949   6.334  16.041 -0.4050 -0.4340 -0.3054
13822TIP3    H162957   3.021   6.339  15.979 -0.6688  2.4753 -0.4156
13822TIP3    H262958   2.949   6.243  16.070  0.0093 -1.7564 -4.2081
13823TIP3   OH262959   4.815   4.190  12.874  0.1510  0.0422  0.3930
13823TIP3    H162960   4.734   4.179  12.826 -0.2691  0.4310  1.0072
13823TIP3    H262961   4.804   4.272  12.923  1.9373  1.5221 -1.5684
13824TIP3   OH262962   0.810   0.695   5.571 -0.2660  0.8095 -0.0049
13824TIP3    H162963   0.889   0.723   5.525 -0.9875  0.9250 -1.2167
13824TIP3    H262964   0.738   0.731   5.518 -1.2268 -2.4816 -1.1177
13825TIP3   OH262965   5.014   1.443   0.155 -0.7277  0.3351  0.6307
13825TIP3    H162966   4.919   1.452   0.166 -0.7153  1.4870 -0.1303
13825TIP3    H262967   5.040   1.520   0.105  0.4855 -0.4211  0.0659
13826TIP3   OH262968   0.068   4.887  14.209  0.3488 -0.0964  0.3011
13826TIP3    H162969   0.163   4.896  14.195  0.2164 -0.4307 -0.8550
13826TIP3    H262970   0.057   4.798  14.242  0.3982 -0.1922  0.0613
13827TIP3   OH262971   4.620   6.393  14.055  0.2189 -0.4334 -0.8299
13827TIP3    H162972   4.631   6.405  14.150  0.3466 -1.3859 -0.7225
13827TIP3    H262973   4.540   6.341  14.047  0.3823 -0.6196 -1.2318
13828TIP3   OH262974   2.733   0.998  15.095 -0.3759  0.3388 -0.2617
13828TIP3    H162975   2.725   0.999  15.000 -2.8666 -0.7332 -0.1089
13828TIP3    H262976   2.685   0.920  15.122  0.7388  0.3511  1.8591
13829TIP3   OH262977   6.813   0.601  17.171  0.7960 -0.0930 -0.6587
13829TIP3    H162978   6.854   0.687  17.168 -0.5973  0.5868 -0.4929
13829TIP3    H262979   6.764   0.595  17.089 -1.8063  0.6508  0.7963
13830TIP3   OH262980   1.264   0.005  16.197  0.2747 -0.7295 -0.1820
13830TIP3    H162981   1.299   0.090  16.172  3.1006 -2.1912 -1.4602
13830TIP3    H262982   1.330  -0.032  16.256 -1.5246 -1.5238  1.3947
13831TIP3   OH262983   3.225   4.021  12.656  0.4823 -0.5628 -0.2417
13831TIP3    H162984   3.185   4.034  12.742  0.1365  0.8851 -0.6044
13831TIP3    H262985   3.156   3.978  12.604  0.0567  0.2149 -0.3210
13832TIP3   OH262986   4.975   2.944  17.262 -0.4365  0.0708  0.6217
13832TIP3    H162987   4.920   3.023  17.267 -0.5314 -0.0261  1.1550
13832TIP3    H262988   4.914   2.873  17.246 -0.2208  0.2641 -1.1755
13833TIP3   OH262989   1.106   4.345   6.122  0.3274 -0.5700 -0.2990
13833TIP3    H162990   1.137   4.365   6.033  0.0876 -0.3963 -0.3440
13833TIP3    H262991   1.011   4.355   6.117  0.3380 -0.2769  0.0471
13834TIP3   OH262992   0.372   5.515   0.122  0.1119 -0.1777 -0.2323
13834TIP3    H162993   0.401   5.539   0.034  2.1276 -2.2247 -0.1555
13834TIP3    H262994   0.417   5.577   0.179 -2.1214  1.9313 -0.6657
13835TIP3   OH262995   0.391   1.990   0.801  0.5050  0.5011 -0.5432
13835TIP3    H162996   0.399   1.902   0.839  0.2924  0.1636 -1.2667
13835TIP3    H262997   0.318   2.029   0.848 -0.8035 -0.4994 -1.6939
13836TIP3   OH262998   3.934   6.328   3.456 -0.4519 -0.0044  0.1195
13836TIP3    H162999   3.960   6.384   3.383 -1.7220 -1.4049 -1.4622
13836TIP3    H263000   3.923   6.388   3.530 -0.6526  1.6634 -1.2325
13837TIP3   OH263001   2.889   4.301  13.982  0.3696 -0.0305  0.1891
13837TIP3    H163002   2.848   4.279  13.899 -0.4870  0.7851  0.3878
13837TIP3    H263003   2.824   4.356  14.027  1.1162  0.1265  1.0834
13838TIP3   OH263004   5.792   4.553  11.290 -0.5428  0.4048  0.9680
13838TIP3    H163005   5.845   4.615  11.240  0.7168 -1.0423  0.4647
13838TIP3    H263006   5.773   4.482  11.228 -2.8934  0.7783  1.2016
13839TIP3   OH263007   5.893   2.758  14.195 -0.3680 -0.2359 -0.3550
13839TIP3    H163008   5.880   2.671  14.157  1.4949  0.4358 -2.6123
13839TIP3    H263009   5.969   2.748  14.252 -0.0936 -0.0677 -0.6909
13840TIP3   OH263010   4.204   1.576   0.993 -0.5207 -0.3620  0.4521
13840TIP3    H163011   4.281   1.522   0.979 -0.2999  0.1449 -0.2964
13840TIP3    H263012   4.234   1.665   0.974 -1.1874 -0.1180  0.5428
13841TIP3   OH263013   1.816   6.196  14.364  0.1117 -0.2808  0.1180
13841TIP3    H163014   1.819   6.112  14.319 -0.9757 -1.0838  1.5120
13841TIP3    H263015   1.896   6.199  14.415 -0.6510 -1.2268  1.3801
13842TIP3   OH263016   6.735   0.496  14.514 -0.1681 -0.0166 -0.0675
13842TIP3    H163017   6.776   0.488  14.600  1.6298 -2.3327 -1.1100
13842TIP3    H263018   6.737   0.590  14.495  3.0602  0.1114  0.7063
13843TIP3   OH263019   5.155   6.440  12.465  0.0808  0.0319  0.2349
13843TIP3    H163020   5.192   6.520  12.427  1.6462 -1.1761 -0.8623
13843TIP3    H263021   5.062   6.459  12.473  0.4632  2.0736  0.2768
13844TIP3   OH263022   2.164   4.729  14.676  0.8503 -0.1673 -0.2756
13844TIP3    H163023   2.230   4.660  14.682 -0.5685 -1.5359 -0.1983
13844TIP3    H263024   2.127   4.735  14.764  0.3881  0.0937 -0.4858
13845TIP3   OH263025   1.596   1.875  13.861 -0.3743  0.4362 -0.3912
13845TIP3    H163026   1.605   1.782  13.883  3.3337  0.7989 -0.0359
13845TIP3    H263027   1.638   1.884  13.776 -1.3505  1.6751 -0.7559
13846TIP3   OH263028   6.259   2.968  17.145 -0.2298 -0.3234 -0.0244
13846TIP3    H163029   6.272   3.043  17.086 -0.3428 -0.0527  0.2930
13846TIP3    H263030   6.348   2.944  17.172 -0.2859  0.5879  0.9782
13847TIP3   OH263031   1.566   3.546   6.225 -0.1363 -0.4754  0.0526
13847TIP3    H163032   1.561   3.634   6.261 -4.1939 -1.1989  1.6248
13847TIP3    H263033   1.621   3.497   6.287  0.7064  0.5355  0.1075
13848TIP3   OH263034   3.884   4.501  13.055  0.0189  0.1521 -0.1470
13848TIP3    H163035   3.788   4.494  13.057  0.0670 -1.5721 -2.1980
13848TIP3    H263036   3.913   4.454  13.133 -0.9078  4.2727  2.8335
13849TIP3   OH263037   3.460   3.940  16.205 -0.0997  0.2160  0.6187
13849TIP3    H163038   3.533   3.957  16.146 -0.4399  0.0357  0.1453
13849TIP3    H263039   3.460   4.015  16.265  1.4276 -0.5382  1.5905
13850TIP3   OH263040   5.672   2.189  12.830  0.1745 -0.1333  0.5743
13850TIP3    H163041   5.755   2.233  12.808  0.0541  0.1794  0.7473
13850TIP3    H263042   5.693   2.136  12.907 -0.0735  0.8460  1.3285
13851TIP3   OH263043   3.914   6.498   3.665  0.2432 -0.4497  0.3492
13851TIP3    H163044   3.821   6.484   3.682 -0.1892  1.8332 -0.0147
13851TIP3    H263045   3.957   6.480   3.749 -0.5876 -0.7530  0.7089
13852TIP3   OH263046   5.648   4.523  15.191  0.1388  0.2689 -0.5252
13852TIP3    H163047   5.597   4.537  15.270 -0.6986 -0.7077 -0.8713
13852TIP3    H263048   5.727   4.478  15.221 -0.2175 -0.1811 -0.2442
13853TIP3   OH263049   4.214   3.549   0.193 -0.2934 -0.1432 -0.5686
13853TIP3    H163050   4.250   3.492   0.260  0.3884  2.2475  1.1589
13853TIP3    H263051   4.286   3.563   0.132  0.2137  0.6100  0.1898
13854TIP3   OH263052   1.773   5.902   5.916 -0.2762  0.4325  0.2473
13854TIP3    H163053   1.802   5.954   5.990  0.0056  0.1887  0.3127
13854TIP3    H263054   1.815   5.943   5.840  2.2483 -1.3583  0.6043
13855TIP3   OH263055   3.939   5.828  15.405 -0.2467 -0.2444 -0.4561
13855TIP3    H163056   3.916   5.853  15.495 -0.3879  0.8847 -0.8028
13855TIP3    H263057   3.928   5.908  15.354 -0.1558 -0.8762 -1.4859
13856TIP3   OH263058   2.579   5.553   3.081 -0.0220  0.6647 -0.0766
13856TIP3    H163059   2.633   5.608   3.139  1.0326  0.1289 -0.5405
13856TIP3    H263060   2.642   5.497   3.036 -0.8841  0.7358 -1.3881
13857TIP3   OH263061   4.207   0.276  16.010 -0.4894 -0.6134  0.3892
13857TIP3    H163062   4.167   0.275  15.924 -0.6267 -1.8950  0.4595
13857TIP3    H263063   4.142   0.315  16.067 -0.3268  0.4093 -0.1148
13858TIP3   OH263064   6.268   1.649  17.109 -0.3697 -0.7615 -0.1126
13858TIP3    H163065   6.223   1.575  17.068 -3.5754 -0.5707  2.8450
13858TIP3    H263066   6.225   1.726  17.071 -0.3313 -0.5308  0.3072
13859TIP3   OH263067   1.207   1.690  15.113 -0.3536  0.4610  0.7233
13859TIP3    H163068   1.134   1.749  15.131  0.4474  1.3933  1.0181
13859TIP3    H263069   1.282   1.749  15.103 -0.0436 -0.2992 -1.7276
13860TIP3   OH263070   1.752   5.964  11.763 -0.1888 -0.0876 -0.6442
13860TIP3    H163071   1.691   6.000  11.699 -2.0396 -1.9978  0.0060
13860TIP3    H263072   1.731   6.010  11.844  0.2062  0.2605 -0.7354
13861TIP3   OH263073   3.305   6.638  11.311 -0.0422  0.3880 -0.4427
13861TIP3    H163074   3.261   6.699  11.370 -0.8077  0.7600 -1.3904
13861TIP3    H263075   3.238   6.574  11.289  0.7007 -0.6683  0.3703
13862TIP3   OH263076   3.068   2.647   4.045  0.6547 -0.4916  0.0433
13862TIP3    H163077   3.000   2.711   4.027  0.6582 -0.7881 -1.0838
13862TIP3    H263078   3.143   2.677   3.993  0.8946 -0.9857  0.0998
13863TIP3   OH263079   0.325   1.064   1.567  0.0424 -0.2290  0.8509
13863TIP3    H163080   0.351   1.026   1.483 -3.6279 -0.1390 -0.4276
13863TIP3    H263081   0.365   1.151   1.567 -0.3397 -0.0141 -1.1030
13864TIP3   OH263082   2.321   1.226   4.690  0.1326  0.1415 -0.1572
13864TIP3    H163083   2.308   1.137   4.659  0.3450 -0.4648  1.4686
13864TIP3    H263084   2.375   1.217   4.768  0.0772  1.6879  0.0731
13865TIP3   OH263085   4.839   3.980  16.044 -0.3546 -0.4402 -0.3266
13865TIP3    H163086   4.774   3.939  15.987  0.1042  0.0767 -1.2458
13865TIP3    H263087   4.811   4.071  16.051 -0.7678 -0.6529  0.8118
13866TIP3   OH263088   1.798   3.318  15.583 -0.5624  0.1736 -0.0974
13866TIP3    H163089   1.836   3.299  15.497  1.0191 -0.6255  0.7707
13866TIP3    H263090   1.717   3.266  15.585 -0.3143 -0.2535 -0.8544
13867TIP3   OH263091   5.109   5.924  10.505 -0.1461 -0.0853 -0.3680
13867TIP3    H163092   5.031   5.975  10.486 -0.3154 -1.1493 -2.6967
13867TIP3    H263093   5.116   5.863  10.432  1.8194 -1.2579  0.7601
13868TIP3   OH263094   4.984   4.805  12.528 -0.3389  0.4575 -0.3517
13868TIP3    H163095   5.068   4.762  12.541 -0.8380 -0.4535 -0.0653
13868TIP3    H263096   4.989   4.843  12.440  0.1719 -0.0695 -0.5511
13869TIP3   OH263097   6.177   5.233  14.907  0.1353  0.1571  0.1045
13869TIP3    H163098   6.148   5.165  14.968  1.6422 -0.7844 -0.2207
13869TIP3    H263099   6.099   5.287  14.893 -1.0028 -1.3448  0.5690
13870TIP3   OH263100   5.411   1.172  14.901  0.4244  0.6608 -0.0767
13870TIP3    H163101   5.503   1.177  14.925  0.8031 -3.5948 -0.3397
13870TIP3    H263102   5.365   1.162  14.984  0.4240  0.0573 -0.1539
13871TIP3   OH263103   3.869   5.928  15.656 -0.1997 -0.1215  0.0897
13871TIP3    H163104   3.953   5.971  15.672 -0.6034  1.0532 -0.8876
13871TIP3    H263105   3.805   5.985  15.698 -0.5090 -1.1337  1.0272
13872TIP3   OH263106   5.273   0.281  12.254  0.1438 -0.2857  0.5644
13872TIP3    H163107   5.327   0.359  12.237 -0.7116  0.1297 -0.3325
13872TIP3    H263108   5.220   0.305  12.330 -1.2407  0.6187 -0.6557
13873TIP3   OH263109   0.775   5.155   2.277  0.2597  0.5419 -0.2938
13873TIP3    H163110   0.727   5.084   2.320 -0.6417  0.8139 -0.8225
13873TIP3    H263111   0.722   5.177   2.200  2.3921 -0.6433 -2.1447
13874TIP3   OH263112   4.179   1.791  12.237  0.0775 -0.0219  0.6800
13874TIP3    H163113   4.111   1.856  12.255 -0.2628 -0.3139  0.4528
13874TIP3    H263114   4.243   1.803  12.307  0.1491  0.7366  0.4931
13875TIP3   OH263115   4.753   5.820  14.334  1.0219  0.2413  0.2789
13875TIP3    H163116   4.838   5.855  14.361  0.5842  1.9205 -0.4216
13875TIP3    H263117   4.690   5.889  14.358  0.3376  0.7035 -2.6098
13876TIP3   OH263118   2.953   2.562   1.782  0.4666 -0.1725 -0.3511
13876TIP3    H163119   2.890   2.622   1.743  0.1746  1.0628  1.9468
13876TIP3    H263120   2.899   2.494   1.823  0.5615  0.8380  1.5406
13877TIP3   OH263121   4.726   1.299  12.601  0.4105 -0.7425  0.8074
13877TIP3    H163122   4.739   1.361  12.530 -0.2413 -2.1033 -0.5359
13877TIP3    H263123   4.673   1.346  12.666 -1.2633 -0.3419 -0.8188
13878TIP3   OH263124   6.687   5.275   2.266  0.1850 -0.3891 -0.5490
13878TIP3    H163125   6.777   5.252   2.285  0.7143  0.4482 -1.9158
13878TIP3    H263126   6.641   5.267   2.349  1.4777 -1.0096  0.1115
13879TIP3   OH263127   1.662   6.469   3.472  0.2838  0.4765 -0.3959
13879TIP3    H163128   1.610   6.413   3.530  2.6632 -1.4514 -0.0449
13879TIP3    H263129   1.599   6.530   3.435 -2.7154 -3.2982 -1.8865
13880TIP3   OH263130   0.784   3.840  16.897  0.4491  0.1604 -0.2287
13880TIP3    H163131   0.735   3.882  16.826 -0.8820 -0.7389  0.1380
13880TIP3    H263132   0.875   3.840  16.867 -0.0070  0.3865 -1.6345
13881TIP3   OH263133   5.068   3.007  16.135  0.4062 -0.6836  0.1513
13881TIP3    H163134   5.145   2.989  16.081  0.0103 -2.0097 -0.0140
13881TIP3    H263135   5.016   2.927  16.128 -0.0572 -0.5411  1.8213
13882TIP3   OH263136   6.294   4.057  15.190 -0.1711  0.6227 -0.0070
13882TIP3    H163137   6.249   4.131  15.148 -2.3417 -0.5845  0.1534
13882TIP3    H263138   6.224   3.996  15.213  1.5175 -1.1006  0.6640
13883TIP3   OH263139   6.651   0.618   4.595  0.0823  0.8329 -0.1700
13883TIP3    H163140   6.631   0.581   4.681  0.7871 -0.2625 -0.4673
13883TIP3    H263141   6.742   0.645   4.600 -0.3933  2.4454  0.0019
13884TIP3   OH263142   2.165   6.419   2.248 -0.9315  0.4200  0.1570
13884TIP3    H163143   2.190   6.510   2.258 -0.6551  0.2548  1.0107
13884TIP3    H263144   2.125   6.396   2.332 -1.7302 -0.0157 -0.3308
13885TIP3   OH263145   5.949   5.947  10.709 -0.5426  0.7220  0.5788
13885TIP3    H163146   5.874   5.889  10.725  0.2834 -0.4184  0.3931
13885TIP3    H263147   6.022   5.887  10.692  0.3174  1.8278  0.3410
13886TIP3   OH263148   0.971   6.759   5.368  0.4317 -0.3921 -0.0529
13886TIP3    H163149   0.899   6.698   5.352 -0.4884  1.1192 -1.7405
13886TIP3    H263150   1.049   6.703   5.371 -0.8510 -2.1287  2.5705
13887TIP3   OH263151   0.824   0.497  16.562  0.0707  0.4837 -0.4713
13887TIP3    H163152   0.881   0.503  16.639  1.5828 -0.5554 -1.4654
13887TIP3    H263153   0.795   0.406  16.561  0.8265  0.2433 -1.6377
13888TIP3   OH263154   0.270   5.153  14.802 -0.0007 -0.4401 -0.5639
13888TIP3    H163155   0.316   5.133  14.884 -0.6489  0.0850 -0.0634
13888TIP3    H263156   0.331   5.208  14.753  1.2227 -2.4320 -1.3350
13889TIP3   OH263157   4.075   4.173  16.609  0.7113 -0.0677 -0.9796
13889TIP3    H163158   4.067   4.137  16.521  0.0433 -1.5400 -0.3256
13889TIP3    H263159   4.127   4.107  16.656  0.4864  0.3892 -0.0966
13890TIP3   OH263160   5.624   6.657   1.043  0.2127 -0.0653 -0.4141
13890TIP3    H163161   5.670   6.736   1.073 -1.2301  0.9619 -0.8240
13890TIP3    H263162   5.546   6.691   0.999 -0.5547 -1.7516 -0.3710
13891TIP3   OH263163   0.447   1.281   0.494 -0.2392 -0.7766 -0.1446
13891TIP3    H163164   0.364   1.237   0.479  0.4047 -1.5982 -1.3521
13891TIP3    H263165   0.485   1.291   0.407  0.9194 -0.3917  0.3981
13892TIP3   OH263166   6.184   1.604   2.224  0.5734 -0.6925  0.3684
13892TIP3    H163167   6.161   1.684   2.177  0.1336 -1.6450 -1.0913
13892TIP3    H263168   6.246   1.560   2.166  1.6304 -0.8988  1.6494
13893TIP3   OH263169   0.234   2.781   2.725 -0.2159  0.1884  0.4729
13893TIP3    H163170   0.290   2.825   2.789 -0.3364 -0.2295  0.8792
13893TIP3    H263171   0.182   2.851   2.685  0.1654  0.5035  0.5297
13894TIP3   OH263172   5.616   3.210   0.132  0.2768  0.2065  0.1453
13894TIP3    H163173   5.541   3.266   0.113  0.1998 -0.1134 -0.4767
13894TIP3    H263174   5.685   3.242   0.074  0.0407 -0.7724 -0.6701
13895TIP3   OH263175   3.053   1.615   2.512  0.4835 -0.3433 -0.2430
13895TIP3    H163176   3.127   1.576   2.466  0.6400  1.0864 -1.2692
13895TIP3    H263177   2.986   1.626   2.444 -1.3476 -3.1939  1.0116
13896TIP3   OH263178   2.790   2.549  17.186 -0.9126  0.4093  0.3587
13896TIP3    H163179   2.814   2.509  17.269  0.8496  2.5841  0.9449
13896TIP3    H263180   2.699   2.577  17.198 -0.3749  1.5538  1.9295
13897TIP3   OH263181   3.205   6.274   5.057 -0.1420 -0.3714 -0.2219
13897TIP3    H163182   3.219   6.362   5.093 -1.0925 -1.0004  1.7231
13897TIP3    H263183   3.275   6.264   4.993  0.3760  1.5552 -0.0105
13898TIP3   OH263184   2.462   1.079  15.817 -0.0922  0.0927 -0.1183
13898TIP3    H163185   2.530   1.106  15.878 -1.9191  2.0854  1.1188
13898TIP3    H263186   2.429   0.996  15.851  2.1434 -1.2487 -1.1235
13899TIP3   OH263187   1.386   2.482   3.883  0.3318  0.0243 -0.1222
13899TIP3    H163188   1.415   2.523   3.801  0.1935  0.6346  0.1311
13899TIP3    H263189   1.454   2.505   3.947  1.0418 -1.4259 -0.3292
13900TIP3   OH263190   0.433   1.704   2.129  0.8455  0.2368  0.4518
13900TIP3    H163191   0.472   1.791   2.139  0.3248  0.2867  2.2354
13900TIP3    H263192   0.358   1.718   2.072  0.3247  1.0932  1.3410
13901TIP3   OH263193   5.664   5.713   2.570 -0.3805 -0.1407  0.1924
13901TIP3    H163194   5.612   5.737   2.493 -1.0767 -0.7171  0.4676
13901TIP3    H263195   5.608   5.650   2.617  1.4673 -2.4591 -0.6370
13902TIP3   OH263196   2.294   6.420  13.215 -0.0302 -0.3032 -0.2806
13902TIP3    H163197   2.236   6.460  13.280 -2.3229 -3.3774 -0.3166
13902TIP3    H263198   2.260   6.451  13.131  0.5980  0.6884 -0.1763
13903TIP3   OH263199   6.137   4.565  13.448  0.6056  0.2667 -0.2899
13903TIP3    H163200   6.187   4.646  13.445 -0.3083  0.8678  0.8501
13903TIP3    H263201   6.145   4.535  13.538 -0.3702 -0.0929 -0.3200
13904TIP3   OH263202   2.676   6.786  10.221 -0.1285  0.1116  0.2974
13904TIP3    H163203   2.654   6.694  10.211 -3.3219  0.6590  1.8120
13904TIP3    H263204   2.663   6.823  10.133 -1.4299 -0.3848  0.2713
13905TIP3   OH263205   3.015   4.559   1.424  0.0050 -0.3384 -0.3806
13905TIP3    H163206   3.046   4.613   1.351  0.9745 -0.2590  0.0676
13905TIP3    H263207   3.059   4.475   1.413  0.4058 -0.2252  0.2720
13906TIP3   OH263208   5.548   0.765   1.565 -0.0206  0.0534 -0.1448
13906TIP3    H163209   5.478   0.751   1.501  1.1979 -0.7404 -1.3073
13906TIP3    H263210   5.557   0.680   1.609  0.0858  0.2193  0.1575
13907TIP3   OH263211   3.961   1.981   3.320 -0.4008  0.2063  1.0199
13907TIP3    H163212   3.950   2.067   3.361 -1.1041  0.3944  0.4473
13907TIP3    H263213   4.000   2.000   3.234 -3.1778  0.2228 -0.3052
13908TIP3   OH263214   6.668   1.727   3.875  0.6499 -0.0990  0.5666
13908TIP3    H163215   6.635   1.770   3.796  1.3705 -0.7513 -0.0938
13908TIP3    H263216   6.647   1.635   3.862  0.8781 -0.2236  1.0846
13909TIP3   OH263217   2.973   4.437   6.149 -0.3832 -0.2480 -0.3200
13909TIP3    H163218   2.884   4.465   6.127  1.1584  4.5029 -1.0588
13909TIP3    H263219   2.973   4.433   6.245 -1.4409 -0.4082 -0.3145
13910TIP3   OH263220   0.450   5.067   4.416 -0.0313  1.0366  0.1070
13910TIP3    H163221   0.438   5.094   4.507  2.0038  0.1348  0.6820
13910TIP3    H263222   0.486   5.145   4.373 -0.8122  1.4055  0.1270
13911TIP3   OH263223   4.603   2.187  13.683  0.2439 -0.5378 -0.0886
13911TIP3    H163224   4.663   2.224  13.748  2.0177 -1.3820 -1.2218
13911TIP3    H263225   4.586   2.258  13.622 -1.5269  0.2987  1.3031
13912TIP3   OH263226   6.205   4.743   4.474 -0.1914 -0.1901 -0.2388
13912TIP3    H163227   6.216   4.696   4.391 -1.3701 -1.0747  0.0964
13912TIP3    H263228   6.219   4.835   4.452  0.5160 -0.5249 -1.2177
13913TIP3   OH263229   4.621   2.432  15.948  0.2953 -0.7460  0.3741
13913TIP3    H163230   4.661   2.487  16.016 -0.4616 -1.2442  1.2263
13913TIP3    H263231   4.610   2.347  15.989 -0.4615 -0.9713 -0.2842
13914TIP3   OH263232   5.912   1.474   2.804 -0.4361 -0.5567  0.3878
13914TIP3    H163233   5.834   1.505   2.758  0.5157  1.6117  0.1802
13914TIP3    H263234   5.878   1.425   2.879 -1.9982  0.7125  0.5263
13915TIP3   OH263235   4.880   4.273   5.023  0.0833 -0.3622  0.0376
13915TIP3    H163236   4.948   4.218   4.984  0.2152 -0.2857  0.1608
13915TIP3    H263237   4.875   4.349   4.965 -0.2953 -0.6298 -0.2927
13916TIP3   OH263238   0.901   6.771  12.339 -0.2487 -0.1432 -0.0108
13916TIP3    H163239   0.984   6.778  12.292 -0.2758  1.9207  0.2127
13916TIP3    H263240   0.835   6.766  12.271 -0.0656 -0.3289 -0.1777
13917TIP3   OH263241   1.297   1.308  11.317  0.0951  0.1236 -0.7148
13917TIP3    H163242   1.246   1.388  11.327 -0.9545 -0.5206 -0.8766
13917TIP3    H263243   1.382   1.338  11.285 -0.1299  1.2150 -0.3230
13918TIP3   OH263244   3.526   0.670  16.015 -0.7614 -0.1621 -0.0755
13918TIP3    H163245   3.588   0.598  16.016 -0.6731 -0.1014 -0.9204
13918TIP3    H263246   3.440   0.627  16.011 -0.6252 -0.2154 -3.4419
13919TIP3   OH263247   1.755   1.811  16.938  0.1611  0.2681 -0.4333
13919TIP3    H163248   1.760   1.904  16.917  1.2340  0.7002  1.6450
13919TIP3    H263249   1.752   1.767  16.853 -0.2214  2.1808 -1.4260
13920TIP3   OH263250   5.865   1.668   4.039  0.1408  0.1877 -0.2374
13920TIP3    H163251   5.838   1.754   4.004 -2.0751 -0.0173  0.8795
13920TIP3    H263252   5.794   1.609   4.013  1.6799 -1.3371 -1.0443
13921TIP3   OH263253   1.602   6.718  11.973  0.2037  0.5981 -0.9503
13921TIP3    H163254   1.681   6.769  11.995  0.1470 -0.3574  1.6692
13921TIP3    H263255   1.620   6.630  12.006 -2.0813  0.4393 -0.0442
13922TIP3   OH263256   5.120   5.850  11.320  0.0420 -0.0420 -1.1185
13922TIP3    H163257   5.148   5.828  11.231  0.8176 -0.6122 -0.7373
13922TIP3    H263258   5.179   5.920  11.347  1.9333 -2.0745  0.1384
13923TIP3   OH263259   4.208   2.841  14.771  0.0009  0.0007  0.2568
13923TIP3    H163260   4.288   2.798  14.802  0.3360  0.8313  0.5800
13923TIP3    H263261   4.151   2.770  14.744  0.6999 -0.6223  0.4042
13924TIP3   OH263262   4.875   0.451  12.158 -0.5505  0.1121 -1.1946
13924TIP3    H163263   4.924   0.506  12.096 -0.6561  1.2424 -0.2969
13924TIP3    H263264   4.914   0.364  12.150 -0.0019  0.4510 -2.2350
13925TIP3   OH263265   5.712   1.593   1.328 -0.1903  0.6038 -0.3218
13925TIP3    H163266   5.758   1.611   1.247  1.9587  0.4850  0.8325
13925TIP3    H263267   5.636   1.651   1.327  0.7864  1.8682 -1.5914
13926TIP3   OH263268   1.267   6.070   6.420 -0.1120 -0.3144 -0.0938
13926TIP3    H163269   1.248   5.976   6.425 -0.4061 -0.2585 -0.1631
13926TIP3    H263270   1.242   6.094   6.331  2.5158 -0.7446 -1.0063
13927TIP3   OH263271   4.602   3.682   5.709  0.5894  0.5692 -0.7557
13927TIP3    H163272   4.667   3.654   5.772  1.5664  0.6277 -1.7232
13927TIP3    H263273   4.653   3.712   5.634 -0.5119  2.2196 -0.8570
13928TIP3   OH263274   3.867   6.014   3.458  0.3374 -0.0013  0.1708
13928TIP3    H163275   3.882   5.999   3.364 -2.2128  1.6477 -0.5594
13928TIP3    H263276   3.897   6.103   3.473 -2.8282  1.1266  0.0308
13929TIP3   OH263277   0.191   0.120  15.812 -0.2177 -0.1930 -0.6350
13929TIP3    H163278   0.261   0.133  15.876 -0.0038  1.9061 -1.2471
13929TIP3    H263279   0.113   0.154  15.855 -0.8006 -2.1328 -0.1213
13930TIP3   OH263280   3.870   6.466   1.316  0.1493  0.1454 -0.0633
13930TIP3    H163281   3.942   6.409   1.344 -1.1392 -1.4093  0.2153
13930TIP3    H263282   3.880   6.473   1.221 -1.0302 -2.5549 -0.4449
13931TIP3   OH263283   1.970   2.137  15.106  0.3050 -0.1036 -0.2782
13931TIP3    H163284   2.027   2.214  15.107  1.1452 -0.6763 -1.8586
13931TIP3    H263285   1.921   2.145  15.024 -1.0436 -0.2360  0.4981
13932TIP3   OH263286   4.885   6.483  12.477 -0.1732 -0.1207  0.1817
13932TIP3    H163287   4.863   6.392  12.460  1.0566 -0.5406  0.8096
13932TIP3    H263288   4.830   6.508  12.551 -0.9303 -0.1727 -0.3580
13933TIP3   OH263289   0.588   4.587   2.209  0.2284 -0.0754 -0.0752
13933TIP3    H163290   0.651   4.637   2.158 -2.3328  0.8309 -2.4766
13933TIP3    H263291   0.607   4.496   2.187  0.2437  0.2249 -1.3648
13934TIP3   OH263292   0.221   6.741   6.279 -0.2561 -0.1186 -0.1143
13934TIP3    H163293   0.267   6.660   6.302  0.5473  0.4905  0.4509
13934TIP3    H263294   0.159   6.754   6.351  0.1503  0.1820  0.1785
13935TIP3   OH263295   2.418   4.303   3.515  0.3054  0.3912 -0.3023
13935TIP3    H163296   2.454   4.215   3.520  1.1800  0.8081  0.9961
13935TIP3    H263297   2.465   4.352   3.582  1.1017  2.3001 -2.2156
13936TIP3   OH263298   3.799   1.782   3.411 -0.0966 -0.2106  0.1927
13936TIP3    H163299   3.705   1.790   3.393  0.0394 -1.2082 -1.0076
13936TIP3    H263300   3.841   1.836   3.344  0.1710  0.7733  1.1371
13937TIP3   OH263301   2.073   2.047   4.810 -0.2200 -0.0753 -0.2579
13937TIP3    H163302   2.168   2.044   4.804 -0.0603  0.8999  1.4114
13937TIP3    H263303   2.053   2.014   4.897 -1.5595 -2.1277 -1.3045
13938TIP3   OH263304   3.889   4.694  14.605 -0.3808 -0.0269 -0.2377
13938TIP3    H163305   3.887   4.789  14.596 -0.2171  0.0964  1.0234
13938TIP3    H263306   3.980   4.670  14.587 -0.1745  0.1659  0.5450
13939TIP3   OH263307   0.274   1.074   1.297  0.3459 -0.4122 -0.9667
13939TIP3    H163308   0.296   0.982   1.282  2.2164 -0.0016 -0.8855
13939TIP3    H263309   0.205   1.071   1.363  0.4716 -1.7577 -0.8730
13940TIP3   OH263310   4.369   0.918   5.740 -0.2690 -0.0334 -0.1091
13940TIP3    H163311   4.429   0.993   5.748  4.2782 -3.0843 -3.1446
13940TIP3    H263312   4.309   0.944   5.670  1.9795  0.4729 -1.9556
13941TIP3   OH263313   3.354   4.983  10.670  0.1354 -0.7155 -0.5149
13941TIP3    H163314   3.292   4.916  10.644 -0.6972 -0.3234  0.4178
13941TIP3    H263315   3.400   5.007  10.590 -0.0449 -1.9036 -0.9709
13942TIP3   OH263316   5.473   0.214  15.619  0.3179 -0.2398 -0.0128
13942TIP3    H163317   5.526   0.240  15.544 -0.4254  1.6770  0.0988
13942TIP3    H263318   5.430   0.133  15.592  1.1110 -0.2895 -1.1394
13943TIP3   OH263319   5.899   2.152  15.602  0.2379 -0.5088 -0.0330
13943TIP3    H163320   5.849   2.087  15.652  1.4766 -0.2904  1.5350
13943TIP3    H263321   5.876   2.235  15.642  2.2850 -0.4643  1.0760
13944TIP3   OH263322   1.893   2.442   0.973  0.0927 -0.1094  0.0199
13944TIP3    H163323   1.798   2.445   0.979  0.1673 -0.2507  1.4563
13944TIP3    H263324   1.919   2.530   0.946 -0.2950  0.7626  2.3130
13945TIP3   OH263325   6.620   2.600   5.295 -0.5362 -0.4722 -0.5467
13945TIP3    H163326   6.701   2.558   5.326 -0.4836 -0.4017 -0.5888
13945TIP3    H263327   6.590   2.545   5.223 -0.8569 -0.8444 -0.1307
13946TIP3   OH263328   2.398   5.843  14.983 -0.3748  0.1928 -0.0511
13946TIP3    H163329   2.377   5.750  14.970  0.8830 -0.2505  0.9298
13946TIP3    H263330   2.347   5.889  14.916 -1.9970 -1.0859  0.2777
13947TIP3   OH263331   6.322   0.615  16.111 -0.2561  0.9089  0.3492
13947TIP3    H163332   6.256   0.545  16.106 -0.2259  0.7560  2.0481
13947TIP3    H263333   6.275   0.689  16.148  0.2624  1.1254  0.5718
13948TIP3   OH263334   4.864   6.083   0.173  0.0281 -0.1056 -0.0100
13948TIP3    H163335   4.897   6.012   0.230 -0.3750  0.5719  1.0807
13948TIP3    H263336   4.926   6.155   0.187 -0.3884  0.2543 -0.0052
13949TIP3   OH263337   6.392   1.270   1.146 -0.2221 -0.7454  0.7077
13949TIP3    H163338   6.358   1.359   1.135 -1.7751 -1.2299  1.4476
13949TIP3    H263339   6.426   1.247   1.059  1.5563  1.0930  0.8636
13950TIP3   OH263340   4.390   2.675  14.250 -0.5373  0.1209  0.2787
13950TIP3    H163341   4.323   2.728  14.292  0.9288  2.0435  0.2804
13950TIP3    H263342   4.465   2.734  14.240  1.1819 -1.9531  0.3351
13951TIP3   OH263343   5.432   2.923  14.341  0.4860  0.5754  0.7371
13951TIP3    H163344   5.406   2.831  14.353 -0.5466  0.4507 -2.1157
13951TIP3    H263345   5.527   2.923  14.351  0.7382 -1.2006 -1.2532
13952TIP3   OH263346   4.919   3.065  13.897  0.2627 -0.0843  0.0347
13952TIP3    H163347   4.985   3.125  13.931 -0.9134 -0.5878  3.4767
13952TIP3    H263348   4.850   3.122  13.863  0.3707  0.4906  0.7706
13953TIP3   OH263349   0.033   4.737  15.687  0.1135 -0.3874 -0.4551
13953TIP3    H163350   0.093   4.688  15.743  0.5786  1.3562  0.6365
13953TIP3    H263351  -0.026   4.672  15.651  0.6624 -1.7216  1.0127
13954TIP3   OH263352   5.497   0.491  14.285  0.1583 -0.6887  0.1125
13954TIP3    H163353   5.501   0.514  14.192  1.7356 -1.7082 -0.0909
13954TIP3    H263354   5.432   0.421  14.289 -3.2312  2.2987  0.4643
13955TIP3   OH263355   1.007   1.088  14.550  0.5124 -0.6546 -0.6715
13955TIP3    H163356   0.920   1.108  14.584 -0.4588 -1.7304 -2.4351
13955TIP3    H263357   1.021   1.153  14.481  0.9211 -0.7546 -0.6826
13956TIP3   OH263358   5.722   3.172  12.793  0.0530 -0.0924 -0.3648
13956TIP3    H163359   5.775   3.213  12.861 -0.2848  2.3579 -1.5119
13956TIP3    H263360   5.725   3.079  12.813  2.0609  0.3271  1.5007
13957TIP3   OH263361   2.103   3.573  13.444 -0.0805 -0.4315  0.8770
13957TIP3    H163362   2.091   3.660  13.406 -0.8848 -1.0864 -0.4082
13957TIP3    H263363   2.165   3.586  13.516  0.2377  1.1063  0.3382
13958TIP3   OH263364   4.019   2.203  12.960  0.2441 -0.2016  0.8116
13958TIP3    H163365   3.973   2.122  12.979 -2.1605  0.6860 -0.8943
13958TIP3    H263366   4.029   2.203  12.865 -2.4504  2.7735  0.4147
13959TIP3   OH263367   5.619   2.314   5.021 -0.0286  0.0063 -0.1640
13959TIP3    H163368   5.547   2.325   4.960  0.2928  0.8074 -0.4150
13959TIP3    H263369   5.695   2.350   4.975  0.0514  1.4235  1.0192
13960TIP3   OH263370   2.966   1.502  16.788  0.1154 -0.0446 -0.1679
13960TIP3    H163371   2.896   1.560  16.819 -0.7732 -0.9818 -0.4222
13960TIP3    H263372   2.960   1.425  16.844 -0.9877 -1.4071 -2.1196
13961TIP3   OH263373   6.398   6.206   0.771  0.7105 -0.0090 -0.2938
13961TIP3    H163374   6.396   6.187   0.677  0.4006 -1.9955  0.0888
13961TIP3    H263375   6.477   6.163   0.802 -1.5847 -3.4585  1.1283
13962TIP3   OH263376   5.039   6.581   4.222  0.0304  0.4195 -0.0631
13962TIP3    H163377   5.010   6.664   4.186 -0.4149  0.4517  0.3606
13962TIP3    H263378   5.002   6.578   4.311  0.1797 -0.1494 -0.0122
13963TIP3   OH263379   4.279   3.687   3.390 -0.4391  0.1332 -0.2140
13963TIP3    H163380   4.205   3.746   3.377 -1.0785 -0.8823 -1.2762
13963TIP3    H263381   4.317   3.714   3.473 -0.1437  2.6694 -1.1287
13964TIP3   OH263382   6.069   4.883   3.795  0.2542  0.1250  0.4412
13964TIP3    H163383   6.005   4.891   3.866 -0.5164  0.9139 -0.3223
13964TIP3    H263384   6.017   4.857   3.719  1.1076 -0.9514  0.2074
13965TIP3   OH263385   0.132   4.435   0.242 -0.2023 -1.0467 -0.2836
13965TIP3    H163386   0.156   4.385   0.164 -0.3433 -1.1264 -0.2761
13965TIP3    H263387   0.037   4.441   0.238 -0.5750 -4.3738  1.9007
13966TIP3   OH263388   3.954   0.843   5.010  0.2233  0.3012  0.0521
13966TIP3    H163389   3.868   0.801   5.000  0.5764 -0.6285  0.7998
13966TIP3    H263390   3.977   0.872   4.922  0.2775 -1.7414 -0.6442
13967TIP3   OH263391   2.379   5.286   4.274 -0.1520 -0.4116 -0.1132
13967TIP3    H163392   2.329   5.205   4.282 -1.1682  0.1749 -0.4115
13967TIP3    H263393   2.313   5.355   4.279  0.5176  0.3434 -1.4668
13968TIP3   OH263394   0.515   0.125   4.509 -0.1651  0.5665  0.5559
13968TIP3    H163395   0.574   0.050   4.503 -0.8931  0.1407 -1.7198
13968TIP3    H263396   0.459   0.105   4.583 -1.4537 -1.9907 -1.0320
13969TIP3   OH263397   0.516   1.722   0.133  0.1185 -0.2538 -0.3670
13969TIP3    H163398   0.467   1.693   0.209  0.6565  0.7600  0.3901
13969TIP3    H263399   0.494   1.660   0.064 -2.1818  0.1650 -0.0374
13970TIP3   OH263400   4.899   1.333  11.236 -0.3601  0.2561  0.1528
13970TIP3    H163401   4.971   1.387  11.204 -0.5043 -0.0496 -0.6919
13970TIP3    H263402   4.866   1.381  11.312 -0.4072  1.3047 -0.5133
13971TIP3   OH263403   4.030   3.959   0.426 -0.4667 -0.2012  0.0708
13971TIP3    H163404   3.944   3.952   0.468 -0.8999 -1.2500 -0.9861
13971TIP3    H263405   4.019   4.029   0.361  0.5635  2.3341  2.5242
13972TIP3   OH263406   6.074   0.118   4.645  0.1591  0.0429  0.0635
13972TIP3    H163407   6.025   0.149   4.721 -1.9236 -0.2291 -1.1378
13972TIP3    H263408   6.114   0.197   4.609 -1.4877  0.7017 -0.3925
13973TIP3   OH263409   2.543   0.712  15.557 -0.1427  0.2906 -0.2554
13973TIP3    H163410   2.463   0.761  15.541 -0.3848  0.1681  0.5312
13973TIP3    H263411   2.613   0.777  15.554 -0.1548  0.2304 -1.9857
13974TIP3   OH263412   1.140   3.058   4.288  0.0827 -0.3153  0.8119
13974TIP3    H163413   1.118   3.105   4.207  1.0705 -0.9321  0.1761
13974TIP3    H263414   1.200   3.116   4.334  1.2985 -0.9443  0.0291
13975TIP3   OH263415   4.849   6.420   2.615  0.4306 -0.4558 -0.0034
13975TIP3    H163416   4.800   6.389   2.691 -0.4268  1.0830  0.1064
13975TIP3    H263417   4.798   6.390   2.540 -0.3079  0.4953  0.0994
13976TIP3   OH263418   5.204   5.765   2.767 -0.2812  0.3800 -0.3523
13976TIP3    H163419   5.175   5.850   2.799 -0.7734  0.8932 -2.1142
13976TIP3    H263420   5.132   5.706   2.788 -0.7670  0.7897 -0.8334
13977TIP3   OH263421   0.789   0.081  10.800 -0.2941 -0.5557  0.6319
13977TIP3    H163422   0.703   0.108  10.833  0.4894  0.1629  2.1395
13977TIP3    H263423   0.838   0.059  10.879  0.5486 -2.0630 -0.2937
13978TIP3   OH263424   5.672   0.079   4.139 -0.1569 -0.1256  0.2482
13978TIP3    H163425   5.709   0.163   4.166  2.0723 -0.5225 -1.4153
13978TIP3    H263426   5.645   0.093   4.049  0.3533 -1.2127 -0.0845
13979TIP3   OH263427   4.479   5.426  15.044 -0.2629  0.1673  0.0718
13979TIP3    H163428   4.466   5.519  15.064 -2.2952 -0.4231  1.6758
13979TIP3    H263429   4.447   5.380  15.122 -0.8524 -1.9269 -1.3656
13980TIP3   OH263430   2.693   2.848  17.158  0.0012  0.1367  0.3283
13980TIP3    H163431   2.764   2.799  17.115 -0.3735  0.7273 -0.9845
13980TIP3    H263432   2.717   2.848  17.251  0.5806 -1.5655  0.1928
13981TIP3   OH263433   1.050   0.727   3.745 -0.6606 -0.4330 -0.1713
13981TIP3    H163434   1.060   0.658   3.810 -0.3585 -1.3033 -1.1381
13981TIP3    H263435   1.115   0.793   3.770 -1.0015 -0.4490  0.7894
13982TIP3   OH263436   6.094   4.453   3.542  0.1295 -0.0958  0.0758
13982TIP3    H163437   6.124   4.364   3.560 -0.5392 -0.3939 -0.2915
13982TIP3    H263438   5.999   4.449   3.556 -0.1852  0.0650 -1.9716
13983TIP3   OH263439   2.031   3.654  14.825  0.7882 -0.9024 -0.2145
13983TIP3    H163440   2.028   3.573  14.774  0.0738 -1.3275  0.4751
13983TIP3    H263441   1.940   3.668  14.851  1.2003 -0.9068  1.2583
13984TIP3   OH263442   2.253   0.886   3.050  0.2127  0.0043 -0.2042
13984TIP3    H163443   2.164   0.883   3.083  0.3957 -2.1520  0.1200
13984TIP3    H263444   2.285   0.796   3.056  2.6681  0.8648  0.3944
13985TIP3   OH263445   1.894   2.543   1.336 -0.3939  0.2128  0.5176
13985TIP3    H163446   1.834   2.604   1.294 -1.0746 -0.1946  0.8926
13985TIP3    H263447   1.838   2.473   1.369  0.3062 -0.2583  0.7100
13986TIP3   OH263448   2.215   5.472   0.014  0.6402 -0.6227 -0.3853
13986TIP3    H163449   2.122   5.495   0.008  0.7449 -0.1532 -0.2382
13986TIP3    H263450   2.216   5.376   0.016  0.0471 -0.6017  1.5247
13987TIP3   OH263451   2.520   6.632  12.447  0.3270 -0.1984 -0.1670
13987TIP3    H163452   2.477   6.573  12.509 -0.7335 -0.2854 -0.9715
13987TIP3    H263453   2.581   6.683  12.500 -1.3075  0.4497  1.1137
13988TIP3   OH263454   4.456   5.168   3.191  0.2606 -0.1457  0.1707
13988TIP3    H163455   4.483   5.119   3.269  0.0898 -0.9663 -0.2884
13988TIP3    H263456   4.362   5.151   3.184 -0.2693  2.0981  1.3312
13989TIP3   OH263457   0.754   3.068   0.137  0.9489 -0.3776  0.6011
13989TIP3    H163458   0.733   3.145   0.085 -1.1251  0.0411  1.9639
13989TIP3    H263459   0.735   2.994   0.080  1.4281  0.1053 -0.1839
13990TIP3   OH263460   6.014   5.510   2.717  0.3841  0.2655  0.4123
13990TIP3    H163461   6.081   5.569   2.751  0.0280 -0.1867  1.9406
13990TIP3    H263462   5.976   5.469   2.794 -2.7833  1.6757 -0.2774
13991TIP3   OH263463   0.921   5.281   3.678 -0.4578  0.3207  0.4737
13991TIP3    H163464   0.972   5.262   3.756 -0.1135 -0.8544 -0.0346
13991TIP3    H263465   0.967   5.355   3.637  0.6442 -0.5035  0.2019
13992TIP3   OH263466   3.833   5.610   3.905  0.1687  0.3324  0.1688
13992TIP3    H163467   3.873   5.555   3.973  1.7524  0.4199 -0.6669
13992TIP3    H263468   3.805   5.689   3.951 -0.0880 -0.2320  0.9785
13993TIP3   OH263469   5.088   4.236   3.478 -0.2305  0.4138 -0.1239
13993TIP3    H163470   5.092   4.171   3.548 -0.3884  0.7671  0.2144
13993TIP3    H263471   5.021   4.202   3.418  0.9080 -0.6084 -0.8411
13994TIP3   OH263472   4.449   5.292   5.584 -0.4134 -0.2683 -0.3220
13994TIP3    H163473   4.496   5.267   5.505 -0.6342 -0.2218 -0.4722
13994TIP3    H263474   4.382   5.224   5.595  0.8359 -1.3191  0.9065
13995TIP3   OH263475   0.924   2.367   5.322  0.3435  0.3227 -0.1837
13995TIP3    H163476   0.923   2.462   5.329  0.7992  0.3973 -1.1172
13995TIP3    H263477   0.935   2.349   5.228  0.4516 -0.6438  0.0040
13996TIP3   OH263478   0.961   2.666  15.296 -0.0284 -0.0975 -0.5969
13996TIP3    H163479   0.894   2.711  15.348 -0.3373  0.3494 -1.3716
13996TIP3    H263480   0.963   2.713  15.213  0.7938 -0.5133 -0.8248
13997TIP3   OH263481   6.291   0.366   5.169 -0.2604  0.2187  0.1318
13997TIP3    H163482   6.301   0.461   5.176  0.0027  0.0672  2.0684
13997TIP3    H263483   6.217   0.345   5.226 -0.3190 -0.7309 -0.2908
13998TIP3   OH263484   3.898   0.063   4.994  0.3200 -1.3603 -0.0182
13998TIP3    H163485   3.988   0.093   5.009  0.1015  0.1270 -1.5046
13998TIP3    H263486   3.878   0.092   4.905 -1.8090 -1.2383  0.4766
13999TIP3   OH263487   2.780   0.809  13.492  0.1384 -0.5537  0.1110
13999TIP3    H163488   2.782   0.740  13.559  1.7641 -0.5040  0.1274
13999TIP3    H263489   2.862   0.798  13.444  1.0448  2.1895  0.9581
14000TIP3   OH263490   5.285   5.646  13.726  0.1098  0.3243 -0.3470
14000TIP3    H163491   5.344   5.570  13.727 -1.5385 -0.9719  0.0637
14000TIP3    H263492   5.295   5.683  13.638  0.6693 -0.5648 -0.6672
14001TIP3   OH263493   3.043   2.449   2.106 -0.1753  0.1975 -0.7448
14001TIP3    H163494   2.967   2.413   2.060 -0.5199 -1.0139  0.7589
14001TIP3    H263495   3.008   2.487   2.186  0.6516  0.7810 -0.6457
14002TIP3   OH263496   1.768   2.160  12.832  0.0489  0.4575 -0.6805
14002TIP3    H163497   1.728   2.215  12.899 -2.1995 -0.8838 -0.8807
14002TIP3    H263498   1.701   2.152  12.764  0.4457 -2.2518 -0.8018
14003TIP3   OH263499   5.601   2.959   2.122  0.3200  0.1952 -0.0180
14003TIP3    H163500   5.625   2.925   2.036 -1.2548 -1.7012  0.2343
14003TIP3    H263501   5.634   2.893   2.183  0.3626  0.9179  0.7380
14004TIP3   OH263502   0.244   3.903  16.281 -0.3586  0.0575  0.1415
14004TIP3    H163503   0.312   3.943  16.227  0.0963 -1.4296 -0.4026
14004TIP3    H263504   0.246   3.810  16.258 -0.3756 -0.5555  2.4602
14005TIP3   OH263505   4.460   4.245   1.365 -0.7878  0.6569 -0.5907
14005TIP3    H163506   4.434   4.321   1.313 -0.6464 -1.2433 -3.5581
14005TIP3    H263507   4.384   4.186   1.359  0.4215 -0.8652 -1.2461
14006TIP3   OH263508   4.427   4.699   1.180  0.2439 -0.1699 -0.2162
14006TIP3    H163509   4.362   4.723   1.247  0.6832  0.3403  0.0353
14006TIP3    H263510   4.429   4.604   1.182  1.1860 -0.1395  1.4118
14007TIP3   OH263511   1.249   5.685   3.229 -0.1110  0.5212  0.1105
14007TIP3    H163512   1.273   5.595   3.210  0.4078  0.5984  0.3956
14007TIP3    H263513   1.216   5.719   3.146  0.2984  0.2580 -0.1618
14008TIP3   OH263514   3.257   5.940  17.066  0.6703  0.1432 -0.4793
14008TIP3    H163515   3.300   5.864  17.106  0.2259  0.7462  1.2125
14008TIP3    H263516   3.168   5.938  17.101  0.9353  1.9865  0.3988
14009TIP3   OH263517   5.810   5.176  11.613  0.1129  0.1993  0.4048
14009TIP3    H163518   5.765   5.255  11.643 -0.0295  0.3726 -0.2710
14009TIP3    H263519   5.765   5.151  11.533 -0.0931 -0.7916  0.8257
14010TIP3   OH263520   2.656   0.267   4.650 -0.6451  0.4677 -0.6509
14010TIP3    H163521   2.596   0.195   4.630  0.2229 -0.1847 -0.8971
14010TIP3    H263522   2.701   0.239   4.730 -0.1488  0.6413 -0.8699
14011TIP3   OH263523   3.551   4.084  15.461 -0.3136 -0.1306 -0.3136
14011TIP3    H163524   3.537   4.122  15.375 -1.8549  0.1737  0.0579
14011TIP3    H263525   3.646   4.071  15.466 -0.0828  0.9290 -1.5862
14012TIP3   OH263526   6.718   0.390  13.548  0.4366  0.0112  0.1489
14012TIP3    H163527   6.705   0.476  13.508  0.1115  0.6120  1.5368
14012TIP3    H263528   6.633   0.347  13.544  0.4010  0.0771  0.2036
14013TIP3   OH263529   6.279   6.783  13.981  0.3091  0.6723  0.0685
14013TIP3    H163530   6.360   6.833  13.996 -0.6513  1.5260  2.6612
14013TIP3    H263531   6.301   6.694  14.008  0.3529  0.9197  0.8493
14014TIP3   OH263532   1.922   4.552   3.420 -0.2297  0.1313 -0.5146
14014TIP3    H163533   1.898   4.600   3.500  0.7876 -0.5550  0.2171
14014TIP3    H263534   1.845   4.559   3.364 -1.5380 -0.6273  1.1219
14015TIP3   OH263535   3.924   3.981  16.140 -0.1503  0.1663  0.2764
14015TIP3    H163536   3.878   3.898  16.131 -1.8120  1.1304 -0.3637
14015TIP3    H263537   4.012   3.957  16.171 -0.4256 -1.8417 -0.4369
14016TIP3   OH263538   5.133   6.300  13.760 -0.3640  0.3279  0.4494
14016TIP3    H163539   5.204   6.324  13.701  0.4609 -0.1824  1.2184
14016TIP3    H263540   5.054   6.335  13.719  0.4030  1.4150 -0.1248
14017TIP3   OH263541   5.776   1.045   4.728  0.1115 -0.1717  0.1272
14017TIP3    H163542   5.803   0.999   4.808 -0.2074  0.4532  0.5986
14017TIP3    H263543   5.855   1.092   4.701 -0.1690  0.7560  0.8795
14018TIP3   OH263544   2.637   1.781  10.969 -0.1598  0.2919  0.1928
14018TIP3    H163545   2.632   1.852  10.905  1.1925  0.8589  0.6951
14018TIP3    H263546   2.606   1.703  10.922  1.5285  0.5445 -1.3824
14019TIP3   OH263547   1.859   0.218   5.118 -0.8315  0.2840  1.0613
14019TIP3    H163548   1.837   0.294   5.064 -0.2982  2.1454  3.4204
14019TIP3    H263549   1.940   0.242   5.162 -1.3025 -1.1653  2.7642
14020TIP3   OH263550   0.561   1.716   5.965 -0.0769 -0.3680  0.6832
14020TIP3    H163551   0.542   1.676   5.880 -3.6459  2.0081  0.2333
14020TIP3    H263552   0.555   1.644   6.027  0.5935 -1.7764 -0.8425
14021TIP3   OH263553   0.612   1.650  17.014 -0.2950  0.0758 -0.2221
14021TIP3    H163554   0.660   1.724  17.051  0.6849 -0.4280 -0.4582
14021TIP3    H263555   0.549   1.689  16.953  2.4448  0.5828 -2.8630
14022TIP3   OH263556   4.071   5.017  15.958  0.3850 -0.9327  0.0300
14022TIP3    H163557   4.073   5.061  15.874 -0.7517 -1.5069 -0.3176
14022TIP3    H263558   4.128   4.941  15.947 -1.6784 -2.3973 -1.0662
14023TIP3   OH263559   4.333   6.545   1.322  0.5635 -0.0125  0.7559
14023TIP3    H163560   4.428   6.542   1.336  0.4155  0.4835  1.9583
14023TIP3    H263561   4.306   6.628   1.362 -0.5249 -0.6664  1.3800
14024TIP3   OH263562   1.693   3.784   0.254  0.0747 -0.7098  0.4195
14024TIP3    H163563   1.663   3.765   0.165  0.2834  3.8442 -0.7872
14024TIP3    H263564   1.613   3.807   0.302  0.5137  2.2561 -0.1932
14025TIP3   OH263565   1.356   5.034  13.886 -0.2596 -0.3933 -0.5021
14025TIP3    H163566   1.420   5.081  13.940 -0.4371 -0.8763  0.1345
14025TIP3    H263567   1.339   5.092  13.812  0.9238 -0.2621 -0.6774
14026TIP3   OH263568   1.715   5.670  11.516  0.5711 -0.1783  0.0066
14026TIP3    H163569   1.701   5.586  11.559 -1.1297 -0.6608 -1.4519
14026TIP3    H263570   1.628   5.707  11.505  1.1762  1.0498 -0.7994
14027TIP3   OH263571   6.440   0.704  11.703  0.6133 -0.1518  0.0328
14027TIP3    H163572   6.424   0.647  11.628  0.3403 -0.0136 -0.0129
14027TIP3    H263573   6.356   0.744  11.721  1.0536  1.1229 -0.6727
14028TIP3   OH263574   1.654   2.392   5.539  0.1834 -0.3663  0.2669
14028TIP3    H163575   1.669   2.335   5.464  0.6179 -0.1492  0.1909
14028TIP3    H263576   1.684   2.341   5.615  1.4010  0.1001  0.1084
14029TIP3   OH263577   6.317   1.101   4.114 -0.5265 -1.2179 -0.2388
14029TIP3    H163578   6.282   1.045   4.045 -0.9909 -0.4316 -0.6402
14029TIP3    H263579   6.357   1.040   4.176  0.1896 -1.9012 -1.3576
14030TIP3   OH263580   5.753   2.806   6.881 -0.3164 -0.2918 -0.5603
14030TIP3    H163581   5.762   2.901   6.894 -0.7135 -0.3230 -0.0711
14030TIP3    H263582   5.843   2.773   6.888  0.0455  0.2594 -2.4411
14031TIP3   OH263583   2.689   0.049  12.023 -0.1986  0.1758 -0.2312
14031TIP3    H163584   2.771   0.001  12.010 -1.0492 -1.4731  0.3387
14031TIP3    H263585   2.621  -0.017  12.013 -1.4372  1.4244 -0.1539
14032TIP3   OH263586   5.522   0.642  11.409  0.0302 -0.5608 -0.1273
14032TIP3    H163587   5.437   0.649  11.453 -0.1601  0.5723 -0.6420
14032TIP3    H263588   5.548   0.551  11.419 -0.0411 -0.3359  2.2815
14033TIP3   OH263589   6.065   1.805  14.160 -0.3382 -0.8425  0.0930
14033TIP3    H163590   6.150   1.762  14.171 -0.8198 -2.1541 -1.2006
14033TIP3    H263591   6.010   1.767  14.229  0.0118 -0.2767  0.6882
14034TIP3   OH263592   0.290   3.394  15.192  0.4938  0.0383 -0.3856
14034TIP3    H163593   0.243   3.370  15.272  0.9661 -0.5953 -0.2994
14034TIP3    H263594   0.230   3.372  15.121 -0.5480  1.9939 -0.1636
14035TIP3   OH263595   5.395   3.650  16.912  0.0133 -0.2234 -0.3160
14035TIP3    H163596   5.411   3.556  16.921  0.4177 -0.0759  0.5331
14035TIP3    H263597   5.376   3.662  16.819 -0.4399 -1.2036 -0.3561
14036TIP3   OH263598   1.884   1.471   3.006  0.3848  0.0644  0.4266
14036TIP3    H163599   1.879   1.377   2.994 -1.6820  0.1062  0.8942
14036TIP3    H263600   1.909   1.505   2.920 -0.7472 -0.7557 -0.2316
14037TIP3   OH263601   5.618   0.399  11.786  0.6780  0.4244  0.1458
14037TIP3    H163602   5.621   0.306  11.810 -0.7502  0.6890  1.4370
14037TIP3    H263603   5.686   0.409  11.720  0.2229 -1.7429 -0.6880
14038TIP3   OH263604   6.797   3.850   5.053  0.3178  0.2187  0.4568
14038TIP3    H163605   6.824   3.764   5.086  1.3417 -0.0385 -1.0352
14038TIP3    H263606   6.742   3.831   4.977  0.8804  0.8904 -0.1206
14039TIP3   OH263607   6.140   6.645  11.240 -0.4618 -0.4314  0.3810
14039TIP3    H163608   6.209   6.632  11.305  0.0089 -1.6929 -0.3499
14039TIP3    H263609   6.169   6.595  11.164 -0.4830  1.8872 -1.2020
14040TIP3   OH263610   5.850   4.073  13.247  0.1113  0.8588 -0.0318
14040TIP3    H163611   5.839   4.148  13.306  0.1454 -0.2029  1.3626
14040TIP3    H263612   5.761   4.051  13.219 -0.0608  0.4163  0.8471
14041TIP3   OH263613   3.652   2.967  12.159  0.0351  0.4324 -0.2435
14041TIP3    H163614   3.663   2.958  12.254 -1.5552  0.8320 -0.0072
14041TIP3    H263615   3.604   3.049  12.148 -1.4454 -0.5385 -1.2734
14042TIP3   OH263616   3.749   1.563  12.416 -0.3720  0.2359  0.3439
14042TIP3    H163617   3.719   1.642  12.371 -0.3910  0.1270  0.1656
14042TIP3    H263618   3.691   1.556  12.492  0.5379  1.1761  1.1436
14043TIP3   OH263619   3.381   4.889  10.953 -0.0242  0.5660  0.0663
14043TIP3    H163620   3.429   4.972  10.949  0.0500  0.4514 -2.5133
14043TIP3    H263621   3.331   4.887  10.871 -1.0063 -1.3575  0.6928
14044TIP3   OH263622   3.036   6.580   4.652  0.1026  0.0847  0.3104
14044TIP3    H163623   3.025   6.583   4.747  2.2230  1.0698  0.5701
14044TIP3    H263624   2.988   6.656   4.619 -1.3533 -0.7433  0.4948
14045TIP3   OH263625   0.034   4.563  10.832 -0.3171 -0.4826 -0.3310
14045TIP3    H163626   0.052   4.604  10.747  0.5987 -1.2179 -0.5057
14045TIP3    H263627  -0.042   4.610  10.865  1.8096  2.6870  0.3524
14046TIP3   OH263628   6.706   5.967  14.629 -0.1939 -0.5802 -0.1641
14046TIP3    H163629   6.786   5.952  14.578 -0.4612 -2.2044 -0.1341
14046TIP3    H263630   6.726   6.044  14.682  1.1057 -0.5544 -0.6548
14047TIP3   OH263631   2.051   6.113   0.149  0.3527 -0.0250 -0.5296
14047TIP3    H163632   1.973   6.063   0.175  0.6707 -0.1662  0.1683
14047TIP3    H263633   2.124   6.054   0.165  0.6781  0.4416 -0.2845
14048TIP3   OH263634   1.672   6.126  12.912  0.0322 -0.3459 -0.3717
14048TIP3    H163635   1.701   6.035  12.911 -1.0350 -0.6953 -2.1199
14048TIP3    H263636   1.751   6.176  12.933  1.3147 -1.4836 -2.3117
14049TIP3   OH263637   4.401   3.463  14.984  0.1282  0.8914 -0.4882
14049TIP3    H163638   4.359   3.399  14.927  0.8617 -0.0674  0.0251
14049TIP3    H263639   4.477   3.493  14.935  0.5482  0.3469 -0.1760
14050TIP3   OH263640   5.872   6.398   2.463  0.2646 -0.0669  0.2583
14050TIP3    H163641   5.851   6.485   2.431 -0.0160  0.3109  1.4592
14050TIP3    H263642   5.953   6.409   2.513  0.9062 -0.7183 -0.6129
14051TIP3   OH263643   4.486   6.352   3.842 -0.1308 -0.3042 -0.0926
14051TIP3    H163644   4.465   6.315   3.928 -1.4390 -1.8995 -1.0545
14051TIP3    H263645   4.534   6.281   3.797  2.8398  1.4285  0.2037
14052TIP3   OH263646   5.088   4.104  12.691 -0.6805  0.2057  0.6046
14052TIP3    H163647   5.035   4.118  12.770 -1.2124 -1.3322  0.5431
14052TIP3    H263648   5.146   4.032  12.714 -0.0506  0.5071 -0.0341
14053TIP3   OH263649   6.146   3.960   3.724  0.2169  0.0529  0.1719
14053TIP3    H163650   6.213   3.947   3.791 -0.1153 -0.5436  0.3793
14053TIP3    H263651   6.135   3.875   3.683  0.0614  0.3018 -0.3133
14054TIP3   OH263652   3.612   5.575   5.205  0.3187  0.3289 -0.2887
14054TIP3    H163653   3.589   5.573   5.298  0.1000  1.6124 -0.3103
14054TIP3    H263654   3.534   5.541   5.161 -0.1027  1.0273 -0.0947
14055TIP3   OH263655   2.036   3.184  13.852  0.7050  0.3266 -0.1549
14055TIP3    H163656   2.005   3.274  13.849  2.4763  0.9634  0.1543
14055TIP3    H263657   2.115   3.188  13.905  2.5244 -0.8817 -2.6635
14056TIP3   OH263658   2.554   3.799  17.221  0.1010  0.2678 -0.1292
14056TIP3    H163659   2.558   3.891  17.196  0.2636 -0.0043 -1.1117
14056TIP3    H263660   2.487   3.796  17.289 -0.3588  1.0122 -0.5374
14057TIP3   OH263661   6.377   3.794   5.841  0.1100 -0.0963 -0.3539
14057TIP3    H163662   6.465   3.823   5.818  0.6868 -1.4888  0.0576
14057TIP3    H263663   6.327   3.875   5.850  1.8311  0.8283  1.3151
14058TIP3   OH263664   6.024   3.449  15.382  0.2622  0.3089  0.2230
14058TIP3    H163665   5.959   3.508  15.420 -0.6671 -0.5940  0.0672
14058TIP3    H263666   6.075   3.419  15.457 -0.4029 -0.0566  0.5408
14059TIP3   OH263667   2.724   5.414   2.234  0.1442  0.1413 -0.1211
14059TIP3    H163668   2.748   5.389   2.145  0.5964  0.9952 -0.2378
14059TIP3    H263669   2.668   5.342   2.264 -1.0907  0.4782 -1.5541
14060TIP3   OH263670   6.064   5.781   3.542  0.1804  0.1962  0.5528
14060TIP3    H163671   6.077   5.687   3.552 -0.5482  0.0383  0.0861
14060TIP3    H263672   5.970   5.794   3.557  0.1241  0.7298 -0.2369
14061TIP3   OH263673   0.138   1.080   4.939  0.5720 -0.1747  0.8968
14061TIP3    H163674   0.229   1.071   4.910  0.9187  0.6036  1.7049
14061TIP3    H263675   0.121   1.000   4.989  0.1690 -1.2373 -0.8966
14062TIP3   OH263676   1.177   3.469   2.794  0.1925  0.1931  0.1029
14062TIP3    H163677   1.263   3.429   2.803  0.5200  0.6265 -0.9404
14062TIP3    H263678   1.187   3.557   2.832  0.1994  0.2235  0.0318
14063TIP3   OH263679   2.353   2.854   3.559 -0.6305 -0.1975 -0.2827
14063TIP3    H163680   2.296   2.783   3.590  0.4434 -0.8890  0.1083
14063TIP3    H263681   2.412   2.871   3.632 -1.7986  2.0997  0.1900
14064TIP3   OH263682   0.062   0.253  15.522  0.3025  0.7705 -0.1069
14064TIP3    H163683  -0.004   0.212  15.465 -0.1831 -0.1431  1.0894
14064TIP3    H263684   0.145   0.216  15.493 -0.2053 -1.8092  1.5173
14065TIP3   OH263685   6.720   0.211   2.883 -0.7962  0.4105 -0.2259
14065TIP3    H163686   6.784   0.231   2.952 -2.7502  2.0321  1.1842
14065TIP3    H263687   6.723   0.287   2.825  0.4613 -0.7200 -1.7021
14066TIP3   OH263688   0.620   4.931   2.357 -0.1823 -0.2036  0.8352
14066TIP3    H163689   0.534   4.959   2.329 -0.3850 -1.8001 -0.2259
14066TIP3    H263690   0.605   4.891   2.443 -0.0069  2.1393  1.9986
14067TIP3   OH263691   5.547   5.008  16.186  0.0086 -0.0246 -0.4178
14067TIP3    H163692   5.578   4.942  16.124 -1.1193 -1.2403  0.2886
14067TIP3    H263693   5.618   5.016  16.250  0.7611  0.5228 -1.3154
14068TIP3   OH263694   2.743   6.024  11.990 -0.2752  0.7521  0.3523
14068TIP3    H163695   2.811   6.075  11.947 -0.4717 -0.1002 -0.9715
14068TIP3    H263696   2.679   6.090  12.019  0.9634  1.5235  1.3844
14069TIP3   OH263697   0.164   6.085   1.344 -0.1285  0.1882 -0.2352
14069TIP3    H163698   0.111   6.060   1.420  0.8319  0.0495  0.3958
14069TIP3    H263699   0.241   6.128   1.382  0.6254 -0.3868 -1.1068
14070TIP3   OH263700   4.166   3.822   2.661  0.3110 -0.1377 -1.0866
14070TIP3    H163701   4.074   3.797   2.670 -0.2982  1.6425 -2.2099
14070TIP3    H263702   4.188   3.801   2.570  0.6644  0.6228 -1.1773
14071TIP3   OH263703   4.404   1.812   3.285 -0.1563 -0.2305  0.0696
14071TIP3    H163704   4.455   1.777   3.212 -1.4271 -1.3250 -0.3267
14071TIP3    H263705   4.449   1.892   3.311  0.2311  0.2434 -2.0017
14072TIP3   OH263706   6.537   2.499  14.090  0.2581  0.0348  0.1310
14072TIP3    H163707   6.501   2.572  14.040 -0.6325 -0.9584 -0.7140
14072TIP3    H263708   6.489   2.499  14.173  1.1540  1.1770  0.6581
14073TIP3   OH263709   6.158   1.424   3.753 -0.6487  0.1659 -0.1147
14073TIP3    H163710   6.133   1.439   3.844 -1.6971  0.4954 -0.4592
14073TIP3    H263711   6.182   1.331   3.749 -3.0808 -0.4794 -0.0819
14074TIP3   OH263712   1.327   5.140  13.140 -0.4428  0.0224  0.4273
14074TIP3    H163713   1.236   5.160  13.117 -0.9755  0.2613  2.6690
14074TIP3    H263714   1.332   5.045  13.140 -1.0679 -0.0150  1.6797
14075TIP3   OH263715   5.431   1.695   3.729  0.1912  0.2448 -0.2943
14075TIP3    H163716   5.388   1.610   3.734  3.1287 -1.4780 -2.5454
14075TIP3    H263717   5.514   1.682   3.775  0.4912  2.0083 -0.3083
14076TIP3   OH263718   5.239   6.493   0.165  0.3607  0.7633  0.3184
14076TIP3    H163719   5.246   6.538   0.249 -0.7706  1.3506  0.1070
14076TIP3    H263720   5.199   6.557   0.107  1.2443  0.3942 -0.7013
14077TIP3   OH263721   6.076   4.705   0.673 -0.3189 -0.5532 -0.4360
14077TIP3    H163722   6.165   4.689   0.641  0.2323  1.1654  0.1582
14077TIP3    H263723   6.048   4.622   0.711  1.0002 -1.1254 -0.7061
14078TIP3   OH263724   2.358   2.829  14.204  0.0302  0.7198 -0.5521
14078TIP3    H163725   2.432   2.881  14.173 -0.6538  2.0730  0.0522
14078TIP3    H263726   2.285   2.855  14.149 -0.0221 -0.5985 -1.1286
14079TIP3   OH263727   0.110   0.171   4.331 -0.3016  0.4065 -0.1589
14079TIP3    H163728   0.034   0.175   4.390  0.4733 -0.3407  0.8923
14079TIP3    H263729   0.160   0.095   4.360  0.5957  0.5966 -1.1715
14080TIP3   OH263730   3.215   5.214  14.572  0.6498 -0.3263  0.9763
14080TIP3    H163731   3.272   5.225  14.496 -0.9682 -0.0903 -0.2423
14080TIP3    H263732   3.175   5.127  14.559 -0.2966  0.0876  1.0824
14081TIP3   OH263733   1.379   0.602  12.967 -0.0530  0.3873 -0.2683
14081TIP3    H163734   1.313   0.671  12.965  0.2407  0.6313 -1.4321
14081TIP3    H263735   1.450   0.634  12.911  0.0088 -0.9247 -0.9565
14082TIP3   OH263736   2.384   4.143   1.181  0.3121  0.2551  0.1043
14082TIP3    H163737   2.383   4.061   1.132  0.0709  0.6931 -0.6297
14082TIP3    H263738   2.459   4.191   1.146  0.5790  0.2605  0.6795
14083TIP3   OH263739   0.369   5.142  12.195 -0.1905 -0.2215  0.0176
14083TIP3    H163740   0.414   5.059  12.212 -0.6457  0.2062  3.5639
14083TIP3    H263741   0.283   5.116  12.162  0.4808 -1.1032 -1.0940
14084TIP3   OH263742   0.756   5.547   1.804 -0.0449 -0.3551 -0.4079
14084TIP3    H163743   0.748   5.539   1.899 -1.3677 -1.0355 -0.5565
14084TIP3    H263744   0.784   5.637   1.789 -1.4195  0.2487  0.5567
14085TIP3   OH263745   3.999   1.285   4.859  0.0733  0.1774  0.0194
14085TIP3    H163746   4.018   1.206   4.910 -2.2486 -0.9114 -0.7294
14085TIP3    H263747   3.976   1.351   4.924 -1.9299 -0.9298  0.4482
14086TIP3   OH263748   5.502   4.507   4.728 -0.6252 -0.3754 -0.0200
14086TIP3    H163749   5.499   4.555   4.645 -0.5192 -0.0500  0.1648
14086TIP3    H263750   5.529   4.419   4.704  0.0206 -0.1109 -0.2544
14087TIP3   OH263751   6.266   4.262   3.924  0.4035 -0.0540 -0.2824
14087TIP3    H163752   6.338   4.313   3.962  0.0069  0.3306 -0.0461
14087TIP3    H263753   6.230   4.213   3.998  1.3624 -1.3777 -0.6766
14088TIP3   OH263754   3.040   5.880   0.691 -0.8541  0.0450 -0.4622
14088TIP3    H163755   3.083   5.893   0.775  2.7748 -0.1292 -2.2012
14088TIP3    H263756   3.018   5.787   0.689  0.4678 -0.2805 -0.3186
14089TIP3   OH263757   1.840   6.648  13.419 -0.3108  0.4117 -0.6991
14089TIP3    H163758   1.851   6.555  13.438 -0.3220  0.6272  0.4031
14089TIP3    H263759   1.856   6.692  13.502  1.2409  1.5193 -1.5533
14090TIP3   OH263760   3.830   3.887   5.686 -0.0717  0.3676  0.2394
14090TIP3    H163761   3.822   3.981   5.705 -0.3020  0.7274 -1.5584
14090TIP3    H263762   3.759   3.847   5.735  1.2754  0.8772  2.6737
14091TIP3   OH263763   2.712   3.421  11.593  0.1565  0.1038  0.3906
14091TIP3    H163764   2.634   3.430  11.537  0.7433  1.5606 -0.1966
14091TIP3    H263765   2.727   3.509  11.627  3.1660  0.4436 -1.6642
14092TIP3   OH263766   6.274   4.238  13.464 -0.6030  0.3205  0.2941
14092TIP3    H163767   6.208   4.210  13.527 -3.0924  0.8576 -1.9862
14092TIP3    H263768   6.304   4.157  13.423 -0.7504  0.1711  0.4825
14093TIP3   OH263769   4.083   1.696  16.006  0.2501  0.0377  0.3812
14093TIP3    H163770   4.070   1.768  15.944  2.6918 -0.3287 -0.6434
14093TIP3    H263771   4.063   1.617  15.956  2.8240 -0.3006 -0.2188
14094TIP3   OH263772   1.358   0.129   5.928 -0.4512  0.1164 -0.0068
14094TIP3    H163773   1.266   0.108   5.940 -0.5994  1.3859  1.2624
14094TIP3    H263774   1.402   0.089   6.004  0.2573 -1.7235 -1.3581
14095TIP3   OH263775   6.029   0.373   4.262  0.3040  0.6344 -0.6847
14095TIP3    H163776   6.121   0.384   4.238  0.5862  0.4634  0.3023
14095TIP3    H263777   6.024   0.286   4.301  0.1542  1.4665  1.2114
14096TIP3   OH263778   2.614   6.015   0.038  0.1652  0.2850 -0.3585
14096TIP3    H163779   2.563   6.095   0.049  0.2733  0.5686 -1.8160
14096TIP3    H263780   2.552   5.944   0.054 -0.0576  0.6383  0.4042
14097TIP3   OH263781   0.703   1.165   4.656  0.7651  0.2824 -0.0059
14097TIP3    H163782   0.666   1.109   4.588  2.2180 -1.3977  0.5348
14097TIP3    H263783   0.761   1.107   4.706  1.7346  2.1041  1.0491
14098TIP3   OH263784   6.711   0.090  11.971  0.8765  0.1782 -0.4239
14098TIP3    H163785   6.715   0.133  11.885 -1.2642  0.3351 -0.4794
14098TIP3    H263786   6.683   0.160  12.030  0.9031 -0.2972  0.1440
14099TIP3   OH263787   1.765   5.990  16.915  0.1918  0.0307 -0.3681
14099TIP3    H163788   1.860   5.987  16.920  0.2412  0.2848 -1.1027
14099TIP3    H263789   1.740   6.058  16.978  0.5205  0.2828 -0.5085
14100TIP3   OH263790   3.650   5.408   1.920  0.0970  0.2476 -0.2359
14100TIP3    H163791   3.653   5.331   1.977 -3.7374  0.3207  0.1900
14100TIP3    H263792   3.584   5.465   1.959 -0.7368  1.4821 -3.2641
14101TIP3   OH263793   1.712   4.239  14.135 -0.3523  0.1611 -0.0622
14101TIP3    H163794   1.639   4.276  14.084 -1.3646 -0.7369  0.7068
14101TIP3    H263795   1.747   4.313  14.184  0.5613  1.0201 -1.9317
14102TIP3   OH263796   4.864   5.389   3.766 -0.2145  0.6645 -0.1031
14102TIP3    H163797   4.876   5.294   3.758 -0.1632  0.5358  1.3896
14102TIP3    H263798   4.943   5.420   3.809 -1.6634  0.9072  2.4521
14103TIP3   OH263799   5.615   2.832   0.808  0.2331  0.1600 -0.1605
14103TIP3    H163800   5.672   2.895   0.851  0.4312  0.1252 -0.3733
14103TIP3    H263801   5.556   2.802   0.878 -0.2559  1.0252 -0.1947
14104TIP3   OH263802   1.322   1.537  14.612 -0.0382  0.0375 -0.1551
14104TIP3    H163803   1.296   1.517  14.702  1.4239 -1.2520 -0.0195
14104TIP3    H263804   1.337   1.452  14.572  1.1234  0.6821 -1.0946
14105TIP3   OH263805   1.244   5.316   5.109 -0.7283  0.1007  0.3372
14105TIP3    H163806   1.236   5.230   5.150  0.1490 -0.2284 -0.1698
14105TIP3    H263807   1.257   5.297   5.016 -1.7611  0.8148  0.0396
14106TIP3   OH263808   6.001   6.340  12.253 -0.4261  0.1075  0.1235
14106TIP3    H163809   5.977   6.287  12.176  0.2734 -0.2230  0.1326
14106TIP3    H263810   6.014   6.428  12.218  2.1038 -0.4983 -0.5170
14107TIP3   OH263811   1.572   2.282  15.081  0.6372 -0.1279  0.6273
14107TIP3    H163812   1.538   2.342  15.014 -1.3880 -1.8655  0.0469
14107TIP3    H263813   1.581   2.198  15.036  0.9148 -0.8891  2.0919
14108TIP3   OH263814   5.717   0.209  16.025  0.1567  0.5045 -0.8827
14108TIP3    H163815   5.783   0.147  15.994  1.0002  1.4530 -1.0345
14108TIP3    H263816   5.750   0.294  15.996 -0.9818  1.0185 -0.6717
14109TIP3   OH263817   1.379   3.590   4.488 -0.0228  0.4625 -0.1777
14109TIP3    H163818   1.348   3.627   4.571 -1.3041  0.5497 -0.6936
14109TIP3    H263819   1.300   3.558   4.445  0.4183  1.9323 -2.1307
14110TIP3   OH263820   2.128   1.173   1.836  0.5611 -0.2373  0.0013
14110TIP3    H163821   2.171   1.103   1.886  0.6616 -0.3790 -0.2809
14110TIP3    H263822   2.035   1.151   1.839  0.7679 -1.5477 -1.8388
14111TIP3   OH263823   1.433   3.956   4.523  0.8433 -0.3914  0.0311
14111TIP3    H163824   1.373   4.008   4.469  0.9836  0.2268  0.4573
14111TIP3    H263825   1.452   3.879   4.470  0.8717  0.1404 -0.7433
14112TIP3   OH263826   6.544   4.582  12.458  0.1311  0.3356 -0.1810
14112TIP3    H163827   6.450   4.594  12.439 -0.1047 -1.0615  0.0464
14112TIP3    H263828   6.559   4.635  12.536 -0.1671  1.6346 -0.9861
14113TIP3   OH263829   2.037   6.186   1.351  0.6551 -0.3054  0.2269
14113TIP3    H163830   1.946   6.156   1.355  0.2633  0.7792 -0.4744
14113TIP3    H263831   2.086   6.110   1.318 -0.2436 -0.3779 -0.9769
14114TIP3   OH263832   0.482   0.750   4.332 -0.7379  0.3219  0.0671
14114TIP3    H163833   0.497   0.679   4.396 -0.1958 -0.5948 -1.0589
14114TIP3    H263834   0.397   0.730   4.293 -1.5872  1.4989  1.2710
14115TIP3   OH263835   3.383   3.088  16.433  0.7211 -0.4053 -0.2300
14115TIP3    H163836   3.398   3.125  16.520  1.3670 -1.3042  0.0469
14115TIP3    H263837   3.295   3.117  16.409 -0.3137 -1.9507  1.6411
14116TIP3   OH263838   1.881   1.403   2.609 -0.2075 -0.5300  0.7456
14116TIP3    H163839   1.880   1.429   2.517 -1.2639 -0.9172  0.6287
14116TIP3    H263840   1.973   1.404   2.634 -0.0462  1.2246  0.1613
14117TIP3   OH263841   5.255   4.271   6.451 -0.1878 -0.7902  0.3621
14117TIP3    H163842   5.216   4.292   6.536 -1.9245 -1.1142 -0.3447
14117TIP3    H263843   5.204   4.197   6.419  0.8706 -1.0690 -0.6914
14118TIP3   OH263844   0.564   1.752  12.924  0.2910 -0.0941  0.0931
14118TIP3    H163845   0.633   1.737  12.860  1.8179 -2.3306  2.1568
14118TIP3    H263846   0.487   1.708  12.888  0.9014 -0.6164 -0.5862
14119TIP3   OH263847   6.397   3.614  11.009 -0.0309 -0.5164  0.0327
14119TIP3    H163848   6.337   3.618  11.083  0.8265  0.2488  0.7013
14119TIP3    H263849   6.344   3.643  10.934 -0.4639  0.2927  0.6365
14120TIP3   OH263850   2.793   2.208   0.317  0.0930  0.1906 -0.5257
14120TIP3    H163851   2.731   2.273   0.349  0.8220  0.4103  0.4555
14120TIP3    H263852   2.830   2.246   0.238 -1.6739 -0.3253 -1.6211
14121TIP3   OH263853   1.383   1.068   2.367  0.2736 -0.0163  0.2408
14121TIP3    H163854   1.340   1.045   2.449 -0.1165 -1.9255 -0.4903
14121TIP3    H263855   1.340   1.015   2.301  0.3930  1.7154 -1.2667
14122TIP3   OH263856   5.271   4.675   2.856 -0.6704  0.0619  0.0306
14122TIP3    H163857   5.292   4.596   2.806  0.8391  0.5793 -0.1766
14122TIP3    H263858   5.265   4.744   2.791 -0.9929  0.3102  0.3223
14123TIP3   OH263859   4.918   6.066   2.427  0.2396  0.2291  0.3045
14123TIP3    H163860   4.869   5.984   2.432 -2.7535  2.0711  1.9946
14123TIP3    H263861   4.953   6.078   2.515 -0.1036  1.2504  0.3030
14124TIP3   OH263862   4.368   4.398   1.942 -0.9444 -0.2326  0.2774
14124TIP3    H163863   4.405   4.436   2.022  1.0221  0.4235 -0.8865
14124TIP3    H263864   4.360   4.473   1.882 -1.7650 -0.8241 -0.3565
14125TIP3   OH263865   0.111   3.823  12.287 -0.6413  0.0721 -0.2206
14125TIP3    H163866   0.072   3.738  12.265 -0.3527  0.5011 -2.4961
14125TIP3    H263867   0.056   3.887  12.244  0.8574  0.8640 -0.9868
14126TIP3   OH263868   1.834   2.920   2.996  0.1831  0.0323 -0.1233
14126TIP3    H163869   1.868   2.882   3.077  2.8725 -1.1866 -1.7343
14126TIP3    H263870   1.763   2.862   2.970 -1.7306  1.2918  2.1022
14127TIP3   OH263871   0.836   6.692   3.898 -0.4686  0.0043  0.0968
14127TIP3    H163872   0.884   6.610   3.899 -0.6392 -0.1102 -0.5274
14127TIP3    H263873   0.843   6.723   3.807 -2.7069 -0.7005 -0.3429
14128TIP3   OH263874   2.139   2.438   3.207 -0.1313  0.0378  0.0940
14128TIP3    H163875   2.056   2.473   3.239  1.4226  2.2873  1.8637
14128TIP3    H263876   2.181   2.401   3.284  1.4678  0.9512 -0.3162
14129TIP3   OH263877   3.851   3.723   4.337  0.1988  0.0938  0.3172
14129TIP3    H163878   3.946   3.715   4.351  0.0674 -0.1904  1.0370
14129TIP3    H263879   3.835   3.817   4.339  0.9488  0.3468 -2.9890
14130TIP3   OH263880   2.574   1.324   4.828 -0.6211  0.0349 -0.5528
14130TIP3    H163881   2.611   1.397   4.778  0.5507  0.2198  0.5575
14130TIP3    H263882   2.595   1.247   4.775 -3.1709  0.6115 -2.4696
14131TIP3   OH263883   0.895   3.449   5.070 -0.0562  0.5082  0.8051
14131TIP3    H163884   0.896   3.520   5.135 -1.2899  0.1869  1.1878
14131TIP3    H263885   0.838   3.481   5.000  2.4379  1.4836 -0.8814
14132TIP3   OH263886   4.743   4.372  14.729 -0.1218 -0.2743 -0.1448
14132TIP3    H163887   4.778   4.318  14.800  1.6072  2.3220  1.0534
14132TIP3    H263888   4.800   4.353  14.654 -0.2373 -0.9830 -0.0539
14133TIP3   OH263889   3.985   2.950   5.705  0.2327  0.2754 -0.7901
14133TIP3    H163890   3.998   2.984   5.793 -1.1855  1.3809 -0.9881
14133TIP3    H263891   4.034   2.868   5.703 -0.8758 -0.4649  1.4538
14134TIP3   OH263892   6.196   2.630   0.802 -0.3369 -0.7144  0.7410
14134TIP3    H163893   6.193   2.694   0.731 -1.3747 -2.8915 -1.2602
14134TIP3    H263894   6.118   2.647   0.854 -0.2229  0.1191  0.6329
14135TIP3   OH263895   6.501   1.438  13.267 -0.3793 -0.5410  0.1655
14135TIP3    H163896   6.444   1.515  13.260 -1.0132 -1.1336 -1.2455
14135TIP3    H263897   6.459   1.383  13.334 -0.0119  0.2479  1.0617
14136TIP3   OH263898   6.316   3.436   1.313 -0.8928 -0.4526 -0.3151
14136TIP3    H163899   6.340   3.502   1.378 -0.3165 -1.6118  0.6418
14136TIP3    H263900   6.391   3.377   1.309 -1.4556 -1.1272 -1.0910
14137TIP3   OH263901   3.945   4.409   0.784  0.3642  0.0557 -0.4628
14137TIP3    H163902   3.965   4.317   0.767  2.1900  0.1583  0.9790
14137TIP3    H263903   3.990   4.457   0.714 -0.3957 -0.1159 -1.0783
14138TIP3   OH263904   1.494   0.394   1.229  0.7827 -0.2221 -0.7012
14138TIP3    H163905   1.504   0.299   1.232 -0.8423 -0.3715  0.3411
14138TIP3    H263906   1.582   0.428   1.245  0.7558 -1.5162  2.4727
14139TIP3   OH263907   5.043   3.298  13.651 -0.1519 -0.5477  0.2106
14139TIP3    H163908   5.021   3.205  13.651 -2.2716 -0.0665 -0.3980
14139TIP3    H263909   5.032   3.325  13.742  0.2813 -0.8515  0.3529
14140TIP3   OH263910   4.914   4.594   5.663  0.0538 -0.4837  0.2319
14140TIP3    H163911   4.884   4.521   5.718 -1.3731  1.5053  2.2015
14140TIP3    H263912   5.003   4.611   5.693 -0.1685 -0.4058  0.8536
14141TIP3   OH263913   2.318   5.780  12.306  0.3311  0.6892  0.0728
14141TIP3    H163914   2.272   5.838  12.245 -3.4934 -1.8607  0.4034
14141TIP3    H263915   2.384   5.737  12.253 -1.7526 -0.1495 -1.9425
14142TIP3   OH263916   2.689   0.319  14.663  0.3637 -0.4158  0.0420
14142TIP3    H163917   2.664   0.319  14.756  0.0581  1.7222 -0.0304
14142TIP3    H263918   2.783   0.299  14.664  0.4012 -0.2083  0.8093
14143TIP3   OH263919   0.580   2.749  14.643  0.4508  0.2154  0.5726
14143TIP3    H163920   0.612   2.709  14.724 -0.4223 -0.4147  0.6102
14143TIP3    H263921   0.485   2.755  14.656  0.2066 -0.7238 -0.7858
14144TIP3   OH263922   6.416   2.321  15.963  0.6936  0.0166  0.1430
14144TIP3    H163923   6.328   2.289  15.943 -0.1455  1.5826  1.2152
14144TIP3    H263924   6.474   2.248  15.941 -0.8809 -1.0803 -0.4424
14145TIP3   OH263925   1.402   4.164  11.901  0.0403  0.1912  0.0108
14145TIP3    H163926   1.365   4.080  11.927 -1.1682  0.2064 -1.5348
14145TIP3    H263927   1.350   4.228  11.949  1.0823  0.0621  1.3282
14146TIP3   OH263928   5.047   1.910  12.747  0.3348  0.0951 -0.6262
14146TIP3    H163929   5.069   1.979  12.810  1.8697 -1.3742  0.4804
14146TIP3    H263930   5.033   1.956  12.664  0.0868  1.8575  0.3752
14147TIP3   OH263931   1.545   5.060  15.825 -0.3878 -0.0923  0.2880
14147TIP3    H163932   1.522   5.142  15.781  0.1896  0.2039  0.5439
14147TIP3    H263933   1.640   5.056  15.821 -0.4166 -0.7727  0.2422
14148TIP3   OH263934   6.258   5.477  10.864  0.0990  0.0903  0.1990
14148TIP3    H163935   6.202   5.489  10.788 -0.5748  1.7150  0.9327
14148TIP3    H263936   6.337   5.526  10.843  0.1387  0.0793  0.3248
14149TIP3   OH263937   2.367   2.586  13.086  0.1329  0.1839  0.9500
14149TIP3    H163938   2.458   2.574  13.112  0.2159 -0.5947  0.3074
14149TIP3    H263939   2.370   2.648  13.013  0.2481 -0.7594  0.1563
14150TIP3   OH263940   4.803   2.110  14.390  0.4097 -1.2483 -0.3007
14150TIP3    H163941   4.788   2.040  14.453 -1.3610 -0.8090 -0.1935
14150TIP3    H263942   4.788   2.069  14.305  1.3977 -1.4886 -0.3688
14151TIP3   OH263943   4.153   1.051   5.863  0.3727  0.0438 -0.3317
14151TIP3    H163944   4.126   1.143   5.858  0.6525  0.1200 -0.5205
14151TIP3    H263945   4.229   1.052   5.922 -1.3522 -0.4874  1.9408
14152TIP3   OH263946   0.697   5.595  14.683 -0.2582  1.2893  0.4774
14152TIP3    H163947   0.698   5.593  14.587 -0.1659 -2.4306  0.5081
14152TIP3    H263948   0.789   5.609  14.707  0.1636 -0.5542  0.0178
14153TIP3   OH263949   1.039   1.953  12.340 -0.2305  0.5108  0.5565
14153TIP3    H163950   1.133   1.971  12.345  0.6320 -2.0732 -3.2464
14153TIP3    H263951   1.007   2.013  12.273 -1.0242  0.5960  1.0204
14154TIP3   OH263952   4.220   5.713   3.289  0.4531 -0.5403 -0.5149
14154TIP3    H163953   4.236   5.800   3.252 -0.8861  0.1943  0.6038
14154TIP3    H263954   4.151   5.726   3.354  1.1441 -2.2096  0.6054
14155TIP3   OH263955   2.905   1.887   4.761  0.2112  0.2378 -0.3825
14155TIP3    H163956   2.947   1.811   4.719 -1.8935 -1.9700  1.3522
14155TIP3    H263957   2.814   1.883   4.733  0.0914  2.2179 -0.3226
14156TIP3   OH263958   1.212   0.635  17.046 -0.0977  0.3860  0.3415
14156TIP3    H163959   1.124   0.603  17.028  0.3729 -1.3530  1.0154
14156TIP3    H263960   1.261   0.616  16.966  0.2354 -0.8474  0.8177
14157TIP3   OH263961   3.491   6.510   2.906  0.0168  0.3231  0.3498
14157TIP3    H163962   3.414   6.527   2.853 -0.9341 -0.9569  1.2786
14157TIP3    H263963   3.555   6.475   2.845  0.3316  2.5563 -0.6660
14158TIP3   OH263964   5.887   5.158  11.266 -0.1106 -0.0980  0.1611
14158TIP3    H163965   5.799   5.128  11.292 -0.8274 -1.1749 -3.3181
14158TIP3    H263966   5.900   5.238  11.316 -3.5405  0.6636 -0.0519
14159TIP3   OH263967   3.873   1.682  13.591  0.2002 -0.2753 -0.4241
14159TIP3    H163968   3.885   1.758  13.535  0.7630 -0.6353 -0.7939
14159TIP3    H263969   3.919   1.705  13.672 -1.2958  0.5769  0.2200
14160TIP3   OH263970   2.457   5.802   5.776 -0.3426  0.7569 -0.1284
14160TIP3    H163971   2.398   5.873   5.753  0.7575  1.5989 -0.3639
14160TIP3    H263972   2.533   5.845   5.815  0.6201 -0.2419 -0.8859
14161TIP3   OH263973   2.799   1.742   4.472  0.2506 -0.4253 -0.1746
14161TIP3    H163974   2.722   1.798   4.467 -0.6197 -1.5577  0.1903
14161TIP3    H263975   2.872   1.798   4.446 -0.8500  0.3547 -1.6599
14162TIP3   OH263976   2.346   2.021  14.699 -0.3794  0.4999  0.3272
14162TIP3    H163977   2.314   1.938  14.736  0.4216 -1.1856 -2.5447
14162TIP3    H263978   2.437   2.026  14.727  0.1452 -0.6264 -1.1335
14163TIP3   OH263979   0.030   0.138  13.787  0.2782  0.0990 -0.6174
14163TIP3    H163980   0.005   0.072  13.723  0.0414  1.1189 -1.5822
14163TIP3    H263981   0.098   0.190  13.744 -1.4407  2.1768 -0.9194
14164TIP3   OH263982   3.091   0.546  16.710  0.4499  0.3221  0.6030
14164TIP3    H163983   3.155   0.608  16.745 -0.5630  0.7927  1.6401
14164TIP3    H263984   3.009   0.570  16.752 -0.2253 -0.8740 -0.0154
14165TIP3   OH263985   5.313   2.596   0.743 -0.0080  0.2133 -0.2549
14165TIP3    H163986   5.265   2.534   0.797 -1.5418 -0.3561 -2.2178
14165TIP3    H263987   5.342   2.545   0.667  0.7174  1.3704 -0.7727
14166TIP3   OH263988   4.817   3.857  11.806 -0.0003 -0.4044  0.2149
14166TIP3    H163989   4.735   3.895  11.775  0.5572  0.0263 -0.7300
14166TIP3    H263990   4.823   3.772  11.761  2.2812  1.4783 -3.3014
14167TIP3   OH263991   4.873   1.991   2.886  0.6878 -0.3415  0.0728
14167TIP3    H163992   4.788   2.026   2.910  0.7835  0.0038 -0.0859
14167TIP3    H263993   4.853   1.911   2.836  0.4000  0.8463 -1.7606
14168TIP3   OH263994   5.238   4.194   2.952  0.8300 -0.3268  0.0255
14168TIP3    H163995   5.287   4.114   2.971 -1.8180 -1.7663  1.0593
14168TIP3    H263996   5.226   4.236   3.037  1.2463  0.5829 -0.3652
14169TIP3   OH263997   2.447   6.282   3.092 -0.0473 -0.1099  0.0751
14169TIP3    H163998   2.404   6.312   3.012  0.9918  1.4312  0.0661
14169TIP3    H263999   2.540   6.287   3.072  0.2234  0.5302  1.4576
14170TIP3   OH264000   4.383   2.405   0.902 -0.1310  0.6582 -0.0562
14170TIP3    H164001   4.383   2.393   0.807  0.1556 -1.7203  0.2071
14170TIP3    H264002   4.458   2.463   0.918  1.3879 -0.9790 -1.0662
14171TIP3   OH264003   6.538   3.112  16.866 -0.7545 -0.3900  0.5636
14171TIP3    H164004   6.517   3.167  16.790  2.0277 -0.9979 -0.7154
14171TIP3    H264005   6.579   3.034  16.828  1.5937 -0.2543  2.7220
14172TIP3   OH264006   0.974   1.145  12.499 -0.5631  0.3360  0.0340
14172TIP3    H164007   0.937   1.233  12.493 -0.4563  0.4672  1.1105
14172TIP3    H264008   0.913   1.097  12.554  2.0760  1.2836  4.0334
14173TIP3   OH264009   6.756   3.004   5.728 -0.0160  0.1574  0.1894
14173TIP3    H164010   6.701   2.926   5.736 -2.7737  1.8074 -1.6595
14173TIP3    H264011   6.826   2.978   5.669 -1.0006 -0.8728 -0.5508
14174TIP3   OH264012   1.020   6.621  13.120 -0.4363  0.2590 -0.2767
14174TIP3    H164013   0.966   6.554  13.161  0.8991 -3.1769 -3.7617
14174TIP3    H264014   0.957   6.686  13.088 -2.0447 -0.9126  0.4325
14175TIP3   OH264015   5.928   6.611  14.795 -0.0744 -0.2443 -0.1093
14175TIP3    H164016   5.941   6.595  14.888  1.0132  4.0859  0.6079
14175TIP3    H264017   6.015   6.604  14.756  0.0262  1.1754 -0.1846
14176TIP3   OH264018   1.014   3.483   5.835  0.1778 -0.3881 -0.0147
14176TIP3    H164019   1.060   3.562   5.809 -0.9666  0.0318 -0.8092
14176TIP3    H264020   0.998   3.494   5.929 -0.7501  0.7281 -0.2933
14177TIP3   OH264021   2.175   1.014   1.599  0.5681 -0.2044  0.2616
14177TIP3    H164022   2.165   0.925   1.634  2.7286 -0.5379  0.0793
14177TIP3    H264023   2.145   1.071   1.670 -0.6168 -1.0680  0.4662
14178TIP3   OH264024   1.857   0.269   2.594 -0.3320  0.0666  0.5555
14178TIP3    H164025   1.867   0.361   2.570  0.0587 -0.6060 -2.0128
14178TIP3    H264026   1.762   0.257   2.600 -0.4485  0.3046 -0.5856
14179TIP3   OH264027   4.155   1.277   3.746  0.5708  0.2303 -0.4639
14179TIP3    H164028   4.153   1.332   3.824  2.5992 -1.0724  0.5540
14179TIP3    H264029   4.070   1.233   3.746 -0.3268  1.9434 -0.2569
14180TIP3   OH264030   6.513   5.078  12.900 -0.2409  0.7403  0.5704
14180TIP3    H164031   6.560   5.131  12.836 -1.5567 -0.4058 -1.4234
14180TIP3    H264032   6.563   4.997  12.907 -0.8801  0.2765 -0.1333
14181TIP3   OH264033   5.304   5.101   5.027 -0.3491 -0.5055  0.0132
14181TIP3    H164034   5.235   5.036   5.018 -0.6393 -0.5232  2.2160
14181TIP3    H264035   5.258   5.184   5.040  0.0313 -0.5496  1.7104
14182TIP3   OH264036   2.318   5.465   3.009  0.1393  0.6450 -0.1345
14182TIP3    H164037   2.399   5.514   3.025  1.6265 -1.6924 -0.1551
14182TIP3    H264038   2.347   5.374   3.002 -2.3722 -0.0932 -1.3715
14183TIP3   OH264039   6.505   2.016  13.861  0.0626 -0.1232  0.6600
14183TIP3    H164040   6.533   1.932  13.899 -0.3611  0.1552  1.5997
14183TIP3    H264041   6.544   2.082  13.918  1.9219  0.3978 -1.1138
14184TIP3   OH264042   2.045   3.550  11.857 -0.3311 -0.1494 -0.4541
14184TIP3    H164043   2.001   3.616  11.803 -3.9058 -2.2818 -0.2919
14184TIP3    H264044   2.091   3.495  11.794 -0.5149  0.2089 -0.9062
14185TIP3   OH264045   1.174   3.559  15.546  0.2178  0.3079 -0.7654
14185TIP3    H164046   1.185   3.471  15.581 -0.1661  0.4845 -0.1895
14185TIP3    H264047   1.080   3.566  15.527  0.5607 -0.0840 -2.6486
14186TIP3   OH264048   5.877   1.371   6.012 -0.8700  0.4556 -0.2687
14186TIP3    H164049   5.789   1.407   6.005 -1.0683 -0.0998 -0.6503
14186TIP3    H264050   5.884   1.343   6.103 -1.6798 -0.9876 -0.6259
14187TIP3   OH264051   0.116   5.349  16.080 -0.1379  0.2994 -0.0742
14187TIP3    H164052   0.107   5.334  16.174  1.0057 -0.1503 -0.0309
14187TIP3    H264053   0.210   5.355  16.065 -0.1968 -1.5788 -1.4569
14188TIP3   OH264054   6.754   5.859   3.409  0.2303  0.2896 -0.1495
14188TIP3    H164055   6.775   5.844   3.317  0.5258 -0.4913  0.0447
14188TIP3    H264056   6.696   5.787   3.433  0.4595  0.2761  0.3808
14189TIP3   OH264057   2.297   3.484  14.493  0.0609  0.2707 -0.0122
14189TIP3    H164058   2.326   3.517  14.408  1.5241  1.0221  0.7494
14189TIP3    H264059   2.207   3.517  14.502  0.6748  2.0653 -0.3077
14190TIP3   OH264060   5.307   5.040  13.406  0.3713  0.5010  0.2105
14190TIP3    H164061   5.331   5.132  13.399  0.8246  0.5932  2.4815
14190TIP3    H264062   5.351   4.998  13.333  0.1026  2.0874 -0.8853
14191TIP3   OH264063   0.781   2.533  15.153 -0.6375  0.1717  0.9080
14191TIP3    H164064   0.826   2.452  15.177  0.0885 -0.1906 -1.5462
14191TIP3    H264065   0.851   2.592  15.127 -1.2584  1.1826  1.5177
14192TIP3   OH264066   6.579   0.741   6.061 -0.5537 -0.0632 -0.0948
14192TIP3    H164067   6.616   0.694   5.986  0.9333  0.6602  0.1630
14192TIP3    H264068   6.541   0.672   6.116  0.2325 -0.8122 -0.4802
14193TIP3   OH264069   0.584   5.323  14.034  0.2162  0.7299 -0.2899
14193TIP3    H164070   0.617   5.360  14.116  0.4751 -0.7859  0.2954
14193TIP3    H264071   0.663   5.306  13.982  0.1111  0.7941 -0.4716
14194TIP3   OH264072   4.462   3.755  12.919  0.6126  0.2080  0.4046
14194TIP3    H164073   4.446   3.827  12.980  1.0905 -0.6124  1.5357
14194TIP3    H264074   4.381   3.703  12.922 -0.5841  1.8505 -2.0778
14195TIP3   OH264075   4.704   6.581   0.807  0.1694 -0.3836  0.3579
14195TIP3    H164076   4.699   6.677   0.802  0.8278 -0.3763 -0.2083
14195TIP3    H264077   4.752   6.563   0.887  1.9615 -0.1807 -0.6332
14196TIP3   OH264078   5.421   5.515  12.515 -0.4163 -0.2726  0.3019
14196TIP3    H164079   5.388   5.533  12.427 -1.0438  2.2347  1.0135
14196TIP3    H264080   5.482   5.442  12.503 -0.8124 -0.2546 -2.1358
14197TIP3   OH264081   3.315   4.258  15.078 -0.5912 -0.0040 -0.0774
14197TIP3    H164082   3.298   4.350  15.055  3.1810  0.3337 -1.9063
14197TIP3    H264083   3.309   4.212  14.994  0.1926 -0.9723  0.4010
14198TIP3   OH264084   3.232   2.302   2.483 -0.1330 -0.0289 -0.0848
14198TIP3    H164085   3.237   2.352   2.564  2.2860 -1.1933  0.5121
14198TIP3    H264086   3.140   2.309   2.456 -0.3075  2.8351  1.1533
14199TIP3   OH264087   5.452   5.867   4.987  0.4295 -0.1495 -0.3172
14199TIP3    H164088   5.523   5.921   4.952  1.9712  0.2257  3.2386
14199TIP3    H264089   5.496   5.803   5.042 -1.8326 -1.6428 -0.1977
14200TIP3   OH264090   3.927   4.244  12.633  0.0394  0.0414  0.0506
14200TIP3    H164091   3.943   4.200  12.716  0.2737 -0.0921 -0.0640
14200TIP3    H264092   3.879   4.180  12.580 -0.7375  0.3790  0.3339
14201TIP3   OH264093   1.549   4.505   3.815 -0.1674 -0.2018 -0.1371
14201TIP3    H164094   1.533   4.589   3.858 -0.7111  0.7921 -2.2503
14201TIP3    H264095   1.541   4.440   3.886 -2.2117  1.2852  1.0518
14202TIP3   OH264096   2.629   6.703   2.554 -0.0847 -0.0487 -0.6099
14202TIP3    H164097   2.717   6.666   2.565 -0.1434 -0.9060 -2.7840
14202TIP3    H264098   2.644   6.785   2.507 -0.4757 -0.3895 -1.3324
14203TIP3   OH264099   1.049   2.755   5.895 -0.1767 -0.1263 -0.2742
14203TIP3    H164100   0.991   2.753   5.819  1.5835 -0.4135 -1.6275
14203TIP3    H264101   1.031   2.840   5.936 -0.7673  0.2495 -1.2964
14204TIP3   OH264102   1.620   0.231   1.519  0.4270 -0.2948  0.5391
14204TIP3    H164103   1.655   0.219   1.607  0.6489 -0.3489  0.4439
14204TIP3    H264104   1.642   0.322   1.497 -2.5296  0.7799  1.8284
14205TIP3   OH264105   1.289   3.919  13.100 -0.8136 -0.4451 -0.2789
14205TIP3    H164106   1.348   3.902  13.174  2.5641  1.0235 -2.5272
14205TIP3    H264107   1.263   4.010  13.111 -1.4820 -0.6566 -0.1024
14206TIP3   OH264108   4.177   6.756  11.259 -0.6927  0.3846  0.5481
14206TIP3    H164109   4.195   6.674  11.305 -0.8559  0.0558  0.0326
14206TIP3    H264110   4.232   6.821  11.303  1.3317 -0.4874 -0.5937
14207TIP3   OH264111   3.507   3.922   3.306  0.5381  0.4686 -0.3036
14207TIP3    H164112   3.448   3.912   3.232  1.8637 -0.4802 -1.2581
14207TIP3    H264113   3.541   4.012   3.298 -0.2532  0.7914 -0.1171
14208TIP3   OH264114   1.644   4.704  11.545 -0.2800 -0.5947  0.2814
14208TIP3    H164115   1.584   4.778  11.556 -1.7835 -1.9382  1.3393
14208TIP3    H264116   1.731   4.742  11.552 -0.9798  1.4209 -1.4102
14209TIP3   OH264117   3.850   3.368   3.056  0.1413 -0.0598  0.7591
14209TIP3    H164118   3.805   3.305   3.001  0.2363  0.1297  0.4638
14209TIP3    H264119   3.942   3.339   3.056 -0.0706 -0.7892  1.8352
14210TIP3   OH264120   2.612   1.902  10.462 -0.1708 -0.1538  0.2218
14210TIP3    H164121   2.652   1.909  10.375 -1.0542  3.2638  0.0174
14210TIP3    H264122   2.679   1.933  10.522 -0.5030  0.1217  0.4554
14211TIP3   OH264123   2.957   5.942  10.820  0.1465 -1.0734 -0.2713
14211TIP3    H164124   2.936   5.863  10.771 -0.1319 -0.1796 -1.6263
14211TIP3    H264125   3.036   5.920  10.869  0.5650 -1.9230 -1.3102
14212TIP3   OH264126   2.969   3.863   1.538  0.3734  0.4609 -0.3034
14212TIP3    H164127   3.051   3.869   1.587 -0.1251  0.4139  0.5434
14212TIP3    H264128   2.920   3.792   1.580  0.0721  0.2061 -1.0658
14213TIP3   OH264129   2.164   0.376   4.961  0.1135  0.0613 -0.4414
14213TIP3    H164130   2.136   0.346   4.874 -0.8435  0.3984 -0.2427
14213TIP3    H264131   2.104   0.446   4.984 -0.7271 -1.1708  1.2427
14214TIP3   OH264132   6.637   6.618  10.961  0.3305 -0.1708 -0.0580
14214TIP3    H164133   6.618   6.710  10.976 -0.6944 -0.1341 -1.5005
14214TIP3    H264134   6.561   6.584  10.914  0.6528 -1.7753  0.5418
14215TIP3   OH264135   0.063   1.152   1.126 -0.2039  0.4355  0.2270
14215TIP3    H164136   0.076   1.127   1.217  0.0930  3.0123  0.9347
14215TIP3    H264137   0.094   1.076   1.076  0.2993 -0.7375  2.2329
14216TIP3   OH264138   4.212   1.987   6.218  0.3234 -0.4976 -0.2728
14216TIP3    H164139   4.261   2.031   6.149 -2.0266 -0.1404 -1.7925
14216TIP3    H264140   4.245   1.897   6.217 -0.6421 -0.8855 -2.8987
14217TIP3   OH264141   1.597   5.093   3.506  0.3563  0.0355  0.4026
14217TIP3    H164142   1.666   5.153   3.533  0.9939 -0.2702 -0.4843
14217TIP3    H264143   1.617   5.074   3.414 -0.2181 -0.9979  0.4821
14218TIP3   OH264144   2.419   1.495  11.007  0.1227  0.4363 -0.4758
14218TIP3    H164145   2.469   1.414  10.998  2.2232  1.5153  1.0748
14218TIP3    H264146   2.451   1.551  10.937  0.7541  0.9479  0.2130
14219TIP3   OH264147   0.907   0.770   6.566  0.0327 -0.0053 -0.0388
14219TIP3    H164148   0.863   0.706   6.621  0.7785 -0.6862 -0.2292
14219TIP3    H264149   0.901   0.734   6.477 -0.5245  0.7290 -0.3074
14220TIP3   OH264150   3.108   4.078  16.128  0.4875  0.6211  0.2047
14220TIP3    H164151   3.180   4.060  16.067 -0.2931 -0.9403 -0.2648
14220TIP3    H264152   3.121   4.169  16.153  2.1956  0.5838 -0.4679
14221TIP3   OH264153   5.724   0.513   3.962 -0.1778 -0.3332  0.3582
14221TIP3    H164154   5.744   0.545   3.874  2.8333 -1.5005  0.5340
14221TIP3    H264155   5.750   0.584   4.020  1.3821 -0.9452  0.4536
14222TIP3   OH264156   3.053   2.640   0.043  0.0397  0.0061 -0.3118
14222TIP3    H164157   2.999   2.629  -0.036 -1.4134  0.8123  0.5326
14222TIP3    H264158   3.136   2.674   0.011  0.7763 -3.0929 -1.8487
14223TIP3   OH264159   4.760   2.347  13.852 -0.4684 -0.4332 -0.0825
14223TIP3    H164160   4.755   2.434  13.891  1.4938 -0.1396 -0.3837
14223TIP3    H264161   4.849   2.317  13.871 -0.7989 -1.9691 -0.8193
14224TIP3   OH264162   4.856   5.734   0.736  0.5523  0.2057  0.1516
14224TIP3    H164163   4.802   5.785   0.798 -1.0584 -1.6314  0.3253
14224TIP3    H264164   4.795   5.711   0.666  0.9227 -2.3643  0.6098
14225TIP3   OH264165   4.902   3.449  14.805 -0.4524  0.4382  0.9426
14225TIP3    H164166   4.955   3.420  14.879 -1.2835  1.0724  1.8047
14225TIP3    H264167   4.957   3.514  14.760 -0.1607  0.4645  1.3340
14226TIP3   OH264168   3.359   4.758  14.495  0.1933  0.1732  0.3748
14226TIP3    H164169   3.272   4.736  14.528 -0.4309 -0.2098 -1.5047
14226TIP3    H264170   3.418   4.730  14.564 -1.1141 -0.3407  1.3036
14227TIP3   OH264171   4.939   0.046   5.082  0.2433 -0.3632  0.0171
14227TIP3    H164172   4.877   0.082   5.146  0.7661  2.4637 -1.0266
14227TIP3    H264173   4.913   0.084   4.998  3.0455  0.4988 -0.5268
14228TIP3   OH264174   1.245   1.934   1.458  0.6423  0.2730 -0.3165
14228TIP3    H164175   1.183   1.912   1.528  0.5536  2.1907  0.2256
14228TIP3    H264176   1.200   1.906   1.378  0.1666 -0.6986  0.2745
14229TIP3   OH264177   3.706   3.643   1.927 -0.2550  0.1300  0.3441
14229TIP3    H164178   3.694   3.720   1.983  0.2527 -0.4743  1.3030
14229TIP3    H264179   3.779   3.667   1.869 -0.4848  0.5895  0.2409
14230TIP3   OH264180   1.616   0.599  16.979  0.1940  0.4782 -0.1262
14230TIP3    H164181   1.570   0.609  16.896  0.4731 -0.4629 -0.3923
14230TIP3    H264182   1.675   0.525  16.966 -0.2305 -0.0890  1.1227
14231TIP3   OH264183   5.353   2.056  13.210 -0.0502  0.7985 -0.1455
14231TIP3    H164184   5.270   2.100  13.194 -0.8144 -0.7260 -0.4599
14231TIP3    H264185   5.359   2.050  13.305 -0.0387  1.3765 -0.1052
14232TIP3   OH264186   5.110   5.581   5.033 -0.5881  0.8320  0.0310
14232TIP3    H164187   5.079   5.568   4.943 -1.4592 -2.2318  0.7000
14232TIP3    H264188   5.204   5.567   5.029 -0.8073 -0.6655 -0.2043
14233TIP3   OH264189   4.002   2.546  15.461  0.2353  0.2743  0.0765
14233TIP3    H164190   4.081   2.575  15.417 -0.3621  0.8746 -0.6216
14233TIP3    H264191   4.033   2.501  15.540  1.2403  1.5723  0.4462
14234TIP3   OH264192   0.765   0.144   3.487 -0.0732 -0.3190  0.1391
14234TIP3    H164193   0.755   0.081   3.558  0.8437 -1.2790 -0.5702
14234TIP3    H264194   0.706   0.114   3.418 -0.7026  0.4130  0.3550
14235TIP3   OH264195   2.605   3.228   4.278 -0.0172  0.0252  0.0153
14235TIP3    H164196   2.589   3.320   4.258 -0.9679 -0.0152  0.5415
14235TIP3    H264197   2.567   3.216   4.365  1.3530 -0.5226  0.5657
14236TIP3   OH264198   6.702   6.200  16.249 -0.1271  0.2362 -0.2084
14236TIP3    H164199   6.669   6.234  16.332 -0.7438 -1.2342  0.1759
14236TIP3    H264200   6.741   6.116  16.272 -0.2875 -0.1753 -1.3974
14237TIP3   OH264201   1.517   5.056   4.908  0.4858  0.4651 -0.2064
14237TIP3    H164202   1.605   5.019   4.905 -0.2972 -1.4805 -0.2888
14237TIP3    H264203   1.522   5.136   4.857  2.6184  1.2913  1.2411
14238TIP3   OH264204   6.247   0.959   0.144  0.2630  0.1566 -0.8241
14238TIP3    H164205   6.171   1.006   0.176  1.1297  0.5592  0.6965
14238TIP3    H264206   6.315   1.026   0.135  1.4997 -0.7552  1.3382
14239TIP3   OH264207   5.088   4.992  11.114 -0.4728  0.0869  0.0172
14239TIP3    H164208   5.041   4.978  11.196  2.5317  0.1272  1.8062
14239TIP3    H264209   5.072   5.084  11.092  0.7170  0.7645  1.8968
14240TIP3   OH264210   0.548   0.353   3.478  1.0591 -0.9504  0.0384
14240TIP3    H164211   0.565   0.348   3.384  1.7537  0.4531  0.0756
14240TIP3    H264212   0.596   0.279   3.515  2.4720 -0.2904 -0.4809
14241TIP3   OH264213   1.758   3.120   2.568 -0.3465  0.1582 -0.9852
14241TIP3    H164214   1.817   3.189   2.538  0.8187 -0.1978  0.4497
14241TIP3    H264215   1.810   3.040   2.561 -0.6193 -0.1387  0.3978
14242TIP3   OH264216   2.906   6.134   0.633  0.0157 -0.1384  0.3704
14242TIP3    H164217   2.963   6.060   0.651  0.1933 -0.0121  0.3297
14242TIP3    H264218   2.963   6.198   0.590  0.1688  0.5408  1.5518
14243TIP3   OH264219   6.521   2.357  16.686  0.1513 -0.0519  0.2244
14243TIP3    H164220   6.476   2.421  16.741  0.8670 -0.7924  1.7141
14243TIP3    H264221   6.457   2.335  16.618 -0.5787  1.2405  0.4613
14244TIP3   OH264222   2.170   6.428  13.493 -0.8696  0.1959  0.4080
14244TIP3    H164223   2.153   6.521  13.501  0.8826  0.4393  1.6110
14244TIP3    H264224   2.148   6.392  13.580  4.3263  0.5129  2.0258
14245TIP3   OH264225   6.060   1.308  16.598 -0.4352  0.3343 -0.0525
14245TIP3    H164226   6.144   1.308  16.644 -1.1729 -1.8126  1.3905
14245TIP3    H264227   6.082   1.279  16.510  0.0209 -2.9757  1.0779
14246TIP3   OH264228   2.495   6.767  16.760 -0.6521  0.0874 -0.3609
14246TIP3    H164229   2.587   6.748  16.742 -0.5589 -0.3621  0.5985
14246TIP3    H264230   2.480   6.851  16.717  0.3225  0.3769 -0.1565
14247TIP3   OH264231   2.130   0.053  15.845 -0.3049  0.7369  0.2695
14247TIP3    H164232   2.181  -0.021  15.812  1.9788  2.4587 -0.1778
14247TIP3    H264233   2.143   0.050  15.940 -0.3752  0.4540  0.2707
14248TIP3   OH264234   3.405   5.025  13.883 -0.3971 -0.1007  0.1276
14248TIP3    H164235   3.389   5.101  13.940 -2.1088  1.0186 -1.7793
14248TIP3    H264236   3.345   4.958  13.917 -0.4216  0.0974  0.4870
14249TIP3   OH264237   5.904   5.473  17.260  0.1261  0.0880 -0.3214
14249TIP3    H164238   5.855   5.448  17.182 -0.0687 -0.8671  0.1095
14249TIP3    H264239   5.934   5.563  17.242 -1.6818  0.6396 -0.6257
14250TIP3   OH264240   3.546   2.788  13.899  0.2772 -0.5000 -0.2234
14250TIP3    H164241   3.493   2.866  13.914 -1.5973 -1.9697  1.0334
14250TIP3    H264242   3.570   2.793  13.806 -2.3885  0.0294 -0.9419
14251TIP3   OH264243   5.897   2.706  11.556  0.3382  0.2193 -0.3297
14251TIP3    H164244   5.883   2.753  11.473  1.1756  0.3108 -0.4163
14251TIP3    H264245   5.810   2.672  11.578 -0.0835  0.9773 -0.7687
14252TIP3   OH264246   1.650   4.592  14.606  0.0834  0.0671  0.0497
14252TIP3    H164247   1.741   4.574  14.630 -0.1801 -1.3388  0.0673
14252TIP3    H264248   1.599   4.550  14.674 -0.5932  0.4760 -0.2005
14253TIP3   OH264249   6.274   3.926   1.625  0.2770  0.6386 -0.3209
14253TIP3    H164250   6.338   3.864   1.659  0.4737  0.3902 -1.1391
14253TIP3    H264251   6.198   3.873   1.602  0.8948  0.5187 -2.1641
14254TIP3   OH264252   2.092   2.885  13.991 -0.4422  0.2641 -0.1196
14254TIP3    H164253   2.051   2.799  14.000  0.9183 -0.5349 -1.3209
14254TIP3    H264254   2.121   2.888  13.899  0.2716  1.6610  0.1421
14255TIP3   OH264255   0.137   0.545  16.674 -0.3632  0.0367  0.2328
14255TIP3    H164256   0.165   0.509  16.590  2.0043 -1.8737  1.7934
14255TIP3    H264257   0.200   0.615  16.692 -0.7061  0.2665  0.5378
14256TIP3   OH264258   5.189   2.595   1.577 -0.0514 -0.0031 -0.7836
14256TIP3    H164259   5.164   2.593   1.485  0.5256  1.0515 -0.9780
14256TIP3    H264260   5.193   2.689   1.599  2.9077 -0.1107 -0.5734
14257TIP3   OH264261   2.435   1.461  13.629  0.2864 -0.3169 -0.2408
14257TIP3    H164262   2.441   1.367  13.614 -1.1269 -0.4673  0.0356
14257TIP3    H264263   2.489   1.476  13.706  1.9780 -0.6078 -1.3453
14258TIP3   OH264264   1.356   4.740   4.572  0.4469  0.6600  0.5792
14258TIP3    H164265   1.322   4.757   4.485  1.3096  0.1917  0.1434
14258TIP3    H264266   1.282   4.705   4.621  0.2214 -0.0564 -0.2662
14259TIP3   OH264267   0.177   6.097   0.109  0.0460 -0.0913  0.2753
14259TIP3    H164268   0.226   6.019   0.082 -0.0639 -0.3059  0.6806
14259TIP3    H264269   0.171   6.089   0.205  0.5082  0.6950  0.3757
14260TIP3   OH264270   6.580   6.534  13.676  0.5738 -0.0721  0.1385
14260TIP3    H164271   6.594   6.530  13.770  1.1950  0.5820  0.0760
14260TIP3    H264272   6.567   6.443  13.650 -0.0503 -0.2168  0.9218
14261TIP3   OH264273   2.646   3.779  14.754  0.6181 -0.8781 -0.3145
14261TIP3    H164274   2.567   3.729  14.733  0.7817 -0.4089 -2.1001
14261TIP3    H264275   2.613   3.857  14.799  0.0670 -0.7661 -0.8961
14262TIP3   OH264276   5.283   0.335   6.186 -0.3679 -0.3627  0.2269
14262TIP3    H164277   5.269   0.430   6.190 -1.6467 -0.5368  0.0492
14262TIP3    H264278   5.258   0.304   6.273  0.9517 -0.4262  0.5877
14263TIP3   OH264279   1.947   5.627  13.683 -0.1550  1.1647  0.1263
14263TIP3    H164280   1.945   5.694  13.614 -1.1178  2.2410  1.1862
14263TIP3    H264281   1.957   5.677  13.764  0.1828 -0.0503  0.8312
14264TIP3   OH264282   5.523   2.911  15.173 -0.1879 -0.3480  0.0791
14264TIP3    H164283   5.584   2.837  15.174 -0.9133 -0.9996 -1.9356
14264TIP3    H264284   5.538   2.953  15.088 -0.8025  0.9503  0.6030
14265TIP3   OH264285   2.554   4.313   1.784 -0.2713 -0.1072  0.5251
14265TIP3    H164286   2.550   4.342   1.693  1.4464 -1.4128 -0.0062
14265TIP3    H264287   2.508   4.381   1.833  1.0749  1.9806 -0.9997
14266TIP3   OH264288   5.957   3.100   6.062 -0.6433 -0.1764 -0.4241
14266TIP3    H164289   5.871   3.094   6.105 -1.1814  0.3604 -1.4043
14266TIP3    H264290   6.002   3.171   6.108 -0.9215 -0.1132 -0.2442
14267TIP3   OH264291   1.095   6.229   2.534 -0.2140  0.6586 -0.5823
14267TIP3    H164292   1.152   6.297   2.570 -0.7581  1.1920 -0.7151
14267TIP3    H264293   1.103   6.239   2.439 -0.8596  1.0262 -0.6034
14268TIP3   OH264294   0.888   2.999  16.014 -0.0884 -0.7859 -0.2186
14268TIP3    H164295   0.837   3.079  16.003 -0.6979 -1.2644 -0.8878
14268TIP3    H264296   0.970   3.028  16.055 -1.1231 -0.0936  1.4176
14269TIP3   OH264297   3.540   1.624  17.040 -0.4888 -0.2436  0.3934
14269TIP3    H164298   3.534   1.553  16.975  1.4933 -1.1504  1.1685
14269TIP3    H264299   3.622   1.669  17.019 -0.8402  0.7153  1.0420
14270TIP3   OH264300   0.031   4.364   5.142  0.1847  0.1185  0.1662
14270TIP3    H164301   0.074   4.320   5.069 -1.5760  0.1587 -0.9380
14270TIP3    H264302   0.088   4.438   5.163  1.1002 -0.3407 -0.6547
14271TIP3   OH264303   0.625   4.324   4.032 -0.8958  0.2583  0.0032
14271TIP3    H164304   0.681   4.247   4.021 -3.3554 -1.5375 -0.2992
14271TIP3    H264305   0.654   4.385   3.964  1.5961 -0.0475  0.7520
14272TIP3   OH264306   5.609   1.253   2.320  0.2122 -0.0973  0.2422
14272TIP3    H164307   5.594   1.159   2.334 -0.3233 -0.3075 -1.6464
14272TIP3    H264308   5.629   1.260   2.227  0.4325  1.6544  0.4164
14273TIP3   OH264309   2.258   3.924  16.710 -0.6181  0.4343  0.2265
14273TIP3    H164310   2.245   3.955  16.800  0.6601 -0.0473  0.5746
14273TIP3    H264311   2.262   3.829  16.717 -1.7203  0.3189 -0.5035
14274TIP3   OH264312   4.249   6.479  15.749 -0.2455 -0.0495 -0.4475
14274TIP3    H164313   4.327   6.439  15.711  1.3207  1.9586  0.5246
14274TIP3    H264314   4.227   6.550  15.689 -0.9018 -0.1698 -0.3464
14275TIP3   OH264315   5.888   2.558   3.291 -0.6009 -0.3864 -0.1211
14275TIP3    H164316   5.950   2.518   3.231 -1.1680 -2.3278  0.5496
14275TIP3    H264317   5.938   2.625   3.336 -0.2561  1.3604 -2.9905
14276TIP3   OH264318   0.185   0.554   2.980  0.6868  0.5153 -0.2920
14276TIP3    H164319   0.256   0.493   2.959  1.0475  0.7680  0.1866
14276TIP3    H264320   0.221   0.640   2.960  0.1681  0.5691 -0.9939
14277TIP3   OH264321   5.928   3.297  13.527 -0.0527 -0.2679 -0.2888
14277TIP3    H164322   5.837   3.317  13.509  0.2438  0.6340 -0.8027
14277TIP3    H264323   5.969   3.382  13.545  0.8336 -0.5883 -0.7447
14278TIP3   OH264324   4.362   0.978   0.660  0.0780  0.0685 -0.1185
14278TIP3    H164325   4.292   0.951   0.720 -0.1864  0.8444 -0.0692
14278TIP3    H264326   4.420   0.902   0.655 -0.4611 -0.3745  0.2958
14279TIP3   OH264327   1.586   3.468  13.353  0.0345 -0.0481  0.1886
14279TIP3    H164328   1.610   3.554  13.390  0.7210  0.2480 -0.9259
14279TIP3    H264329   1.534   3.426  13.422  0.1782  1.0331  0.9697
14280TIP3   OH264330   0.140   0.919   1.688 -0.0344 -0.8552 -0.4857
14280TIP3    H164331   0.194   0.987   1.647  0.8610 -1.6111 -0.5938
14280TIP3    H264332   0.127   0.854   1.618 -1.0804 -0.6793 -0.4534
14281TIP3   OH264333   4.557   0.929  14.498 -0.0302 -0.4267  0.1190
14281TIP3    H164334   4.538   0.892  14.411  1.6229 -0.1959 -0.3571
14281TIP3    H264335   4.522   1.018  14.495 -1.2597 -0.8966  0.1982
14282TIP3   OH264336   0.379   5.161  17.274 -0.1469  0.4143  0.0786
14282TIP3    H164337   0.372   5.246  17.319  0.4450  1.1380 -1.1784
14282TIP3    H264338   0.340   5.176  17.188  0.4556 -0.4506 -0.3495
14283TIP3   OH264339   2.471   0.646   3.665 -0.0934  0.5368 -0.0045
14283TIP3    H164340   2.516   0.617   3.586 -1.3041  0.6788 -0.7612
14283TIP3    H264341   2.434   0.731   3.641 -1.4795  0.0321  0.3258
14284TIP3   OH264342   6.196   6.296  12.784 -0.2124  0.3059  0.2847
14284TIP3    H164343   6.162   6.330  12.701  1.0694 -0.3208 -0.5149
14284TIP3    H264344   6.264   6.359  12.809  0.5769 -0.4022 -0.0286
14285TIP3   OH264345   5.679   1.195  15.019 -0.6818  0.0486  0.6851
14285TIP3    H164346   5.636   1.181  15.103 -0.9432  1.3949  0.7835
14285TIP3    H264347   5.767   1.226  15.042  0.4178 -2.7955  0.4891
14286TIP3   OH264348   6.130   6.709  11.828 -0.6943 -0.0303  0.6406
14286TIP3    H164349   6.086   6.630  11.796 -1.4904  0.5484  0.2793
14286TIP3    H264350   6.223   6.692  11.815 -0.8495 -1.0446  0.8731
14287TIP3   OH264351   4.386   0.706   1.190  0.0363  0.4973  0.3657
14287TIP3    H164352   4.347   0.692   1.103 -0.0799  1.0208  0.3320
14287TIP3    H264353   4.465   0.756   1.172  0.1210  0.4293  0.5474
14288TIP3   OH264354   6.209   5.853  12.037 -0.6291  0.3882 -0.5841
14288TIP3    H164355   6.183   5.866  12.129 -1.4881  0.4080 -0.8271
14288TIP3    H264356   6.128   5.863  11.988 -0.4714 -1.3192 -1.2115
14289TIP3   OH264357   1.447   6.519   3.800 -0.2136  0.4879  0.7476
14289TIP3    H164358   1.454   6.459   3.726  1.3048 -1.4125  2.3914
14289TIP3    H264359   1.376   6.579   3.775 -0.9803 -1.2446 -1.4180
14290TIP3   OH264360   2.017   3.960   6.339  0.4637 -0.3642 -0.0823
14290TIP3    H164361   1.932   4.003   6.348  1.2678  1.5709 -1.4606
14290TIP3    H264362   1.997   3.866   6.346 -1.6938  0.0795  0.1504
14291TIP3   OH264363   6.364   3.562  16.794  0.0148 -0.2388  0.4399
14291TIP3    H164364   6.288   3.506  16.809 -1.2296  1.4312  0.5356
14291TIP3    H264365   6.341   3.646  16.834  1.0505  0.9397 -1.3063
14292TIP3   OH264366   2.885   0.633   3.139 -0.0338 -0.1165  0.6730
14292TIP3    H164367   2.881   0.596   3.227 -2.2346 -0.5530  0.4180
14292TIP3    H264368   2.954   0.699   3.143  0.1772 -0.4426  2.6031
14293TIP3   OH264369   0.609   5.057   1.968  0.0410  0.5721 -1.1614
14293TIP3    H164370   0.570   5.121   2.027  0.5044  0.0596 -0.3012
14293TIP3    H264371   0.693   5.096   1.943  0.6996 -0.0633  0.0175
14294TIP3   OH264372   5.777   0.660   1.919  0.4282 -0.3888 -0.4051
14294TIP3    H164373   5.721   0.622   1.851  1.3445 -0.9002 -0.8781
14294TIP3    H264374   5.817   0.736   1.878  1.0268 -0.7306 -0.4569
14295TIP3   OH264375   3.008   0.135   1.120 -0.1385 -0.3384 -0.6674
14295TIP3    H164376   3.052   0.102   1.199 -0.8191 -0.0649 -0.1748
14295TIP3    H264377   2.941   0.070   1.101  0.6647 -0.9065 -1.5932
14296TIP3   OH264378   5.560   1.122  12.266  0.2678 -0.4480  0.1753
14296TIP3    H164379   5.624   1.074  12.214 -0.5921 -2.0347  0.5729
14296TIP3    H264380   5.554   1.073  12.348 -1.4754 -0.3166  0.1260
14297TIP3   OH264381   3.016   6.225  12.990  0.6085 -0.0934 -0.5793
14297TIP3    H164382   2.975   6.312  12.994  2.4447  0.7328  1.1942
14297TIP3    H264383   3.022   6.197  13.081 -0.0971 -2.1722 -1.1536
14298TIP3   OH264384   5.542   2.243  11.307 -0.6585 -0.5873 -0.3903
14298TIP3    H164385   5.491   2.168  11.341  1.7686 -2.4090 -0.6406
14298TIP3    H264386   5.559   2.221  11.216  1.4605 -0.5293 -0.0347
14299TIP3   OH264387   4.381   3.048   1.531  0.3410  0.6867 -0.3600
14299TIP3    H164388   4.393   3.052   1.436 -0.7597  2.3723 -0.4378
14299TIP3    H264389   4.287   3.029   1.542  0.6351 -0.3890  0.3907
14300TIP3   OH264390   3.590   3.907  12.102 -0.8337  0.1281  0.3875
14300TIP3    H164391   3.586   3.997  12.072 -1.7372 -0.3395 -0.9520
14300TIP3    H264392   3.501   3.888  12.134 -0.9144 -0.5861 -0.2438
14301TIP3   OH264393   5.195   2.177   5.711  0.4261 -0.6530  0.1735
14301TIP3    H164394   5.134   2.249   5.724  0.1574 -0.8513 -0.0026
14301TIP3    H264395   5.202   2.135   5.797 -0.4245 -1.2258 -0.0395
14302TIP3   OH264396   4.371   0.777   5.109  0.1133 -0.0731  0.0979
14302TIP3    H164397   4.310   0.766   5.037  0.3706 -1.5006  0.0968
14302TIP3    H264398   4.440   0.833   5.073 -0.9085  1.1179 -0.0527
14303TIP3   OH264399   1.535   5.826   5.766 -0.1948 -0.4877  0.6994
14303TIP3    H164400   1.605   5.833   5.831 -2.2774  0.0089  2.9739
14303TIP3    H264401   1.483   5.906   5.779 -0.9441 -0.6422 -1.2333
14304TIP3   OH264402   4.333   1.377   1.550  0.1812  0.1443 -0.0682
14304TIP3    H164403   4.318   1.344   1.639  0.9147  0.3811  0.1520
14304TIP3    H264404   4.427   1.398   1.549  0.4308 -0.9708 -1.2668
14305TIP3   OH264405   6.260   0.656   3.159  0.2457 -0.5334 -0.1993
14305TIP3    H164406   6.223   0.661   3.071  5.1247 -1.1834 -2.4256
14305TIP3    H264407   6.312   0.736   3.168 -0.6320 -0.1914  2.3826
14306TIP3   OH264408   4.956   1.497  11.463  0.8492 -0.5103  0.0741
14306TIP3    H164409   5.004   1.431  11.513 -0.6635 -0.3174  1.8232
14306TIP3    H264410   4.946   1.570  11.524 -1.4853 -0.4692 -0.3390
14307TIP3   OH264411   4.579   5.166   2.920 -0.2872 -0.0989 -0.1257
14307TIP3    H164412   4.557   5.201   3.007 -2.8070  0.9718 -1.1369
14307TIP3    H264413   4.661   5.119   2.933 -1.0723 -0.7138  3.0321
14308TIP3   OH264414   4.783   6.347  15.964 -0.4308 -0.8832 -0.3032
14308TIP3    H164415   4.754   6.265  15.924 -0.8461 -1.2107  0.6504
14308TIP3    H264416   4.760   6.339  16.057 -0.9252  0.5149 -0.2850
14309TIP3   OH264417   3.794   2.357  15.039  0.3616 -0.0534  0.3366
14309TIP3    H164418   3.751   2.427  15.088  1.2092  0.8770 -0.2481
14309TIP3    H264419   3.774   2.278  15.089 -2.4516  0.2851 -0.1816
14310TIP3   OH264420   6.616   4.365  15.217  0.5662 -0.1674 -0.3607
14310TIP3    H164421   6.543   4.389  15.274  0.4197 -1.5217  0.0605
14310TIP3    H264422   6.694   4.388  15.267  0.4323 -0.5081  0.0117
14311TIP3   OH264423   2.962   4.291  15.450 -0.0249 -0.1929  0.3389
14311TIP3    H164424   2.923   4.204  15.442 -0.5234  0.0618 -0.0736
14311TIP3    H264425   3.051   4.281  15.418 -0.3077 -0.4009 -0.4154
14312TIP3   OH264426   6.785   1.360  14.185 -0.4222  0.5929 -0.1806
14312TIP3    H164427   6.692   1.358  14.207  0.0758 -1.2868  1.9327
14312TIP3    H264428   6.802   1.276  14.143  0.5173  0.5274  0.3094
14313TIP3   OH264429   3.601   3.527  16.948  0.0704 -0.0815 -0.1142
14313TIP3    H164430   3.529   3.587  16.931  0.9485  0.9199 -0.3227
14313TIP3    H264431   3.664   3.578  16.999  0.3407 -1.1485  0.6427
14314TIP3   OH264432   4.322   2.730  13.996 -0.7754  0.4256 -0.0148
14314TIP3    H164433   4.407   2.775  14.002 -0.4962  0.0038 -0.6802
14314TIP3    H264434   4.313   2.685  14.080 -0.6225  0.9629  0.2950
14315TIP3   OH264435   1.998   3.685   6.336 -0.7444  0.0531 -0.5066
14315TIP3    H164436   2.084   3.647   6.319 -1.0470  0.5222 -3.3770
14315TIP3    H264437   1.977   3.659   6.426  1.5815 -1.5675 -0.3926
14316TIP3   OH264438   5.475   6.477  15.526 -0.1569 -0.3873  0.1201
14316TIP3    H164439   5.537   6.470  15.599  1.7459 -0.8332 -1.5034
14316TIP3    H264440   5.513   6.423  15.457 -2.5797 -0.9980 -0.7891
14317TIP3   OH264441   3.400   1.705  14.024  0.0671 -0.1826  0.1296
14317TIP3    H164442   3.413   1.627  14.077 -2.1543 -2.4295 -2.4741
14317TIP3    H264443   3.422   1.677  13.935 -0.1263  2.3678 -0.7487
14318TIP3   OH264444   6.696   0.474  16.781  0.3885 -0.1788 -0.3090
14318TIP3    H164445   6.790   0.486  16.796  0.2227 -1.5660  2.2520
14318TIP3    H264446   6.685   0.379  16.772 -0.9942 -0.2431  1.5865
14319TIP3   OH264447   6.488   3.150  14.070 -0.1242 -0.2280  0.6166
14319TIP3    H164448   6.546   3.194  14.008  0.9792 -0.3055  1.5689
14319TIP3    H264449   6.446   3.222  14.118 -1.9514 -0.1347 -1.0518
14320TIP3   OH264450   1.533   1.560  16.371 -0.7988 -0.1188  0.1587
14320TIP3    H164451   1.524   1.565  16.275 -0.0307 -3.6624 -0.1525
14320TIP3    H264452   1.628   1.562  16.386 -0.8788 -0.6378  0.7498
14321TIP3   OH264453   6.165   4.061  17.112  0.2962  0.4841 -0.3282
14321TIP3    H164454   6.252   4.086  17.143  0.5041 -0.7382  0.0902
14321TIP3    H264455   6.181   4.024  17.025 -0.0972  2.4288 -1.2669
14322TIP3   OH264456   4.908   6.564   4.479 -0.3362 -0.2267  0.4740
14322TIP3    H164457   4.885   6.497   4.544  0.0101  1.6464  2.5719
14322TIP3    H264458   4.834   6.565   4.419 -0.9217 -1.5951  1.1459
14323TIP3   OH264459   5.635   0.838   2.898  0.1259 -0.0156 -0.1099
14323TIP3    H164460   5.613   0.746   2.911  1.5885 -0.2201  1.0924
14323TIP3    H264461   5.600   0.883   2.974 -0.9603  0.5102 -0.9003
14324TIP3   OH264462   3.975   4.813  16.434  0.0247  0.3331 -0.5992
14324TIP3    H164463   3.939   4.790  16.348 -0.8717 -0.5752  0.0157
14324TIP3    H264464   4.005   4.730  16.470 -0.6071  0.5526  0.4325
14325TIP3   OH264465   0.693   3.962  15.574  0.2711  0.1335  0.2038
14325TIP3    H164466   0.764   3.991  15.516  0.1107 -0.3790 -0.2505
14325TIP3    H264467   0.616   4.009  15.543  0.4533  0.9115  0.8793
14326TIP3   OH264468   4.363   3.565   3.802 -0.4648 -0.1374 -0.3945
14326TIP3    H164469   4.306   3.559   3.725  1.0464 -0.3048 -1.5226
14326TIP3    H264470   4.365   3.475   3.837 -0.1348 -0.3342 -0.9141
14327TIP3   OH264471   2.939   1.114  14.510 -0.9194 -0.4884  0.0667
14327TIP3    H164472   2.872   1.147  14.450 -1.5615 -0.6235  0.7056
14327TIP3    H264473   2.967   1.192  14.558 -0.1304 -0.3113 -0.6666
14328TIP3   OH264474   6.480   4.945   3.823  0.3176  1.0899 -0.0704
14328TIP3    H164475   6.428   4.904   3.754  1.2341  1.1467 -0.8074
14328TIP3    H264476   6.544   4.878   3.848  0.6576  1.4274 -0.0148
14329TIP3   OH264477   6.386   1.857  12.787 -0.1024 -0.1014  0.0276
14329TIP3    H164478   6.318   1.800  12.751  0.4042 -0.6889 -0.0077
14329TIP3    H264479   6.338   1.928  12.830 -0.7665 -1.1404  1.0234
14330TIP3   OH264480   2.954   4.569  16.170  0.2497 -0.8330  0.2729
14330TIP3    H164481   2.994   4.645  16.128 -0.9212 -0.9435 -1.0719
14330TIP3    H264482   2.908   4.605  16.246  0.1491 -0.2809 -0.0478
14331TIP3   OH264483   4.908   5.868  11.981 -0.1863  0.2483 -0.1626
14331TIP3    H164484   4.899   5.834  12.070  0.3160 -3.3154 -1.4003
14331TIP3    H264485   4.995   5.909  11.979 -0.1153  0.1551  0.9123
14332TIP3   OH264486   4.518   1.183   0.726  0.2169 -0.8059 -0.1217
14332TIP3    H164487   4.469   1.102   0.714 -0.2967 -0.2829 -1.5463
14332TIP3    H264488   4.540   1.184   0.820 -0.7078 -2.0488  0.1120
14333TIP3   OH264489   0.961   1.069   0.472  0.7644 -0.3620  0.6751
14333TIP3    H164490   1.054   1.071   0.450  0.9101 -0.6271  1.2678
14333TIP3    H264491   0.950   1.137   0.538  0.4221  0.0862  0.1587
14334TIP3   OH264492   6.069   4.731   1.625  0.1076  0.2282 -0.3836
14334TIP3    H164493   6.081   4.811   1.676  1.6418  0.0822 -0.4714
14334TIP3    H264494   6.140   4.734   1.560  1.5460 -2.2458  1.0025
14335TIP3   OH264495   5.363   3.269   2.206  0.1751 -0.2878 -0.1012
14335TIP3    H164496   5.407   3.353   2.192 -3.1585  1.4895 -0.5409
14335TIP3    H264497   5.299   3.287   2.275 -0.3838 -2.5717  0.0096
14336TIP3   OH264498   0.345   1.000  12.348  0.0472 -0.1936  0.3001
14336TIP3    H164499   0.385   1.040  12.425  1.4094 -0.2104 -0.3773
14336TIP3    H264500   0.327   1.073  12.289 -2.5354  0.0135  1.2833
14337TIP3   OH264501   5.600   1.981  17.091 -0.5578  0.7804  0.2417
14337TIP3    H164502   5.589   2.038  17.015  0.3538  2.7696  1.5824
14337TIP3    H264503   5.517   1.934  17.098 -1.2894  1.8861 -0.8997
14338TIP3   OH264504   0.500   0.981  13.533  0.5255 -0.0281 -0.6723
14338TIP3    H164505   0.503   1.076  13.544 -0.3188 -0.2010  1.2403
14338TIP3    H264506   0.585   0.951  13.565  0.7752  0.0873 -1.2340
14339TIP3   OH264507   4.116   0.424  11.584 -0.1344 -0.2801  0.0610
14339TIP3    H164508   4.048   0.361  11.610 -1.9444  1.0561 -1.3282
14339TIP3    H264509   4.123   0.413  11.489  0.3437  0.8282 -0.0308
14340TIP3   OH264510   0.674   3.461   1.153  0.3051  0.6132  0.3835
14340TIP3    H164511   0.660   3.367   1.149 -0.4999  0.5486  3.8320
14340TIP3    H264512   0.769   3.472   1.139  0.3929 -0.6547 -0.0438
14341TIP3   OH264513   4.649   0.868   1.114  0.1872 -0.4055  0.3193
14341TIP3    H164514   4.742   0.881   1.093  0.1981 -1.1257 -0.0823
14341TIP3    H264515   4.603   0.930   1.059  0.1319 -2.9621 -2.6877
14342TIP3   OH264516   0.486   4.442  11.098 -0.4966  0.0753  0.0540
14342TIP3    H164517   0.549   4.403  11.038 -1.2766 -0.5039 -0.3895
14342TIP3    H264518   0.407   4.454  11.046 -1.0810 -0.1607  0.8742
14343TIP3   OH264519   4.645   5.354   4.086  0.0351  0.1350 -0.2508
14343TIP3    H164520   4.617   5.444   4.100  0.1997 -0.0413  1.2389
14343TIP3    H264521   4.704   5.335   4.158  1.3823 -0.6108 -1.5223
14344TIP3   OH264522   3.783   6.476  11.033  0.0791  0.0184 -0.3212
14344TIP3    H164523   3.722   6.472  11.106 -0.2349  0.1071 -0.5747
14344TIP3    H264524   3.726   6.481  10.955  0.4037 -0.4610 -0.5931
14345TIP3   OH264525   1.624   4.708   4.914 -0.4753  0.0067  0.5088
14345TIP3    H164526   1.580   4.748   4.989  0.1393 -0.2430  1.0034
14345TIP3    H264527   1.717   4.718   4.932 -0.3077 -1.7876  0.7198
14346TIP3   OH264528   4.024   1.937  16.794 -0.0591  0.4120 -0.1163
14346TIP3    H164529   4.091   1.883  16.837 -0.0844 -0.9561 -1.7665
14346TIP3    H264530   4.071   2.016  16.768  0.0420  1.1148  2.0679
14347TIP3   OH264531   5.872   5.649   3.322  0.4188  0.0933 -0.2212
14347TIP3    H164532   5.833   5.713   3.262 -0.5110 -0.2485  0.0017
14347TIP3    H264533   5.808   5.642   3.393  1.5644  0.5807  0.8719
14348TIP3   OH264534   5.435   0.486   3.910 -0.1156  0.4331  0.1499
14348TIP3    H164535   5.427   0.450   3.822  0.5303  1.3064 -0.2819
14348TIP3    H264536   5.523   0.523   3.913 -0.3385  0.9266  0.9605
14349TIP3   OH264537   2.321   6.631  15.815  0.1265 -0.3254  0.0524
14349TIP3    H164538   2.378   6.681  15.873 -0.1608 -0.3635  0.3693
14349TIP3    H264539   2.376   6.559  15.784 -0.0053 -0.8661  1.0549
14350TIP3   OH264540   4.557   4.248   1.768  0.6256  0.3354 -0.0856
14350TIP3    H164541   4.555   4.276   1.859  1.4918  2.2357 -0.6286
14350TIP3    H264542   4.467   4.259   1.737  0.1570 -1.0558  0.7298
14351TIP3   OH264543   1.442   6.010   0.704  0.2525 -0.3720 -0.3212
14351TIP3    H164544   1.536   6.004   0.723  0.3115 -0.2097 -0.5554
14351TIP3    H264545   1.432   5.974   0.616 -0.3619 -3.3146  0.8991
14352TIP3   OH264546   5.164   2.917  14.174  0.2697  0.1111  0.0218
14352TIP3    H164547   5.189   2.973  14.100 -2.3705 -0.8983 -1.7348
14352TIP3    H264548   5.169   2.973  14.251  1.3972  1.6833 -1.1823
14353TIP3   OH264549   2.063   0.795  17.009  0.5803 -0.3004  0.0118
14353TIP3    H164550   2.076   0.825  17.099  1.6757 -0.5957 -0.0478
14353TIP3    H264551   2.095   0.705  17.009  1.8063  0.1308 -0.9924
14354TIP3   OH264552   2.515   5.228   0.114 -0.3953 -0.0738  0.5615
14354TIP3    H164553   2.420   5.225   0.102 -0.4274 -0.1363  0.8257
14354TIP3    H264554   2.549   5.260   0.031 -0.7307  1.1294  0.8757
14355TIP3   OH264555   5.621   3.828  12.867  0.0341 -0.1806 -0.0981
14355TIP3    H164556   5.642   3.896  12.803  0.6014  1.6733  2.0008
14355TIP3    H264557   5.531   3.803  12.847  0.0112  0.7914 -1.2388
14356TIP3   OH264558   6.816   5.971   5.447 -0.1511 -0.1037  0.2109
14356TIP3    H164559   6.902   5.989   5.485  0.5238  0.2636 -1.4209
14356TIP3    H264560   6.826   5.886   5.405 -1.0617 -0.7807  1.3604
14357TIP3   OH264561   6.181   5.415   1.696  1.2132 -0.1247 -0.1404
14357TIP3    H164562   6.168   5.492   1.751  0.1488 -0.2577 -0.1967
14357TIP3    H264563   6.244   5.361   1.744  0.7561  0.0455  0.6557
14358TIP3   OH264564   1.819   1.277  11.163 -0.4697  0.0704  0.2751
14358TIP3    H164565   1.787   1.352  11.112 -1.6497 -0.8809 -0.4144
14358TIP3    H264566   1.904   1.305  11.196 -1.0397  1.8433  0.2930
14359TIP3   OH264567   1.850   0.728  13.431  0.3923 -0.7370  0.1699
14359TIP3    H164568   1.805   0.771  13.504  0.3953  1.9632 -1.3370
14359TIP3    H264569   1.810   0.641  13.427  1.6057 -1.6114  4.4171
14360TIP3   OH264570   5.598   0.082   6.230  0.2509  0.2259 -0.2300
14360TIP3    H164571   5.663   0.134   6.278  0.7389 -1.3194  0.8649
14360TIP3    H264572   5.580   0.008   6.289  2.5698 -2.9824 -3.3357
14361TIP3   OH264573   4.885   6.603  12.015 -0.1814  0.6573  0.1707
14361TIP3    H164574   4.880   6.510  12.035 -0.3901  0.6925  0.2817
14361TIP3    H264575   4.807   6.641  12.056  0.1066  0.9416  0.4583
14362TIP3   OH264576   6.384   2.266   1.634 -0.0559 -0.2364  0.0590
14362TIP3    H164577   6.393   2.348   1.680 -2.6466  1.4579 -2.2709
14362TIP3    H264578   6.294   2.237   1.652 -0.6472 -0.2629 -2.6080
14363TIP3   OH264579   3.812   0.984  12.431 -0.5947  0.4263 -0.1969
14363TIP3    H164580   3.838   1.045  12.500 -0.3720  0.3296 -0.2000
14363TIP3    H264581   3.819   0.898  12.470  1.6815  0.2081 -1.0315
14364TIP3   OH264582   0.892   2.260  16.988 -0.5104 -0.3664  0.5967
14364TIP3    H164583   0.964   2.299  16.939  0.8272 -1.8721  1.3590
14364TIP3    H264584   0.906   2.289  17.078 -1.2183 -0.1584  0.6462
14365TIP3   OH264585   6.585   1.569  12.134 -0.3581  0.6151 -0.0362
14365TIP3    H164586   6.542   1.485  12.121 -0.5168  0.7328 -0.2687
14365TIP3    H264587   6.520   1.623  12.180 -0.8383  1.1222 -1.2823
14366TIP3   OH264588   0.250   5.544   0.463 -0.5685  0.2971 -0.3638
14366TIP3    H164589   0.205   5.495   0.394  1.2121 -1.7640 -0.1117
14366TIP3    H264590   0.239   5.490   0.541  2.1449 -0.1776 -0.2666
14367TIP3   OH264591   4.693   2.088  13.370  0.1369 -0.0871  0.4581
14367TIP3    H164592   4.683   2.164  13.427 -0.2492 -0.5072  0.9525
14367TIP3    H264593   4.656   2.116  13.286 -2.6098 -0.6533  1.4293
14368TIP3   OH264594   2.571   6.225  12.060  0.1845  0.1321 -0.5390
14368TIP3    H164595   2.520   6.242  11.981  1.2764  0.4788 -1.1861
14368TIP3    H264596   2.509   6.237  12.132 -0.1497  2.7727 -1.1897
14369TIP3   OH264597   5.404   2.114   4.734  0.7016  0.1934 -0.4275
14369TIP3    H164598   5.381   2.059   4.809 -0.3110  1.0217 -0.1091
14369TIP3    H264599   5.499   2.108   4.728  0.6237 -1.3320 -0.2129
14370TIP3   OH264600   3.619   4.729  12.797 -0.0459  0.6378 -0.8814
14370TIP3    H164601   3.706   4.765  12.815  1.3175 -1.0933 -3.7386
14370TIP3    H264602   3.589   4.775  12.718 -2.3781  2.1840  0.8030
14371TIP3   OH264603   5.953   1.575   1.470 -1.0208  0.3086 -0.0764
14371TIP3    H164604   5.916   1.526   1.545  0.4004 -0.0564  0.4048
14371TIP3    H264605   5.880   1.581   1.408 -1.3649 -2.1191  0.0088
14372TIP3   OH264606   4.466   2.565   4.209  0.7763  0.1579 -0.3599
14372TIP3    H164607   4.465   2.471   4.227 -1.5337  0.4757  1.3733
14372TIP3    H264608   4.500   2.605   4.289  0.1292  0.8975 -0.4393
14373TIP3   OH264609   3.749   3.594  14.690 -0.5945 -0.3881  0.5838
14373TIP3    H164610   3.722   3.684  14.670 -0.1209 -0.8288 -2.2979
14373TIP3    H264611   3.667   3.545  14.694 -0.8057  0.0277  1.3844
14374TIP3   OH264612   0.523   2.517   5.102  0.6647 -0.6861  0.0266
14374TIP3    H164613   0.559   2.447   5.156  1.0195 -0.9665 -0.5676
14374TIP3    H264614   0.590   2.533   5.035  0.4732  0.0337 -0.0025
14375TIP3   OH264615   3.940   5.659   0.435 -0.2385  0.2161  0.0589
14375TIP3    H164616   4.033   5.667   0.416  0.0769 -0.2884  1.3379
14375TIP3    H264617   3.899   5.730   0.386  0.6910 -0.2027 -1.3540
14376TIP3   OH264618   2.704   5.625  15.218 -0.8957 -0.2977 -0.2278
14376TIP3    H164619   2.621   5.579  15.203 -1.6008  1.0261 -0.4398
14376TIP3    H264620   2.771   5.561  15.194 -1.8279 -1.6832  0.7484
14377TIP3   OH264621   1.151   2.166   4.904 -0.1588  0.3034 -0.4836
14377TIP3    H164622   1.094   2.216   4.846  2.5916  1.0856 -2.6483
14377TIP3    H264623   1.180   2.229   4.970 -1.0127  0.1527  0.0387
14378TIP3   OH264624   2.682   2.384  12.379  1.0733  0.3118 -0.2854
14378TIP3    H164625   2.630   2.358  12.303  0.3699  0.2412  0.2160
14378TIP3    H264626   2.637   2.346  12.454  0.3896  2.3918  0.3967
14379TIP3   OH264627   0.346   2.461   5.597  0.0400  0.5056  0.0700
14379TIP3    H164628   0.391   2.383   5.564  2.0947  1.0930  1.3912
14379TIP3    H264629   0.289   2.428   5.667  0.4982  0.1177  0.2628
14380TIP3   OH264630   1.501   4.669   0.429  0.6075  0.0076  0.0043
14380TIP3    H164631   1.470   4.703   0.513  0.3367 -2.4551  0.9509
14380TIP3    H264632   1.564   4.600   0.453  1.2124 -0.0979 -1.8185
14381TIP3   OH264633   4.088   1.867  11.932  0.2438 -0.2114 -0.5020
14381TIP3    H164634   4.051   1.805  11.995 -1.9547 -1.0678 -2.5392
14381TIP3    H264635   4.030   1.942  11.934  0.9730  0.3578 -0.4884
14382TIP3   OH264636   4.127   3.902   3.310  0.2557 -0.5535 -0.4068
14382TIP3    H164637   4.040   3.931   3.285  0.2061  1.3162  1.7413
14382TIP3    H264638   4.187   3.954   3.256  0.0701 -0.8999 -0.9496
14383TIP3   OH264639   6.750   0.519  15.268 -0.2322  0.5179  0.9094
14383TIP3    H164640   6.687   0.528  15.197  2.1113 -0.7366 -1.3919
14383TIP3    H264641   6.743   0.427  15.295  0.1725  0.5421  1.0964
14384TIP3   OH264642   3.025   2.149   4.778  0.3799  0.1409 -0.1780
14384TIP3    H164643   2.986   2.067   4.806  1.2964 -0.2744 -0.0893
14384TIP3    H264644   3.026   2.144   4.682  0.4404  0.0493 -0.1720
14385TIP3   OH264645   3.208   0.261   4.317 -0.0894 -0.4213  0.4754
14385TIP3    H164646   3.267   0.230   4.249  0.9348  0.6255  0.8602
14385TIP3    H264647   3.130   0.291   4.271 -0.0669 -1.2529 -0.0931
14386TIP3   OH264648   2.185   1.068  16.689  0.0972  0.1267  0.0348
14386TIP3    H164649   2.218   1.126  16.759 -1.0825  2.8525 -1.5746
14386TIP3    H264650   2.096   1.047  16.715  0.2195 -0.2331  0.1634
14387TIP3   OH264651   5.427   0.670   4.414 -0.0023  0.3108  0.3442
14387TIP3    H164652   5.348   0.677   4.360  0.4758  1.2333 -0.2523
14387TIP3    H264653   5.406   0.717   4.495 -0.7751 -1.2041  1.0318
14388TIP3   OH264654   3.448   2.722   0.718 -0.3595 -0.5826 -0.3467
14388TIP3    H164655   3.409   2.789   0.774 -0.3526 -0.2626 -0.7174
14388TIP3    H264656   3.541   2.742   0.718 -0.5123  0.1617 -1.4443
14389TIP3   OH264657   3.048   1.221  16.680  0.3041 -0.0086 -0.3725
14389TIP3    H164658   3.053   1.126  16.686 -1.1675 -0.2459 -2.4782
14389TIP3    H264659   2.998   1.248  16.758 -2.7552 -1.3378 -1.8048
14390TIP3   OH264660   5.163   0.085  16.870  0.4265 -0.3587  0.0314
14390TIP3    H164661   5.086   0.031  16.849  0.4399 -0.9817  1.4931
14390TIP3    H264662   5.233   0.050  16.815  0.1874 -1.1963  0.2506
14391TIP3   OH264663   0.807   4.012   3.154 -0.0741 -0.0743  0.1663
14391TIP3    H164664   0.858   4.011   3.235 -0.3980  0.2839  0.3742
14391TIP3    H264665   0.867   4.044   3.088  0.3875 -0.9943  0.1360
14392TIP3   OH264666   1.264   6.093  13.036 -0.3347  0.6093 -0.0042
14392TIP3    H164667   1.221   6.009  13.051  1.7096 -0.5904 -0.6915
14392TIP3    H264668   1.356   6.077  13.057  0.2172  2.4731 -0.9031
14393TIP3   OH264669   4.869   6.151   5.992  0.4782  0.4384 -0.1534
14393TIP3    H164670   4.789   6.114   5.955  1.3210 -2.8723  1.1057
14393TIP3    H264671   4.840   6.197   6.072 -0.1625 -0.9268  0.4169
14394TIP3   OH264672   1.449   2.625  12.790 -0.3586 -0.2937 -0.8728
14394TIP3    H164673   1.443   2.532  12.772 -1.4479 -0.1155 -1.4122
14394TIP3    H264674   1.531   2.634  12.839 -0.5317 -1.6032 -0.3238
14395TIP3   OH264675   5.134   3.303   2.481 -0.1785  0.2607 -0.1105
14395TIP3    H164676   5.114   3.290   2.574 -2.0118 -0.4575 -0.5989
14395TIP3    H264677   5.101   3.225   2.438  1.5271  0.1518 -1.2780
14396TIP3   OH264678   0.046   6.410  12.519  0.1423 -0.7152  0.5212
14396TIP3    H164679   0.030   6.331  12.571  0.1633  0.4093  2.2740
14396TIP3    H264680  -0.014   6.475  12.554 -0.3214 -0.1223 -1.3389
14397TIP3   OH264681   5.899   5.041   3.068  0.0547  0.2925 -0.9122
14397TIP3    H164682   5.907   5.021   3.162  1.8555 -0.8256 -1.2892
14397TIP3    H264683   5.808   5.069   3.058 -0.6677 -1.2955  0.8431
14398TIP3   OH264684   6.264   4.239   2.080  0.4282 -0.0106 -0.1760
14398TIP3    H164685   6.215   4.279   2.008 -0.5257 -0.1999  0.3562
14398TIP3    H264686   6.206   4.169   2.111  0.0800  1.1570  1.8859
14399TIP3   OH264687   6.632   1.762  14.871  0.4395 -0.1837  0.3387
14399TIP3    H164688   6.642   1.841  14.817 -0.5507 -0.1680  0.1688
14399TIP3    H264689   6.686   1.696  14.828 -0.1233 -0.0903 -0.5137
14400TIP3   OH264690   1.991   1.933   0.462  0.5748  0.2125 -0.4483
14400TIP3    H164691   2.031   1.911   0.546  1.2176 -2.1561 -1.3186
14400TIP3    H264692   2.060   1.980   0.414  0.1772  1.6451  0.3502
14401TIP3   OH264693   0.257   3.845   4.306 -0.4460 -0.2824  0.5772
14401TIP3    H164694   0.195   3.800   4.248  0.4062 -1.3253  0.4538
14401TIP3    H264695   0.203   3.904   4.359 -1.7401 -2.2316  1.4833
14402TIP3   OH264696   5.482   6.243  14.196 -0.2031 -0.3568  0.4092
14402TIP3    H164697   5.444   6.327  14.222 -2.0268 -0.4118 -1.9883
14402TIP3    H264698   5.549   6.266  14.131 -0.0543 -0.7048  0.4371
14403TIP3   OH264699   6.575   5.042  16.743 -0.3192 -0.0972  0.0695
14403TIP3    H164700   6.657   4.999  16.765 -0.1855  0.8241  1.4700
14403TIP3    H264701   6.560   5.021  16.651  2.5478  1.4166 -0.7895
14404TIP3   OH264702   1.007   4.485   3.386  0.2222  0.1106  0.1761
14404TIP3    H164703   0.941   4.420   3.411 -1.1040  0.6063 -1.8586
14404TIP3    H264704   1.005   4.550   3.456 -0.1061 -0.8562  1.0775
14405TIP3   OH264705   6.365   5.168   5.495  0.3981 -0.9223 -0.2205
14405TIP3    H164706   6.394   5.081   5.520  0.4695 -1.1769 -1.1723
14405TIP3    H264707   6.445   5.221   5.494  0.6312 -1.2811 -1.4184
14406TIP3   OH264708   6.218   2.227   5.524 -0.3029 -0.0689 -0.3678
14406TIP3    H164709   6.241   2.205   5.614  2.7442  0.6462 -0.9359
14406TIP3    H264710   6.168   2.308   5.531 -1.2376 -0.7259  0.7650
14407TIP3   OH264711   2.338   4.525  15.288  0.1118 -0.4473  0.3807
14407TIP3    H164712   2.263   4.579  15.312  0.9516  0.8770  0.0668
14407TIP3    H264713   2.387   4.514  15.370  1.7087  2.0809 -0.1827
14408TIP3   OH264714   3.132   6.227   4.047  0.1887 -0.3693  0.7030
14408TIP3    H164715   3.175   6.293   4.101  1.5865 -2.1105  1.7739
14408TIP3    H264716   3.038   6.244   4.058  0.5062  0.6397  1.9534
14409TIP3   OH264717   1.594   6.163   2.042 -0.0954  0.0370 -0.2876
14409TIP3    H164718   1.587   6.081   1.994 -0.0180 -0.6622  0.8662
14409TIP3    H264719   1.622   6.137   2.130 -1.4850  1.1620  0.5069
14410TIP3   OH264720   1.175   0.966  13.472  0.0624  0.1483 -0.4842
14410TIP3    H164721   1.128   0.915  13.406 -0.5355 -1.1240  0.8933
14410TIP3    H264722   1.114   1.036  13.495  0.0143  0.2179 -0.8165
14411TIP3   OH264723   3.662   5.937  11.694  0.9427  0.2180 -0.3628
14411TIP3    H164724   3.601   5.994  11.741  2.1039 -2.0612  4.1344
14411TIP3    H264725   3.748   5.977  11.709  1.1142  0.8078 -2.7053
14412TIP3   OH264726   4.098   3.522   3.918 -0.3064  0.5014 -0.3869
14412TIP3    H164727   4.126   3.432   3.901  0.2522  0.4378  0.8486
14412TIP3    H264728   4.154   3.552   3.989  0.3153  2.2331 -1.5582
14413TIP3   OH264729   1.715   1.080  13.011  0.0840 -0.0754 -0.6572
14413TIP3    H164730   1.748   1.072  13.100 -0.2309 -0.1158 -0.5448
14413TIP3    H264731   1.744   1.167  12.983 -1.4206  0.7161  0.1607
14414TIP3   OH264732   2.054   3.960   0.622 -0.4481 -0.2190  0.9634
14414TIP3    H164733   2.114   3.889   0.597 -1.5823 -0.3594 -1.4806
14414TIP3    H264734   1.988   3.917   0.676 -0.9196 -0.9888 -0.2012
14415TIP3   OH264735   0.533   0.179  10.573 -0.5280  0.1464  0.8352
14415TIP3    H164736   0.591   0.130  10.515 -0.7409  0.0100  0.7381
14415TIP3    H264737   0.586   0.252  10.604 -1.2920  1.7983 -1.7021
14416TIP3   OH264738   4.299   4.217  12.266  0.3191 -0.1504 -0.1609
14416TIP3    H164739   4.307   4.254  12.178 -1.9736 -0.0177 -0.3437
14416TIP3    H264740   4.304   4.292  12.325 -1.6672  0.2126 -0.3978
14417TIP3   OH264741   5.960   6.140  13.445  0.1502 -0.3066 -0.1726
14417TIP3    H164742   6.028   6.151  13.378 -0.0968  0.6805 -0.2590
14417TIP3    H264743   5.931   6.049  13.434  0.5991 -0.3625 -0.9404
14418TIP3   OH264744   6.001   2.410   4.516  0.0166  0.2210  0.1532
14418TIP3    H164745   6.025   2.362   4.595 -0.3170  0.2564  0.2791
14418TIP3    H264746   6.001   2.502   4.542 -3.1753  0.0643  0.9808
14419TIP3   OH264747   1.613   3.524  14.674 -0.5528  0.1009  0.4975
14419TIP3    H164748   1.650   3.581  14.741  0.7283 -0.0988 -0.0243
14419TIP3    H264749   1.634   3.435  14.705 -2.2498 -0.0978  1.1428
14420TIP3   OH264750   6.560   4.913  16.501  0.3615 -0.0517 -0.1187
14420TIP3    H164751   6.642   4.866  16.490  2.3316  3.0060  0.9516
14420TIP3    H264752   6.573   4.996  16.454 -2.1142  0.4871  0.0547
14421TIP3   OH264753   6.416   0.956   2.443  0.0476  0.3583  0.3714
14421TIP3    H164754   6.353   1.003   2.498  0.6757  1.7011 -0.0429
14421TIP3    H264755   6.390   0.978   2.353  1.6980  1.7407  0.2104
14422TIP3   OH264756   1.714   1.795   6.446  0.4087  0.2311  0.3056
14422TIP3    H164757   1.667   1.712   6.437  0.7652  0.1403 -0.7635
14422TIP3    H264758   1.795   1.773   6.492  0.1621  0.1187  0.6918
14423TIP3   OH264759   1.800   2.186  12.190 -0.1687 -0.0802  0.2163
14423TIP3    H164760   1.777   2.265  12.238  1.8952  0.3839  0.4770
14423TIP3    H264761   1.847   2.217  12.112  1.7183 -1.0644  0.9193
14424TIP3   OH264762   4.578   4.355   4.177  0.4254  0.0613 -0.4753
14424TIP3    H164763   4.503   4.323   4.229  1.5956 -0.1876  1.1105
14424TIP3    H264764   4.568   4.312   4.092 -2.3420  1.5940 -0.9825
14425TIP3   OH264765   2.607   0.364   3.070  0.7669 -0.2799  0.3276
14425TIP3    H164766   2.691   0.354   3.116  0.0097 -1.0834  1.5565
14425TIP3    H264767   2.582   0.275   3.047  0.6919  0.0437 -0.8364
14426TIP3   OH264768   4.821   3.321   2.085 -0.3474  0.0187  0.6379
14426TIP3    H164769   4.740   3.270   2.097  0.7649 -1.7090  1.0041
14426TIP3    H264770   4.826   3.337   1.991 -0.1189 -1.5997  0.3569
14427TIP3   OH264771   0.562   4.170   5.040 -0.5055  0.0033 -0.3599
14427TIP3    H164772   0.621   4.188   5.113 -1.4970  0.2848  0.3834
14427TIP3    H264773   0.553   4.075   5.040  1.2609 -0.1913 -1.5346
14428TIP3   OH264774   4.870   6.459  17.103  0.2409  0.0348  0.2354
14428TIP3    H164775   4.884   6.460  17.198 -0.8446  2.1462  0.3815
14428TIP3    H264776   4.783   6.495  17.090 -0.2362 -1.6392 -1.4952
14429TIP3   OH264777   3.369   0.953   6.019 -0.3898  0.4320 -0.1658
14429TIP3    H164778   3.391   0.923   5.931 -0.0687  0.8722 -0.2356
14429TIP3    H264779   3.447   0.936   6.071 -0.7139 -0.1775  0.1202
14430TIP3   OH264780   3.246   4.476  16.591 -0.2366  0.3975  0.4196
14430TIP3    H164781   3.316   4.505  16.649 -0.6858  0.2295  1.0494
14430TIP3    H264782   3.169   4.525  16.620 -0.3703  0.6476 -0.3234
14431TIP3   OH264783   4.332   6.784  11.663  0.0805 -0.0348 -0.2051
14431TIP3    H164784   4.254   6.753  11.617  0.2061  1.0496 -1.1798
14431TIP3    H264785   4.299   6.840  11.734 -0.0164  1.5739 -1.4829
14432TIP3   OH264786   3.960   6.714  16.937 -0.2332  0.2806  0.5576
14432TIP3    H164787   3.958   6.751  17.025 -1.5604 -1.5268  1.3118
14432TIP3    H264788   3.966   6.619  16.951 -1.2888 -0.0787 -1.2869
14433TIP3   OH264789   2.494   0.449  11.773 -0.1619  0.2243  0.2734
14433TIP3    H164790   2.565   0.385  11.774  0.9889  1.4350 -1.6300
14433TIP3    H264791   2.443   0.428  11.851  1.7184 -1.2876  1.1565
14434TIP3   OH264792   3.975   0.951  13.018  0.0175 -0.4302 -0.0062
14434TIP3    H164793   4.001   0.933  12.928  0.1385  1.5069 -0.3907
14434TIP3    H264794   3.881   0.932  13.021  0.1705 -1.2175 -0.3472
14435TIP3   OH264795   0.846   5.194  11.049  0.6048  0.1926  0.0480
14435TIP3    H164796   0.856   5.248  10.971  0.5515  0.9522  0.5588
14435TIP3    H264797   0.934   5.162  11.067  0.6346  0.0925 -0.2706
14436TIP3   OH264798   3.779   2.057   2.732 -0.1399 -0.6544  0.3107
14436TIP3    H164799   3.770   1.963   2.747  0.0028 -0.8420 -0.7957
14436TIP3    H264800   3.702   2.095   2.776  0.2420 -1.1991  1.4843
14437TIP3   OH264801   1.777   1.287  12.708 -0.0046 -0.6053 -0.6948
14437TIP3    H164802   1.819   1.365  12.670  1.2642 -0.6461  0.5723
14437TIP3    H264803   1.694   1.279  12.661 -0.1113  1.4683 -0.9080
14438TIP3   OH264804   3.103   2.404   1.629  0.1939  0.5379 -0.3197
14438TIP3    H164805   3.113   2.469   1.698 -1.1080 -0.8320  1.2099
14438TIP3    H264806   3.024   2.430   1.582  0.3234  0.7129 -0.4405
14439TIP3   OH264807   3.756   2.336  14.354  0.1218 -0.5981  0.5508
14439TIP3    H164808   3.739   2.244  14.333 -2.5274 -0.0349  0.0500
14439TIP3    H264809   3.669   2.375  14.364  1.2121  1.7193  1.4013
14440TIP3   OH264810   4.053   2.398   2.477 -0.4812  0.4877  0.3817
14440TIP3    H164811   3.957   2.391   2.482 -0.6712  2.4599 -0.0284
14440TIP3    H264812   4.074   2.474   2.532  0.8680  0.0495  0.4955
14441TIP3   OH264813   3.806   2.232   6.071 -0.4524  0.6523  0.1160
14441TIP3    H164814   3.772   2.316   6.040  2.5579  1.9496  0.1835
14441TIP3    H264815   3.814   2.243   6.166 -0.0048  0.3121  0.1234
14442TIP3   OH264816   6.147   1.841   3.077 -0.5258 -0.6195  0.8311
14442TIP3    H164817   6.158   1.758   3.031 -2.1038 -0.7643  0.6764
14442TIP3    H264818   6.066   1.830   3.127 -0.9916  0.9800  0.4662
14443TIP3   OH264819   6.281   2.830   6.091 -0.2274  0.0891 -0.5922
14443TIP3    H164820   6.234   2.794   6.166 -1.5132  0.2950 -1.2879
14443TIP3    H264821   6.313   2.914   6.121  0.3650 -0.3953  0.1401
14444TIP3   OH264822   1.568   0.901  12.336 -0.1188 -0.0411  0.5579
14444TIP3    H164823   1.491   0.845  12.327  0.0932 -0.2801  0.1801
14444TIP3    H264824   1.593   0.922  12.246 -0.9363  1.7026  0.7383
14445TIP3   OH264825   0.313   1.383   2.194 -0.3815  0.4144 -0.3980
14445TIP3    H164826   0.234   1.409   2.147 -1.0783 -0.8262  0.0799
14445TIP3    H264827   0.345   1.306   2.148  1.1932  1.5670 -1.2730
14446TIP3   OH264828   0.238   5.449   3.168 -0.0481 -0.0381  0.1446
14446TIP3    H164829   0.268   5.506   3.239  0.5962  1.3395 -1.2016
14446TIP3    H264830   0.306   5.456   3.102 -0.0947 -2.1876 -0.1679
14447TIP3   OH264831   2.886   6.091  10.173 -0.3957 -0.4570 -0.0359
14447TIP3    H164832   2.904   6.159  10.238 -0.6845 -1.1363  0.7613
14447TIP3    H264833   2.865   6.139  10.093 -0.8509  0.4034  0.5935
14448TIP3   OH264834   5.447   1.553   6.205  0.4511 -0.0876  0.3313
14448TIP3    H164835   5.400   1.607   6.141 -1.1834 -2.5657 -0.6481
14448TIP3    H264836   5.386   1.544   6.278  0.5636 -0.9193  0.3253
14449TIP3   OH264837   5.332   5.038  12.686  0.0017 -0.1042 -0.4135
14449TIP3    H164838   5.424   5.029  12.659  0.2129 -1.2832  0.6471
14449TIP3    H264839   5.331   5.114  12.744  0.2601  0.0673 -0.6329
14450TIP3   OH264840   5.174   6.344  14.334 -0.3897 -0.6285 -0.0730
14450TIP3    H164841   5.191   6.361  14.242 -2.3342 -0.2646 -0.3799
14450TIP3    H264842   5.121   6.418  14.363 -0.8780 -1.3842  1.0202
14451TIP3   OH264843   4.587   3.233  14.993  0.1855  0.0034  0.2361
14451TIP3    H164844   4.651   3.227  14.922  2.4847  1.0713  2.1833
14451TIP3    H264845   4.567   3.326  15.001  2.2444  0.2634  2.9505
14452TIP3   OH264846   4.387   0.068   0.429  0.2384 -0.1173 -0.0704
14452TIP3    H164847   4.474   0.079   0.467 -0.4654  0.1354  1.5134
14452TIP3    H264848   4.333   0.133   0.475 -1.0258 -1.0383 -0.2353
14453TIP3   OH264849   0.857   6.573   4.395  0.3977 -0.4075 -0.1976
14453TIP3    H164850   0.884   6.527   4.316  2.2691  0.8944 -0.3697
14453TIP3    H264851   0.937   6.577   4.448 -1.0188 -1.9378  2.1094
14454TIP3   OH264852   6.692   0.977  11.435  0.1681  0.0526  0.3149
14454TIP3    H164853   6.687   1.073  11.443  0.5027 -0.0529  2.0455
14454TIP3    H264854   6.611   0.953  11.390 -1.0287  0.9641  1.9082
14455TIP3   OH264855   3.349   6.053  13.710  0.1417  0.8472  0.5934
14455TIP3    H164856   3.263   6.010  13.709  0.9258 -1.0204  4.0551
14455TIP3    H264857   3.391   6.025  13.629 -1.2976 -0.8774  0.4104
14456TIP3   OH264858   3.347   2.903   0.212 -0.1761  0.9464 -0.0526
14456TIP3    H164859   3.376   2.840   0.277 -1.1130  0.4658 -0.0830
14456TIP3    H264860   3.289   2.853   0.155 -1.4145  1.9722  0.2821
14457TIP3   OH264861   1.188   4.301   5.866 -0.4742 -0.4531  0.2081
14457TIP3    H164862   1.216   4.216   5.900 -0.3537 -0.3361  0.3979
14457TIP3    H264863   1.175   4.286   5.772  0.8720 -0.3349  0.0024
14458TIP3   OH264864   4.653   4.841   5.202  0.6777  0.0088  1.0559
14458TIP3    H164865   4.666   4.747   5.211 -0.5576 -0.3860 -0.8774
14458TIP3    H264866   4.562   4.855   5.229 -0.1882  0.1225 -1.7805
14459TIP3   OH264867   0.770   2.839  16.965  0.3133  0.1741 -0.4745
14459TIP3    H164868   0.785   2.791  17.046 -0.1491  1.3741  0.3379
14459TIP3    H264869   0.772   2.772  16.897 -0.1622 -0.9716  0.6115
14460TIP3   OH264870   2.922   1.381  15.910 -0.2274 -0.3996  0.3904
14460TIP3    H164871   2.914   1.425  15.994  0.8240 -0.0358  0.3007
14460TIP3    H264872   2.955   1.448  15.850  1.8852 -1.4070  0.3734
14461TIP3   OH264873   3.956   3.173   1.917 -0.4214  0.7352  0.6688
14461TIP3    H164874   3.880   3.220   1.950 -0.2427 -0.7535  3.3354
14461TIP3    H264875   4.029   3.234   1.928 -0.6822  0.9462  1.2395
14462TIP3   OH264876   5.840   3.054   6.943 -0.3587 -0.1394  0.3674
14462TIP3    H164877   5.878   3.047   7.031 -0.7524 -1.8066  0.4096
14462TIP3    H264878   5.911   3.029   6.884 -0.8704 -1.5911  0.3568
14463TIP3   OH264879   3.869   2.717  16.785 -0.1953  0.2635  0.3196
14463TIP3    H164880   3.787   2.672  16.768 -0.5704  0.0870  2.5069
14463TIP3    H264881   3.884   2.707  16.879  3.1279 -1.0529 -0.2785
14464TIP3   OH264882   4.506   5.988   5.706 -0.3430 -0.0316  0.3128
14464TIP3    H164883   4.586   5.969   5.657  0.9826  2.7109  1.2985
14464TIP3    H264884   4.441   6.008   5.638  0.0012 -1.5053 -0.4682
14465TIP3   OH264885   5.003   0.231  12.799  0.0611  0.2964  0.8363
14465TIP3    H164886   5.055   0.253  12.722 -0.7328  1.4058  0.6000
14465TIP3    H264887   5.006   0.310  12.853 -0.5658  0.0276  1.2673
14466TIP3   OH264888   4.058   1.028   4.190 -0.3551 -0.0378 -0.0919
14466TIP3    H164889   4.135   1.035   4.134 -1.1044  1.1739 -1.0017
14466TIP3    H264890   4.052   0.936   4.213  0.8568 -0.2782 -0.7325
14467TIP3   OH264891   6.389   4.037  15.437  0.1689 -0.1536  0.0214
14467TIP3    H164892   6.453   4.107  15.444 -0.9753  0.7005  2.0245
14467TIP3    H264893   6.380   4.023  15.342  0.1998  2.5606 -0.4034
14468TIP3   OH264894   1.019   4.126   1.225 -0.4354  0.0018  0.4603
14468TIP3    H164895   1.071   4.198   1.189 -1.6273  0.4856 -0.3436
14468TIP3    H264896   1.049   4.118   1.316  0.7602  0.5201  0.1220
14469TIP3   OH264897   2.780   2.949   1.168  0.1247  0.3166 -0.4263
14469TIP3    H164898   2.751   3.015   1.231 -0.5043 -0.2654 -0.0960
14469TIP3    H264899   2.737   2.974   1.086 -1.6405 -0.7444  0.1452
14470TIP3   OH264900   2.481   1.040  10.999  0.6758  0.5007  0.2422
14470TIP3    H164901   2.523   0.968  10.953 -1.2522 -0.9533  0.7195
14470TIP3    H264902   2.394   1.047  10.959  0.5022  1.9397  0.8457
14471TIP3   OH264903   6.751   4.570  13.406 -0.3349  0.3548  0.6400
14471TIP3    H164904   6.775   4.524  13.325 -0.5518 -1.6199  1.6612
14471TIP3    H264905   6.707   4.649  13.377  1.2168  0.5694 -1.1961
14472TIP3   OH264906   3.759   4.264  15.009 -0.0415  0.0977 -0.1812
14472TIP3    H164907   3.689   4.199  14.999  0.1606 -0.7553  3.3879
14472TIP3    H264908   3.790   4.253  15.099  2.5222  2.6595 -0.6694
14473TIP3   OH264909   5.544   1.494   4.922 -0.2300 -0.3780  0.6585
14473TIP3    H164910   5.584   1.537   4.998  0.2509  0.6120 -0.1449
14473TIP3    H264911   5.600   1.418   4.906  2.3938  1.9273 -1.5093
14474TIP3   OH264912   0.224   5.274   5.908  0.2752  0.1366 -0.1219
14474TIP3    H164913   0.139   5.235   5.889  0.8760 -0.2042 -2.1962
14474TIP3    H264914   0.250   5.236   5.992 -1.8670  0.6828  0.8189
14475TIP3   OH264915   2.024   3.901  15.643 -0.1571 -0.0776  0.4695
14475TIP3    H164916   2.107   3.922  15.687  0.4665  1.3147 -1.2905
14475TIP3    H264917   1.965   3.877  15.714  1.2392  0.6492  1.9254
14476TIP3   OH264918   1.785   1.063   0.589  1.0330  0.1281 -0.0239
14476TIP3    H164919   1.756   1.069   0.680  0.0953 -0.4790 -0.2732
14476TIP3    H264920   1.756   0.976   0.561  2.0617 -0.0159 -0.6480
14477TIP3   OH264921   5.857   1.711   3.744 -0.0949  0.1710 -0.1573
14477TIP3    H164922   5.811   1.627   3.739 -0.5822  0.2688  2.0505
14477TIP3    H264923   5.944   1.692   3.708 -0.6756 -0.9068 -1.0378
14478TIP3   OH264924   4.139   1.277  13.340 -0.0675  0.3156 -0.1435
14478TIP3    H164925   4.056   1.317  13.364 -0.2510 -0.2583  0.1697
14478TIP3    H264926   4.181   1.256  13.423  0.7172  1.2651 -0.2807
14479TIP3   OH264927   3.727   0.963   0.726 -0.6099 -0.1677 -0.1801
14479TIP3    H164928   3.816   0.975   0.692 -1.0136  1.8749 -0.6244
14479TIP3    H264929   3.671   0.973   0.649 -1.1760 -2.9540 -0.1716
14480TIP3   OH264930   4.726   2.011   2.290  0.3277  0.4726  0.1671
14480TIP3    H164931   4.808   1.972   2.321  0.0286 -0.0954  0.2440
14480TIP3    H264932   4.663   1.940   2.292  0.5229  0.1629 -2.6627
14481TIP3   OH264933   6.633   4.601   6.891 -0.2002 -0.0382 -0.0768
14481TIP3    H164934   6.719   4.581   6.854  0.3248  0.8432  0.6513
14481TIP3    H264935   6.614   4.528   6.950  1.8060  1.6151  2.7566
14482TIP3   OH264936   5.759   3.694   4.054  0.3159 -0.1087  0.1214
14482TIP3    H164937   5.763   3.778   4.100  0.1158  0.6569 -1.2130
14482TIP3    H264938   5.695   3.642   4.104 -1.5284  1.4758 -0.5006
14483TIP3   OH264939   4.344   0.508  12.982 -0.0087  0.0620 -0.9521
14483TIP3    H164940   4.384   0.440  12.928 -1.4526 -1.0249 -0.7019
14483TIP3    H264941   4.325   0.464  13.065 -1.7205  0.5237 -1.0824
14484TIP3   OH264942   4.951   2.402   5.558  0.7062 -0.2509 -0.5901
14484TIP3    H164943   4.991   2.394   5.472  0.2875 -2.4222 -0.6117
14484TIP3    H264944   4.875   2.458   5.544  0.5120 -0.7830 -1.6854
14485TIP3   OH264945   3.508   5.477  10.505 -0.3476 -0.0339 -0.2973
14485TIP3    H164946   3.550   5.477  10.419  0.4893  0.6700  0.1142
14485TIP3    H264947   3.535   5.394  10.545  1.1679  0.6812  0.2047
14486TIP3   OH264948   4.257   6.003  11.501  0.1215  0.3403  1.0019
14486TIP3    H164949   4.198   6.063  11.454 -0.4865 -0.0191  1.2928
14486TIP3    H264950   4.333   6.056  11.524  0.5386  0.4581 -0.6063
14487TIP3   OH264951   1.942   2.114   0.202 -0.2157 -0.4355  0.3734
14487TIP3    H164952   1.872   2.148   0.258  0.4622 -0.4486  1.2224
14487TIP3    H264953   1.913   2.136   0.113 -1.1770 -0.2100  0.7340
14488TIP3   OH264954   0.204   3.988  11.945 -0.9311 -0.4200 -0.1899
14488TIP3    H164955   0.136   3.989  12.013 -1.4568 -1.2727 -0.6891
14488TIP3    H264956   0.280   3.949  11.988 -0.1640  2.1994  0.9015
14489TIP3   OH264957   3.795   2.699  15.360  0.3224  0.1104 -0.5347
14489TIP3    H164958   3.818   2.784  15.398  1.4424 -0.8194  0.9243
14489TIP3    H264959   3.856   2.637  15.401 -1.0509 -1.5290 -0.9169
14490TIP3   OH264960   6.035   2.464   0.630  0.3785  0.2951  0.3590
14490TIP3    H164961   6.031   2.369   0.643 -1.3623  0.3155  0.0553
14490TIP3    H264962   6.095   2.495   0.698  0.5343 -0.9498  0.8038
14491TIP3   OH264963   1.943   6.791  14.260 -0.0353 -0.1851 -0.2046
14491TIP3    H164964   2.017   6.852  14.263  0.6201 -0.9657 -0.1700
14491TIP3    H264965   1.941   6.751  14.347 -0.5056 -0.1593 -0.2021
14492TIP3   OH264966   0.104   5.499  13.169  0.4332 -0.6762  0.0156
14492TIP3    H164967   0.047   5.500  13.092 -0.1085 -0.3176  0.4143
14492TIP3    H264968   0.172   5.435  13.148 -1.3627 -2.7757  0.4337
14493TIP3   OH264969   3.803   5.173  16.571 -0.3829 -0.0875 -0.1286
14493TIP3    H164970   3.793   5.104  16.637 -0.3476  0.3229  0.3087
14493TIP3    H264971   3.840   5.128  16.495 -1.7520 -0.8519 -0.3778
14494TIP3   OH264972   1.545   4.028  16.500 -0.5727 -0.1896 -0.8737
14494TIP3    H164973   1.592   4.024  16.584  0.8633  0.8059 -1.6113
14494TIP3    H264974   1.563   4.116  16.467 -2.3043 -0.0745 -1.5679
14495TIP3   OH264975   4.586   4.238  15.534 -0.3999 -0.3122  0.6466
14495TIP3    H164976   4.572   4.163  15.591  0.2844 -1.1628 -0.2846
14495TIP3    H264977   4.681   4.248  15.530 -0.4181 -0.5554 -0.7092
14496TIP3   OH264978   6.099   5.365  15.262 -0.9212  0.1537 -0.0218
14496TIP3    H164979   6.156   5.440  15.247 -0.2867 -0.0952  1.0860
14496TIP3    H264980   6.045   5.359  15.183  1.0363 -0.0246 -1.3723
14497TIP3   OH264981   2.699   2.273   6.319 -0.2586 -0.0880 -0.1994
14497TIP3    H164982   2.784   2.237   6.345 -0.5975 -0.6874  0.0787
14497TIP3    H264983   2.695   2.358   6.361  0.7700  0.5129 -1.2724
14498TIP3   OH264984   4.995   0.768   3.524 -0.5877 -0.2562  0.3198
14498TIP3    H164985   4.951   0.826   3.461 -1.8780 -2.1423 -0.5815
14498TIP3    H264986   5.075   0.741   3.480 -0.4872  0.0502  0.3173
14499TIP3   OH264987   0.195   0.141   6.113 -0.6986 -0.2003  0.1067
14499TIP3    H164988   0.206   0.055   6.154 -0.5250  0.3999  1.3270
14499TIP3    H264989   0.185   0.202   6.186  1.2964  1.1205 -0.6820
14500TIP3   OH264990   0.367   4.722  15.620 -0.4045  0.1479 -0.2759
14500TIP3    H164991   0.280   4.693  15.646 -1.1382  2.2561 -0.3097
14500TIP3    H264992   0.400   4.651  15.565 -2.1819 -0.5641 -0.4591
14501TIP3   OH264993   6.254   6.384  17.258 -0.6591 -0.4971 -0.0828
14501TIP3    H164994   6.241   6.290  17.265  0.8795 -0.7135 -0.0705
14501TIP3    H264995   6.349   6.396  17.255 -0.7849  1.1583  1.5014
14502TIP3   OH264996   5.762   1.513   1.644 -0.4676  0.4459 -0.3268
14502TIP3    H164997   5.726   1.557   1.567  0.8524  1.7611 -0.2156
14502TIP3    H264998   5.730   1.564   1.718  0.7084  0.9838 -0.1727
14503TIP3   OH264999   5.261   6.452   4.128  0.2838  0.0291  0.0413
14503TIP3    H165000   5.179   6.486   4.164 -0.1346  2.0026 -2.6608
14503TIP3    H265001   5.303   6.527   4.087  2.6289 -1.3274 -0.1584
14504TIP3   OH265002   4.982   3.305  11.562 -0.1026 -0.3925  0.0184
14504TIP3    H165003   4.991   3.359  11.484  2.2111  2.9124  2.4190
14504TIP3    H265004   4.891   3.318  11.590  0.1409  1.5387 -0.0043
14505TIP3   OH265005   2.283   5.656  10.892 -0.4996 -0.3388 -0.3197
14505TIP3    H165006   2.248   5.743  10.910  0.3561 -0.1677  0.5619
14505TIP3    H265007   2.231   5.597  10.946  1.2089  0.0315  1.8195
14506TIP3   OH265008   3.129   1.808   4.612  0.0644  0.5890  0.3879
14506TIP3    H165009   3.104   1.884   4.560 -0.6271  0.7085  0.8767
14506TIP3    H265010   3.155   1.742   4.548 -0.5227  0.8285 -0.1038
14507TIP3   OH265011   5.096   6.535  16.964 -0.0894 -0.2076 -0.4233
14507TIP3    H165012   5.061   6.577  16.886 -0.1953  0.1185 -0.2002
14507TIP3    H265013   5.024   6.481  16.997 -0.2348  0.1060 -0.2244
14508TIP3   OH265014   5.549   5.650   3.848 -0.5572 -0.2622 -0.3108
14508TIP3    H165015   5.496   5.648   3.768  1.0819  0.5558 -1.4516
14508TIP3    H265016   5.561   5.744   3.866  2.8900 -0.3756 -1.7262
14509TIP3   OH265017   1.749   3.154   2.896 -0.6791 -0.1193  0.2210
14509TIP3    H165018   1.674   3.102   2.868 -1.4245  1.3735 -0.5846
14509TIP3    H265019   1.803   3.093   2.946 -1.7367 -1.5572 -0.3733
14510TIP3   OH265020   1.734   0.741   3.830 -0.4099 -0.1379  0.7899
14510TIP3    H165021   1.701   0.812   3.885  2.0759  0.4509  1.5929
14510TIP3    H265022   1.825   0.730   3.858  0.2772 -1.2577 -1.7486
14511TIP3   OH265023   2.970   5.030   5.449  0.4170 -0.1982  0.1941
14511TIP3    H165024   3.031   4.977   5.501  0.4955  0.1320  0.4400
14511TIP3    H265025   2.964   5.112   5.496  1.4329  0.5607 -0.9511
14512TIP3   OH265026   2.336   0.402  13.490 -0.0929  0.5476  0.1722
14512TIP3    H165027   2.348   0.423  13.398  2.0858 -0.3491  0.2373
14512TIP3    H265028   2.329   0.487  13.534  0.0721  0.9854 -0.6479
14513TIP3   OH265029   0.143   3.927  17.066 -0.6233  0.6243  0.1049
14513TIP3    H165030   0.143   3.855  17.129 -1.0138 -0.2066 -0.8348
14513TIP3    H265031   0.132   4.006  17.119  1.7156  0.1771  1.3248
14514TIP3   OH265032   4.779   4.288   6.123  0.1590  0.3916  0.0808
14514TIP3    H165033   4.800   4.217   6.183 -2.4641 -0.9361 -0.4972
14514TIP3    H265034   4.701   4.329   6.160 -2.0169 -0.9750 -2.7255
14515TIP3   OH265035   3.139   3.394   5.741 -0.5290 -0.4910  0.1385
14515TIP3    H165036   3.060   3.445   5.757 -0.8914 -1.4362  1.5441
14515TIP3    H265037   3.107   3.306   5.719  0.1044 -0.8005  0.4174
14516TIP3   OH265038   1.755   0.637  14.620 -0.3961 -0.3429  0.6647
14516TIP3    H165039   1.715   0.686  14.548 -1.0348 -1.4017  0.2929
14516TIP3    H265040   1.702   0.659  14.697 -1.4376 -1.3993  0.2600
14517TIP3   OH265041   0.923   1.070   6.236 -0.3040  0.3831  0.2144
14517TIP3    H165042   0.938   1.055   6.329  0.3270  1.0121  0.2210
14517TIP3    H265043   0.829   1.056   6.224 -0.4320  0.5545  0.9980
14518TIP3   OH265044   0.084   6.770   1.727 -0.6366  0.2787 -0.6254
14518TIP3    H165045   0.130   6.850   1.705  0.1504 -0.1747 -0.6552
14518TIP3    H265046   0.045   6.787   1.813  1.1161  0.0442  0.2427
14519TIP3   OH265047   4.257   4.552   5.750  0.0289  0.5915  0.9062
14519TIP3    H165048   4.313   4.618   5.789  1.8595 -1.1941  1.3897
14519TIP3    H265049   4.187   4.539   5.814  0.6222  0.8093  1.6066
14520TIP3   OH265050   5.694   3.885   3.788  0.4229 -0.2979 -0.2689
14520TIP3    H165051   5.732   3.901   3.874 -0.5313  1.1503 -0.0886
14520TIP3    H265052   5.600   3.879   3.805  0.1127  1.2314 -1.3576
14521TIP3   OH265053   3.156   0.467  17.058  0.4606 -0.2163  0.7973
14521TIP3    H165054   3.083   0.500  17.112 -0.3578 -0.5206 -0.1093
14521TIP3    H265055   3.209   0.544  17.040 -0.9887  0.4983 -0.6095
14522TIP3   OH265056   1.926   5.948   3.029 -0.0361 -0.6100 -0.9196
14522TIP3    H165057   1.847   5.998   3.053  1.3729  1.2621  0.0051
14522TIP3    H265058   1.995   5.986   3.084  1.1811 -3.3312 -0.5175
14523TIP3   OH265059   0.718   5.056   0.247 -0.4990  0.3216  0.4308
14523TIP3    H165060   0.667   5.086   0.322 -0.4589 -0.2555  0.6911
14523TIP3    H265061   0.672   4.978   0.216 -1.4934  1.5468 -1.2142
14524TIP3   OH265062   4.807   2.937  15.438 -0.3028 -0.7673 -0.8274
14524TIP3    H165063   4.847   3.020  15.409 -0.2030 -0.3193  0.5676
14524TIP3    H265064   4.794   2.949  15.532 -2.1562 -1.5710 -0.9765
14525TIP3   OH265065   1.659   2.774   1.847 -0.1275  0.1673 -0.4956
14525TIP3    H165066   1.585   2.803   1.901  1.2619  1.2687  0.8321
14525TIP3    H265067   1.663   2.679   1.862 -2.1363 -0.1506 -1.6959
14526TIP3   OH265068   3.773   3.801   0.799 -0.4991 -0.2366 -0.3139
14526TIP3    H165069   3.850   3.838   0.842 -1.0300  1.0915 -0.5091
14526TIP3    H265070   3.739   3.737   0.861  1.2522 -1.4536 -0.5738
14527TIP3   OH265071   3.577   4.110  10.895 -0.5508  0.3979 -0.0061
14527TIP3    H165072   3.552   4.038  10.837  0.4551 -1.4281  1.7918
14527TIP3    H265073   3.668   4.128  10.873  0.1228 -0.9379  1.6350
14528TIP3   OH265074   5.955   6.179  11.755  0.0257 -0.2133  0.4283
14528TIP3    H165075   5.873   6.151  11.715 -0.9060  2.6408  0.2167
14528TIP3    H265076   6.022   6.154  11.692 -1.1463  1.4717 -1.5536
14529TIP3   OH265077   1.243   4.718  11.710 -0.2933 -0.0109  0.5675
14529TIP3    H165078   1.301   4.772  11.764 -0.2483  0.2970  0.2125
14529TIP3    H265079   1.230   4.769  11.631 -1.3501  0.0889  0.7940
14530TIP3   OH265080   0.547   0.265   5.224  0.2124  0.0972 -0.2475
14530TIP3    H165081   0.595   0.246   5.144  0.4833 -1.2414  0.2146
14530TIP3    H265082   0.455   0.256   5.199  0.2935 -0.1870 -0.4465
14531TIP3   OH265083   0.493   5.583  16.252 -0.2555  0.1707  0.1439
14531TIP3    H165084   0.583   5.551  16.251 -0.1388  0.4700  0.8512
14531TIP3    H265085   0.501   5.679  16.247 -0.4716  0.2830  1.5459
14532TIP3   OH265086   2.765   0.176   4.894  0.0406  0.3580 -0.5014
14532TIP3    H165087   2.796   0.261   4.925  0.5548 -0.1524  0.3947
14532TIP3    H265088   2.767   0.120   4.971  0.2997 -0.6369 -1.2213
14533TIP3   OH265089   1.626   5.334  13.450  0.2452 -0.0552 -0.2626
14533TIP3    H165090   1.568   5.357  13.377  2.4802  2.1900 -1.4191
14533TIP3    H265091   1.574   5.352  13.528 -0.9191  1.1139 -1.2677
14534TIP3   OH265092   1.932   4.936   6.102  0.6573  0.4673  0.0512
14534TIP3    H165093   1.991   4.914   6.174  0.2650  0.9914  0.5353
14534TIP3    H265094   1.888   4.854   6.081 -0.6334  0.7023  1.6984
14535TIP3   OH265095   4.059   3.298  12.407 -0.0933  0.1751 -0.1590
14535TIP3    H165096   4.091   3.339  12.327 -1.3144 -0.4212 -0.9584
14535TIP3    H265097   3.989   3.239  12.378 -0.0410 -0.6063  1.2562
14536TIP3   OH265098   3.986   5.379  15.347 -0.2571  0.3227 -1.0347
14536TIP3    H165099   4.025   5.402  15.431 -0.3673  0.1759 -0.9436
14536TIP3    H265100   3.927   5.451  15.327 -3.0524 -1.3595  0.7871
14537TIP3   OH265101   4.333   0.828   2.679  0.3295 -0.2733  0.4372
14537TIP3    H165102   4.314   0.757   2.618  1.6067 -0.3933  0.1724
14537TIP3    H265103   4.292   0.800   2.761 -0.5928 -0.5388 -0.1059
14538TIP3   OH265104   0.256   2.669   0.447  0.3546  0.0787 -0.3699
14538TIP3    H165105   0.346   2.676   0.479  0.4580  2.1151 -1.0516
14538TIP3    H265106   0.205   2.652   0.526  1.0032  1.8897  0.4800
14539TIP3   OH265107   4.644   4.488  15.853  0.2275 -0.2329  0.0369
14539TIP3    H165108   4.723   4.541  15.839 -0.6704  1.1807  0.1931
14539TIP3    H265109   4.576   4.552  15.872 -0.9964 -1.4377 -0.2457
14540TIP3   OH265110   6.238   0.916   2.763 -0.0926 -0.2855  0.3011
14540TIP3    H165111   6.333   0.916   2.774  0.3427  0.1990 -2.9596
14540TIP3    H265112   6.208   0.842   2.815  2.2704 -1.5359 -0.0447
14541TIP3   OH265113   4.297   4.107   1.076 -0.2162  0.1468 -0.2410
14541TIP3    H165114   4.308   4.078   1.167 -0.2929  0.2922 -0.1854
14541TIP3    H265115   4.205   4.134   1.070  0.0564  1.1425 -0.0750
14542TIP3   OH265116   4.569   4.170   3.676 -0.3591 -0.0261 -0.5378
14542TIP3    H165117   4.609   4.244   3.631  0.4577 -0.9557 -1.3639
14542TIP3    H265118   4.518   4.125   3.609  0.0902 -0.8759 -0.3258
14543TIP3   OH265119   2.686   5.888   1.462  0.0445  0.0814  0.2054
14543TIP3    H165120   2.718   5.799   1.479 -2.4195 -0.9065 -0.1314
14543TIP3    H265121   2.735   5.943   1.524  1.3397 -1.5505  0.6659
14544TIP3   OH265122   0.579   0.903   1.419 -0.2580  0.1029  0.3279
14544TIP3    H165123   0.653   0.893   1.358 -0.2485 -0.7951  0.4903
14544TIP3    H265124   0.502   0.881   1.367 -0.2601 -0.5634  0.6088
14545TIP3   OH265125   5.670   0.951  14.143  0.1248 -0.2305 -0.4171
14545TIP3    H165126   5.736   1.015  14.171 -1.4840  0.1325  2.7709
14545TIP3    H265127   5.713   0.866  14.157  0.0089  0.0066  1.5617
14546TIP3   OH265128   1.548   0.070   4.104  0.8458 -0.1731  0.4968
14546TIP3    H165129   1.608   0.134   4.143  0.4576  0.0441  0.7410
14546TIP3    H265130   1.463   0.090   4.143  0.9345 -1.5579  1.3975
14547TIP3   OH265131   1.891   3.800   2.176  0.1701  0.1769 -0.6458
14547TIP3    H165132   1.835   3.788   2.100 -0.9168  0.2150  0.1385
14547TIP3    H265133   1.879   3.891   2.201  1.8776  0.6422 -1.4718
14548TIP3   OH265134   2.143   3.214  15.336 -0.5153  0.3070 -0.0217
14548TIP3    H165135   2.113   3.144  15.278 -1.1580  1.2544 -0.8572
14548TIP3    H265136   2.102   3.195  15.420 -1.1930  0.0204 -0.4137
14549TIP3   OH265137   2.172   4.456  10.920 -0.1402  0.4472  0.5256
14549TIP3    H165138   2.080   4.435  10.939  0.1147 -0.0818  1.1714
14549TIP3    H265139   2.220   4.378  10.944  0.5288  0.8581  0.5236
14550TIP3   OH265140   6.412   0.073  15.931  0.0384  0.4617 -0.0305
14550TIP3    H165141   6.390   0.130  15.857 -1.4542  0.3409  0.2927
14550TIP3    H265142   6.329   0.062  15.977  0.7471 -0.3056  1.0777
14551TIP3   OH265143   4.092   5.448   1.416 -0.1131 -0.1797  0.4456
14551TIP3    H165144   4.050   5.496   1.344 -0.4723 -0.3361  0.5474
14551TIP3    H265145   4.184   5.440   1.390 -0.0009  0.7741  0.5410
14552TIP3   OH265146   4.018   6.372  14.014 -0.4890  0.3102 -0.1531
14552TIP3    H165147   4.074   6.320  14.072 -0.0860  0.6733 -0.2114
14552TIP3    H265148   3.975   6.308  13.958  0.2240  0.0497 -0.4164
14553TIP3   OH265149   1.804   6.347   1.952  0.6369 -0.1286 -0.5641
14553TIP3    H165150   1.728   6.291   1.944  1.0662 -0.8678  0.4106
14553TIP3    H265151   1.877   6.287   1.968  1.0612  0.6988  0.6998
14554TIP3   OH265152   0.613   1.286  13.167 -0.2662  0.0890 -0.1319
14554TIP3    H165153   0.528   1.327  13.180 -0.3694 -0.0926 -0.2404
14554TIP3    H265154   0.648   1.277  13.256  0.1422  1.2241 -0.1645
14555TIP3   OH265155   2.946   5.626  10.948 -0.0961  0.1658 -0.1720
14555TIP3    H165156   2.949   5.607  10.854  1.0314 -0.0612 -0.0882
14555TIP3    H265157   2.881   5.564  10.982  0.9489 -1.1351 -0.4833
14556TIP3   OH265158   2.398   6.111   5.370  0.2592 -0.4649 -0.4056
14556TIP3    H165159   2.362   6.051   5.306 -1.4696  0.2165 -0.0975
14556TIP3    H265160   2.426   6.055   5.443  0.2731 -1.0389 -0.8541
14557TIP3   OH265161   3.523   0.601  16.641 -0.2006 -0.1349 -0.6556
14557TIP3    H165162   3.455   0.621  16.705  0.4173 -1.8249  0.5633
14557TIP3    H265163   3.508   0.510  16.618  1.9542 -0.7103  0.0489
14558TIP3   OH265164   4.135   3.609  13.425  0.3949 -0.3983  0.5067
14558TIP3    H165165   4.199   3.646  13.485  0.4583  1.3290 -0.6097
14558TIP3    H265166   4.053   3.653  13.447  0.2252 -0.4373 -0.0426
14559TIP3   OH265167   5.600   2.354   3.431  0.4129  0.2222 -0.0308
14559TIP3    H165168   5.613   2.403   3.512  3.7980 -1.2620  0.4095
14559TIP3    H265169   5.520   2.304   3.446 -0.0533  1.3996  1.6144
14560TIP3   OH265170   2.138   6.066  10.733  0.4204 -0.2665  0.3390
14560TIP3    H165171   2.053   6.107  10.748 -0.4147 -1.0618 -2.0760
14560TIP3    H265172   2.184   6.127  10.676  0.9696 -0.4655  0.5711
14561TIP3   OH265173   0.583   1.236   1.401  0.5909 -0.4330  0.3118
14561TIP3    H165174   0.575   1.288   1.481  0.7240  0.7640 -0.4381
14561TIP3    H265175   0.670   1.196   1.407  0.5485 -0.4541  0.8227
14562TIP3   OH265176   5.525   3.567  12.556  0.4942  0.0670  0.0423
14562TIP3    H165177   5.505   3.629  12.626  2.1650 -1.8100  2.2137
14562TIP3    H265178   5.570   3.620  12.490  1.0932  1.3556  1.4541
14563TIP3   OH265179   4.384   1.473   1.268  0.4273 -0.0662  0.1132
14563TIP3    H165180   4.471   1.512   1.267  0.1431  0.5464 -1.1823
14563TIP3    H265181   4.355   1.481   1.359  1.2429  0.7873  0.3038
14564TIP3   OH265182   4.522   5.035  16.948 -0.4615  0.3000  0.1038
14564TIP3    H165183   4.614   5.034  16.921 -0.3319  0.9399  0.4997
14564TIP3    H265184   4.473   5.016  16.867 -0.0592  1.7810 -0.5165
14565TIP3   OH265185   6.081   5.833  12.291  0.8896 -0.0319  0.1980
14565TIP3    H165186   6.107   5.751  12.333  1.9848 -0.5726 -1.4897
14565TIP3    H265187   5.987   5.825  12.279  0.8983 -0.7805  0.6079
14566TIP3   OH265188   1.180   6.617   5.060 -0.0073  0.0795  0.1471
14566TIP3    H165189   1.246   6.647   4.997 -1.3577 -0.4096 -1.5348
14566TIP3    H265190   1.128   6.695   5.079 -1.8952 -0.5334 -2.2276
14567TIP3   OH265191   0.445   2.712   0.851 -0.0807 -0.2842 -0.0665
14567TIP3    H165192   0.533   2.676   0.864 -0.6067 -2.2903 -1.7152
14567TIP3    H265193   0.397   2.686   0.929  0.3065 -0.8076  0.0029
14568TIP3   OH265194   4.568   3.651   4.672 -0.1277  0.5550  0.1153
14568TIP3    H165195   4.638   3.621   4.613 -0.3238 -0.5528  0.4401
14568TIP3    H265196   4.614   3.700   4.740  0.2134  0.8754 -0.3399
14569TIP3   OH265197   3.973   3.152   4.598 -0.1356  0.3834  0.1913
14569TIP3    H165198   3.882   3.179   4.586  0.2392  1.3448 -0.5254
14569TIP3    H265199   4.000   3.194   4.679 -0.6077 -0.6617  0.9028
14570TIP3   OH265200   1.820   6.650   3.669  0.1381 -0.1248  0.3251
14570TIP3    H165201   1.790   6.623   3.582  1.3528 -0.7451  0.0867
14570TIP3    H265202   1.828   6.568   3.718  2.3437 -0.0993  0.0774
14571TIP3   OH265203   1.763   1.612  14.185 -0.0086  0.3706  0.4034
14571TIP3    H165204   1.852   1.633  14.160  0.6190 -1.6322  0.8593
14571TIP3    H265205   1.710   1.637  14.110  1.2213 -0.5222 -0.7877
14572TIP3   OH265206   4.161   5.333  17.200  0.2300  0.2115  0.1641
14572TIP3    H165207   4.156   5.291  17.285  0.4557 -0.1973 -0.0234
14572TIP3    H265208   4.088   5.297  17.150  0.3018  0.1942  0.0696
14573TIP3   OH265209   1.451   6.718  16.660 -0.2702  0.2241 -0.3065
14573TIP3    H165210   1.438   6.624  16.675  0.1521  0.4518  1.6805
14573TIP3    H265211   1.476   6.724  16.568 -1.0702 -1.5309 -0.6702
14574TIP3   OH265212   0.839   3.768   1.446  0.4011 -0.4274  0.0048
14574TIP3    H165213   0.912   3.747   1.388  0.4218  1.0505 -0.5440
14574TIP3    H265214   0.761   3.748   1.394  0.4139  1.6109 -0.8525
14575TIP3   OH265215   3.562   3.195  14.798  0.2686 -0.4183 -0.2148
14575TIP3    H165216   3.575   3.205  14.892  0.8157 -3.7235  0.0990
14575TIP3    H265217   3.467   3.190  14.787  0.1050  1.8604 -0.0895
14576TIP3   OH265218   1.197   4.139  14.958 -0.4746  0.2460 -0.6778
14576TIP3    H165219   1.170   4.231  14.953  1.2472  0.7327 -1.2835
14576TIP3    H265220   1.285   4.137  14.920 -0.5851 -1.6964 -0.9049
14577TIP3   OH265221   0.596   5.030   6.330  0.3500 -0.3185  0.2838
14577TIP3    H165222   0.617   5.002   6.419 -1.0016  0.6582  0.9390
14577TIP3    H265223   0.571   4.950   6.284 -1.8199 -0.4405  1.6352
14578TIP3   OH265224   5.349   4.606   0.850  0.0479 -0.6173 -0.2618
14578TIP3    H165225   5.264   4.580   0.816 -0.8810  1.0656  0.7249
14578TIP3    H265226   5.411   4.583   0.780 -1.3419 -0.6988 -1.4876
14579TIP3   OH265227   0.099   6.179  10.614 -0.2193 -0.1275 -0.0956
14579TIP3    H165228   0.161   6.247  10.639 -0.0619 -0.5740  0.7309
14579TIP3    H265229   0.016   6.206  10.655 -0.2071 -0.3272  0.0599
14580TIP3   OH265230   5.175   5.937  11.990 -0.1599  0.0756  0.4174
14580TIP3    H165231   5.214   5.876  12.053  0.2495 -0.6904 -0.5688
14580TIP3    H265232   5.185   6.023  12.031  2.3061 -0.1365  0.3183
14581TIP3   OH265233   1.632   5.592  14.854  0.0281 -0.5848 -0.7119
14581TIP3    H165234   1.583   5.655  14.907  1.4471  1.7282 -2.0584
14581TIP3    H265235   1.593   5.598  14.767  0.6300 -1.0624 -1.0198
14582TIP3   OH265236   3.662   3.630   0.995 -0.1487  0.0044 -0.4427
14582TIP3    H165237   3.720   3.680   1.052  0.1972  2.3157 -2.7486
14582TIP3    H265238   3.715   3.557   0.965  0.0266 -0.5805  1.2298
14583TIP3   OH265239   2.073   1.946  14.033  0.2317  0.0494  0.1196
14583TIP3    H165240   2.010   1.978  14.097  1.3846  1.8829  0.3994
14583TIP3    H265241   2.078   2.017  13.968  1.4353 -0.3899 -0.2741
14584TIP3   OH265242   5.824   0.209   3.908  0.1067  0.5413 -0.4313
14584TIP3    H165243   5.743   0.258   3.894 -0.7765 -0.6650  0.3356
14584TIP3    H265244   5.829   0.149   3.833 -1.9132 -2.2863  1.5950
14585TIP3   OH265245   1.146   5.664  16.301  0.3044 -0.3046 -0.5906
14585TIP3    H165246   1.072   5.714  16.336  1.5845 -0.4109  2.3999
14585TIP3    H265247   1.105   5.592  16.254 -1.5074  0.0239  0.4227
14586TIP3   OH265248   1.470   6.392  15.252 -0.2219 -0.2886  0.0089
14586TIP3    H165249   1.558   6.419  15.280 -0.1199  0.6030 -1.1272
14586TIP3    H265250   1.416   6.470  15.266 -0.9321 -0.9575  1.0700
14587TIP3   OH265251   0.979   5.803  11.701  0.3226  0.6116  0.1791
14587TIP3    H165252   1.016   5.715  11.699  0.9167  0.8672 -0.1621
14587TIP3    H265253   0.988   5.832  11.792 -1.4214 -0.3266  0.6766
14588TIP3   OH265254   2.560   2.396  14.781 -0.3124 -0.0164  0.2035
14588TIP3    H165255   2.563   2.491  14.773 -0.1105  0.0146  0.6394
14588TIP3    H265256   2.535   2.365  14.694  2.3822  0.2840 -0.6940
14589TIP3   OH265257   6.631   2.031  17.249  0.1241 -0.4981 -0.0397
14589TIP3    H165258   6.666   1.966  17.189 -1.1663 -0.9233 -0.3450
14589TIP3    H265259   6.597   2.101  17.193  1.5912  0.5027  0.2891
14590TIP3   OH265260   3.135   1.043   3.335  0.1721 -0.2378 -0.1325
14590TIP3    H165261   3.192   1.119   3.351  0.8749 -0.9404  0.7873
14590TIP3    H265262   3.193   0.968   3.347 -0.6765 -0.9348 -0.4017
14591TIP3   OH265263   2.800   5.759   4.753 -0.1176  0.2034  0.1869
14591TIP3    H165264   2.768   5.743   4.664 -1.2343  0.3365  0.5629
14591TIP3    H265265   2.830   5.850   4.751 -2.5984  1.0619  0.6597
14592TIP3   OH265266   5.563   2.574   3.914 -0.0983 -0.2114  0.2296
14592TIP3    H165267   5.520   2.659   3.902  0.2112 -0.2615 -1.3008
14592TIP3    H265268   5.652   2.596   3.939  0.1042 -0.0829 -0.6035
14593TIP3   OH265269   5.817   4.922   2.791 -0.2565  0.8638 -0.7006
14593TIP3    H165270   5.911   4.931   2.806 -0.1756  1.6095 -1.6012
14593TIP3    H265271   5.791   4.846   2.844  0.2746  2.4543  1.9683
14594TIP3   OH265272   2.909   1.264   3.972  0.1283 -0.4919 -0.0679
14594TIP3    H165273   2.866   1.226   3.894 -1.6717  2.6793 -0.7335
14594TIP3    H265274   2.878   1.211   4.045 -1.1350 -1.2431 -1.1301
14595TIP3   OH265275   0.325   2.106  14.520  0.7755 -0.5265 -0.1955
14595TIP3    H165276   0.323   2.019  14.560 -0.7442 -0.3440  0.1451
14595TIP3    H265277   0.336   2.166  14.593  0.4888 -0.3417 -0.3053
14596TIP3   OH265278   1.005   2.391  15.268  0.1333 -0.3129 -0.4972
14596TIP3    H165279   0.993   2.484  15.289  1.5093 -0.3265  0.3779
14596TIP3    H265280   1.100   2.379  15.267  0.1221 -0.8628 -4.3684
14597TIP3   OH265281   6.760   6.317  13.159  0.1175 -0.5480 -0.8539
14597TIP3    H165282   6.788   6.338  13.248  0.7794  1.5188 -1.5362
14597TIP3    H265283   6.799   6.231  13.142  1.5464 -0.1212  0.1607
14598TIP3   OH265284   1.533   6.174  15.644  0.1621 -0.3439  0.6127
14598TIP3    H165285   1.464   6.217  15.594 -0.8138 -1.4453  0.9965
14598TIP3    H265286   1.544   6.089  15.602  1.1983 -0.2338  0.6371
14599TIP3   OH265287   5.117   4.875  16.717  0.1958 -0.0900  0.3759
14599TIP3    H165288   5.136   4.892  16.809 -0.9662  0.3053  0.5518
14599TIP3    H265289   5.094   4.782  16.714 -2.1273  0.4243  0.9146
14600TIP3   OH265290   1.239   6.371  13.166  0.3963  0.7914 -0.3166
14600TIP3    H165291   1.193   6.288  13.179  0.8474  0.5365 -0.2998
14600TIP3    H265292   1.306   6.350  13.101  0.7204  1.0615 -0.0712
14601TIP3   OH265293   3.418   2.857   4.290  0.3414  0.3185  0.0491
14601TIP3    H165294   3.386   2.768   4.279  2.0879 -0.3258  0.1021
14601TIP3    H265295   3.502   2.859   4.245  1.0360  1.5092  1.3306
14602TIP3   OH265296   2.545   2.304  16.250 -0.1611  0.1957 -0.3490
14602TIP3    H165297   2.473   2.271  16.196 -0.7736  1.1691 -0.1343
14602TIP3    H265298   2.502   2.337  16.329  0.5476  0.5809 -0.1251
14603TIP3   OH265299   3.018   6.076  16.073 -0.1279  0.1611  0.4145
14603TIP3    H165300   2.990   5.985  16.063  1.3359 -0.1751 -0.9811
14603TIP3    H265301   3.057   6.079  16.161 -2.1350  0.0070  1.3339
14604TIP3   OH265302   0.689   4.716  17.219 -0.5881  0.3037 -0.6351
14604TIP3    H165303   0.778   4.679  17.218 -0.5726  0.2449  0.8231
14604TIP3    H265304   0.641   4.666  17.153 -0.1434 -1.2566  0.1899
14605TIP3   OH265305   0.443   5.158  16.675 -0.5485 -0.1829  0.0729
14605TIP3    H165306   0.432   5.206  16.757 -1.5517  0.2202 -0.2858
14605TIP3    H265307   0.413   5.219  16.607  1.4462 -0.0461 -0.7230
14606TIP3   OH265308   1.092   6.094   4.207  0.1442  0.1046  0.7003
14606TIP3    H165309   1.079   6.019   4.266  0.9349  1.2152  2.3132
14606TIP3    H265310   1.099   6.169   4.266  0.9735  1.2336 -0.8330
14607TIP3   OH265311   2.053   1.688   4.809 -0.0179  0.1141 -0.1145
14607TIP3    H165312   2.123   1.719   4.752  1.0156 -2.2012 -0.1563
14607TIP3    H265313   2.064   1.737   4.890 -0.5817  2.3585 -1.3656
14608TIP3   OH265314   5.683   1.610  11.876  0.1932  0.4235 -0.1824
14608TIP3    H165315   5.671   1.581  11.966 -2.1145  2.0573  0.0890
14608TIP3    H265316   5.605   1.576  11.830  1.9734 -1.5146 -1.8902
14609TIP3   OH265317   5.433   0.080  12.752  0.6510 -0.1455 -0.7678
14609TIP3    H165318   5.524   0.073  12.782  0.4056  0.1441  0.0578
14609TIP3    H265319   5.381   0.084  12.833 -0.1285 -0.7239 -1.2288
14610TIP3   OH265320   2.611   0.964  10.417 -0.1608 -0.2685 -0.1227
14610TIP3    H165321   2.609   0.994  10.327 -0.1448  0.4804  0.1214
14610TIP3    H265322   2.652   0.877  10.413 -1.9084 -1.0686 -1.0502
14611TIP3   OH265323   1.650   1.764   4.272 -0.4051  0.3559 -0.8147
14611TIP3    H165324   1.587   1.707   4.227 -1.6306 -0.8531  2.2961
14611TIP3    H265325   1.601   1.800   4.345  1.5964  2.0894 -0.2966
14612TIP3   OH265326   2.881   3.616  14.262 -0.0335  0.5226  0.3193
14612TIP3    H165327   2.869   3.662  14.345 -1.5885  1.1031 -0.2064
14612TIP3    H265328   2.855   3.526  14.281 -1.2885  0.8621  0.2381
14613TIP3   OH265329   3.124   4.203   3.024 -0.2751 -0.5842 -0.4348
14613TIP3    H165330   3.071   4.266   2.974 -0.6051  0.2190  0.8802
14613TIP3    H265331   3.078   4.120   3.014 -2.6741  0.3620  1.8539
14614TIP3   OH265332   2.387   6.029  16.508 -0.1015  0.0297 -0.2370
14614TIP3    H165333   2.297   6.029  16.539  0.4916 -1.3663  1.5381
14614TIP3    H265334   2.419   6.118  16.528 -0.4937 -0.0761  0.8869
14615TIP3   OH265335   0.532   6.650   4.837 -0.3560 -0.9282 -0.1797
14615TIP3    H165336   0.529   6.558   4.862 -0.3431 -1.1514 -0.9852
14615TIP3    H265337   0.481   6.655   4.756 -1.6632  0.0531  0.6840
14616TIP3   OH265338   4.355   1.927  14.089 -0.0249  0.2743  0.6064
14616TIP3    H165339   4.414   2.002  14.100  1.2550 -0.8212  1.3610
14616TIP3    H265340   4.313   1.917  14.174 -0.0543  0.0074  0.5592
14617TIP3   OH265341   4.452   3.603  16.357 -0.2370 -0.0990 -0.3085
14617TIP3    H165342   4.510   3.570  16.288 -0.5772 -0.1652 -0.5580
14617TIP3    H265343   4.398   3.528  16.382 -0.4179  0.0444 -0.2745
14618TIP3   OH265344   0.630   4.229  15.791 -0.6358 -0.2744 -0.2389
14618TIP3    H165345   0.718   4.228  15.752  0.4224 -0.5246  2.1073
14618TIP3    H265346   0.634   4.163  15.860 -1.3546  2.7018  2.7458
14619TIP3   OH265347   5.080   0.606   6.533 -0.1326 -0.8086  0.8704
14619TIP3    H165348   5.168   0.605   6.495  0.0736  0.3094  1.3058
14619TIP3    H265349   5.033   0.672   6.483 -0.4241 -0.6798  1.3081
14620TIP3   OH265350   1.997   2.934   6.489  0.0119 -0.5163  0.1805
14620TIP3    H165351   1.910   2.930   6.529  0.6791  1.2781  1.9472
14620TIP3    H265352   1.992   3.007   6.428  0.2328 -0.5003  0.1807
14621TIP3   OH265353   1.621   0.669  11.027  0.3354 -0.3439  0.2152
14621TIP3    H165354   1.654   0.648  11.114 -2.6336 -1.3273  1.1309
14621TIP3    H265355   1.657   0.756  11.009  2.0984 -0.7119  1.8275
14622TIP3   OH265356   1.900   2.034  14.562  0.3485  0.0982 -0.5739
14622TIP3    H165357   1.811   1.998  14.554 -0.3412  1.7303 -0.4556
14622TIP3    H265358   1.957   1.958  14.554 -1.0777 -1.0410 -0.2173
14623TIP3   OH265359   5.769   5.064   5.260 -0.3814 -0.1934  0.1953
14623TIP3    H165360   5.826   4.988   5.267  0.4964  0.5638  1.5029
14623TIP3    H265361   5.689   5.031   5.218 -0.3494 -2.0143  1.5318
14624TIP3   OH265362   6.064   1.506   1.831  0.5378 -0.3299  0.0842
14624TIP3    H165363   6.024   1.558   1.901 -1.7220 -0.9847 -0.6691
14624TIP3    H265364   6.138   1.559   1.802 -1.2040  2.1288 -0.1176
14625TIP3   OH265365   1.584   4.439   2.813  0.1909 -0.0762  0.4737
14625TIP3    H165366   1.538   4.369   2.861 -0.1971 -0.1421  0.0070
14625TIP3    H265367   1.539   4.444   2.729 -0.8092  1.8007  1.0964
14626TIP3   OH265368   0.174   2.099  12.101  0.0665  0.1814  0.2020
14626TIP3    H165369   0.244   2.087  12.166  2.3367 -2.2390 -2.5368
14626TIP3    H265370   0.111   2.030  12.121  1.8392 -1.9713 -1.4415
14627TIP3   OH265371   2.495   3.726  15.734  0.1456 -0.1360  0.4838
14627TIP3    H165372   2.429   3.728  15.803 -0.4783  0.7497 -0.1364
14627TIP3    H265373   2.489   3.638  15.698 -0.1376 -0.3183  0.9670
14628TIP3   OH265374   3.130   5.029   1.196 -0.0883 -0.1817 -0.0065
14628TIP3    H165375   3.072   5.102   1.175  1.4991  0.9649 -0.5306
14628TIP3    H265376   3.199   5.034   1.130 -1.6468 -4.1759 -2.1037
14629TIP3   OH265377   0.947   3.189   1.332 -0.4604 -0.1120 -0.0998
14629TIP3    H165378   0.894   3.252   1.379 -0.9082 -0.7496  0.2649
14629TIP3    H265379   1.033   3.194   1.374  0.6003  2.8570 -2.4358
14630TIP3   OH265380   2.036   5.376  14.562  0.2837 -0.5152  0.4866
14630TIP3    H165381   2.033   5.337  14.474 -1.0129  0.9177 -0.1265
14630TIP3    H265382   2.098   5.448  14.554  0.8875 -0.9704  1.0096
14631TIP3   OH265383   0.969   3.937   2.083 -0.2617 -0.5520 -0.8467
14631TIP3    H165384   0.945   3.866   2.142 -1.4501  0.1212 -0.5008
14631TIP3    H265385   0.918   4.012   2.114  0.4196  0.2589 -1.6608
14632TIP3   OH265386   3.887   3.768  15.600 -0.3705  0.3141  0.3884
14632TIP3    H165387   3.920   3.717  15.674  0.8961  0.8320  0.2007
14632TIP3    H265388   3.804   3.727  15.577  0.6782 -1.7243  0.1731
14633TIP3   OH265389   1.135   3.670  17.089  0.1991  0.4829 -0.3713
14633TIP3    H165390   1.174   3.585  17.113 -1.5399 -0.3703 -0.5261
14633TIP3    H265391   1.191   3.735  17.132  1.0321 -0.7727  0.4806
14634TIP3   OH265392   2.149   4.240   3.623 -0.6919  0.0720 -0.4002
14634TIP3    H165393   2.099   4.310   3.665 -0.2760 -0.2729  0.6965
14634TIP3    H265394   2.227   4.284   3.590 -0.5159  0.1624  0.1263
14635TIP3   OH265395   4.631   5.913   4.606  0.1796 -0.1465 -0.3502
14635TIP3    H165396   4.711   5.880   4.646  1.2169  2.0214 -0.5574
14635TIP3    H265397   4.658   5.992   4.559 -2.1185  0.7681 -0.2205
14636TIP3   OH265398   6.040   4.551   1.821 -0.2428  0.3270  0.0781
14636TIP3    H165399   6.069   4.587   1.738  1.5694 -0.7929  0.2069
14636TIP3    H265400   5.944   4.560   1.819 -0.2620 -0.2384 -2.3768
14637TIP3   OH265401   0.623   2.933  14.456 -0.5571 -0.6910 -0.1751
14637TIP3    H165402   0.622   2.868  14.526 -0.3881  1.8294  2.2673
14637TIP3    H265403   0.702   2.913  14.405  1.3158 -0.4472  2.5112
14638TIP3   OH265404   0.224   4.836   2.681 -0.4229 -0.3034  0.2530
14638TIP3    H165405   0.236   4.749   2.720 -1.4016  0.0000  1.2670
14638TIP3    H265406   0.309   4.878   2.688 -0.5649 -0.2875  1.9918
14639TIP3   OH265407   1.792   6.791   3.319  0.0487 -0.2615  0.4340
14639TIP3    H165408   1.854   6.847   3.273 -0.2155 -1.5737 -1.6113
14639TIP3    H265409   1.845   6.724   3.361  0.1169 -0.6992 -0.3367
14640TIP3   OH265410   2.071   3.225   0.142 -0.0218  0.4320 -0.0646
14640TIP3    H165411   2.020   3.147   0.165 -1.4542  0.0671 -4.1497
14640TIP3    H265412   2.162   3.197   0.151 -0.5149 -1.7936 -1.5242
14641TIP3   OH265413   0.969   3.081   5.416  0.3507 -0.1223 -0.2735
14641TIP3    H165414   0.882   3.099   5.380  0.1630 -0.6704 -0.0862
14641TIP3    H265415   1.027   3.140   5.367  0.0114 -0.4409 -1.0639
14642TIP3   OH265416   6.274   3.742   5.491 -0.2533  0.1133  0.5558
14642TIP3    H165417   6.218   3.772   5.563 -1.0032  2.0923 -0.8083
14642TIP3    H265418   6.323   3.668   5.527 -1.7983  0.0600  2.5949
14643TIP3   OH265419   1.106   1.885   4.885 -0.5255 -0.1139  0.1652
14643TIP3    H165420   1.121   1.980   4.882  0.2091 -0.2048  0.7908
14643TIP3    H265421   1.049   1.873   4.961  0.6258 -0.3284  1.0049
14644TIP3   OH265422   1.306   4.020  13.825  0.4729 -0.2984  0.0420
14644TIP3    H165423   1.220   4.062  13.824  0.8759  0.5807  1.2254
14644TIP3    H265424   1.287   3.927  13.838 -0.3684 -0.3242 -1.3231
14645TIP3   OH265425   2.158   3.775   4.977  0.2783 -0.1760 -0.4948
14645TIP3    H165426   2.195   3.853   4.936 -0.2157  0.4927  0.3015
14645TIP3    H265427   2.234   3.727   5.010  0.5124  0.6132  0.1275
14646TIP3   OH265428   4.425   6.216   6.140 -0.0133 -0.0003 -0.6076
14646TIP3    H165429   4.367   6.187   6.211  0.2291  1.3179  0.1438
14646TIP3    H265430   4.470   6.292   6.176  0.8304  0.0911 -1.8474
14647TIP3   OH265431   4.188   6.416  12.382 -0.2402  0.1983 -0.1799
14647TIP3    H165432   4.222   6.464  12.458 -0.6861  1.2328 -0.6222
14647TIP3    H265433   4.236   6.452  12.307 -0.7586  0.1461 -0.5453
14648TIP3   OH265434   5.018   0.129   0.279 -0.0821 -1.0765  0.2500
14648TIP3    H165435   5.015   0.140   0.184  0.8647 -0.2680  0.3087
14648TIP3    H265436   4.927   0.119   0.305 -0.5816  1.5517 -0.4064
14649TIP3   OH265437   5.760   4.390  12.763 -0.5898 -0.8383  0.0862
14649TIP3    H165438   5.688   4.327  12.758 -0.5576 -0.8154 -0.8177
14649TIP3    H265439   5.825   4.356  12.701 -0.2767 -0.2936  0.1164
14650TIP3   OH265440   1.410   2.558   0.733 -0.1735 -0.0778  0.1492
14650TIP3    H165441   1.354   2.490   0.695 -1.4365  0.3207  1.2582
14650TIP3    H265442   1.369   2.578   0.817  2.2413 -0.5321  1.4732
14651TIP3   OH265443   2.741   1.918  12.836  0.0040  0.5979  0.0211
14651TIP3    H165444   2.780   1.955  12.915 -0.5017  1.3613 -0.0862
14651TIP3    H265445   2.815   1.909  12.775  0.2450  0.7847  0.2876
14652TIP3   OH265446   4.310   2.050  13.836  0.0220 -0.1226  0.8451
14652TIP3    H165447   4.368   1.999  13.892  1.3339 -0.1353 -0.5063
14652TIP3    H265448   4.238   2.076  13.893 -0.5254 -3.2245  1.6220
14653TIP3   OH265449   2.854   4.208  11.150  0.3907 -0.2571 -1.1349
14653TIP3    H165450   2.938   4.245  11.122  1.1054 -1.8035 -1.1027
14653TIP3    H265451   2.797   4.217  11.074  1.0594 -0.6266 -1.6842
14654TIP3   OH265452   1.134   6.053  11.967  0.1143 -0.0501  0.3136
14654TIP3    H165453   1.067   6.121  11.972 -0.0445 -0.2525  1.1493
14654TIP3    H265454   1.089   5.973  11.995  1.0799  0.1138  2.5152
14655TIP3   OH265455   5.027   1.212  11.787 -0.7173 -0.5076  0.0660
14655TIP3    H165456   5.062   1.188  11.872 -2.0407 -0.9813  0.4836
14655TIP3    H265457   5.102   1.251  11.740  0.5187 -2.0744  0.7045
14656TIP3   OH265458   1.334   3.413  17.224  0.2295  0.0248 -0.1637
14656TIP3    H165459   1.292   3.378  17.302 -2.4873 -0.1153 -1.6315
14656TIP3    H265460   1.369   3.498  17.251 -0.4427 -0.1488  1.2817
14657TIP3   OH265461   6.523   6.650   2.153 -0.3727  0.1334 -0.0753
14657TIP3    H165462   6.518   6.588   2.080  0.1013  0.0170 -0.0051
14657TIP3    H265463   6.580   6.608   2.217  0.6209  1.0125 -0.3772
14658TIP3   OH265464   6.817   3.143  15.735  0.2515 -0.2456 -0.2235
14658TIP3    H165465   6.775   3.207  15.677  0.8962 -0.4253 -0.9002
14658TIP3    H265466   6.903   3.128  15.696  0.7529 -0.2654  0.8691
14659TIP3   OH265467   2.662   2.462  15.992  0.4257 -0.3934  0.0032
14659TIP3    H165468   2.581   2.507  16.013  1.1597  1.4469 -1.0219
14659TIP3    H265469   2.704   2.447  16.077 -0.2030  0.1199  0.4045
14660TIP3   OH265470   6.387   0.087  10.541 -0.3100  0.0201 -0.2445
14660TIP3    H165471   6.357   0.176  10.562  0.0412  0.0510  0.1434
14660TIP3    H265472   6.333   0.060  10.467 -1.0996  0.1788  0.2622
14661TIP3   OH265473   5.299   5.161   0.614  0.0273 -0.2114  0.2399
14661TIP3    H165474   5.300   5.195   0.703 -4.0400  0.5825  0.0879
14661TIP3    H265475   5.314   5.067   0.624 -0.2941 -0.1169  1.7370
14662TIP3   OH265476   1.350   2.150   5.677 -0.4122  0.2538  0.0972
14662TIP3    H165477   1.394   2.175   5.759  0.1297 -1.2671  0.2920
14662TIP3    H265478   1.308   2.230   5.647  0.2596  1.0878  1.3270
14663TIP3   OH265479   0.754   4.304  14.722 -0.2545 -0.0142 -0.7734
14663TIP3    H165480   0.809   4.232  14.753 -0.7751  1.0061  2.6433
14663TIP3    H265481   0.666   4.282  14.751 -0.7758  0.9947 -1.5342
14664TIP3   OH265482   6.813   0.153  17.106  0.0073  0.2963 -0.4658
14664TIP3    H165483   6.817   0.218  17.176  0.0920 -0.8503  0.6111
14664TIP3    H265484   6.900   0.154  17.067  0.1404  0.5069 -0.1666
14665TIP3   OH265485   2.767   6.623   3.168  0.0626 -0.2171  0.1291
14665TIP3    H165486   2.788   6.542   3.216 -0.8292 -0.5369 -0.0185
14665TIP3    H265487   2.719   6.676   3.232 -0.1429 -0.1769 -0.0596
14666TIP3   OH265488   0.131   3.464   4.999 -0.0038  0.4342 -0.1398
14666TIP3    H165489   0.155   3.523   5.070  2.0299 -1.0962  0.4981
14666TIP3    H265490   0.035   3.466   4.998 -0.0937  0.3097  2.8198
14667TIP3   OH265491   4.985   5.690  14.066  0.1034 -0.0022 -0.1200
14667TIP3    H165492   4.945   5.625  14.124  0.7070  0.4228  0.7892
14667TIP3    H265493   4.963   5.660  13.978 -0.0228 -1.1886  0.2972
14668TIP3   OH265494   2.284   0.857   0.839 -0.6344 -0.5454  0.3770
14668TIP3    H165495   2.370   0.889   0.813 -0.6753 -0.0079  0.8973
14668TIP3    H265496   2.283   0.766   0.811 -0.1518 -0.3589 -0.2425
14669TIP3   OH265497   0.152   1.395   0.531  0.7635 -0.0437 -0.1379
14669TIP3    H165498   0.065   1.414   0.496  0.6771  0.1705  0.1835
14669TIP3    H265499   0.141   1.314   0.581  0.8129 -0.1753 -0.3436
14670TIP3   OH265500   4.553   4.783   4.111 -0.1567 -0.4555  0.2951
14670TIP3    H165501   4.572   4.860   4.164 -1.7515  0.6581 -0.6839
14670TIP3    H265502   4.460   4.767   4.125  0.2599 -2.4919  0.8444
14671TIP3   OH265503   4.935   4.322  14.529  0.2798 -0.5843  0.7613
14671TIP3    H165504   4.913   4.318  14.436 -1.0055  1.5233  0.9459
14671TIP3    H265505   4.992   4.247  14.544 -0.6032 -1.7083 -1.4367
14672TIP3   OH265506   1.664   0.845  17.122 -0.7406  0.0964 -0.2973
14672TIP3    H165507   1.738   0.858  17.181 -0.9623  0.4437 -0.0904
14672TIP3    H265508   1.679   0.759  17.083 -0.6705 -0.2012  0.3766
14673TIP3   OH265509   0.167   2.818  16.718  0.3121  0.2135  0.2663
14673TIP3    H165510   0.161   2.840  16.625  1.4062  2.0014  0.5986
14673TIP3    H265511   0.111   2.882  16.761  0.5036 -0.0584  0.9237
14674TIP3   OH265512   6.672   4.919  17.081  0.2278  0.4665  0.1670
14674TIP3    H165513   6.649   5.005  17.046  0.8009 -0.1160 -1.7075
14674TIP3    H265514   6.595   4.891  17.129  0.5610  2.6719  2.0802
14675TIP3   OH265515   0.406   6.804  13.989 -0.7749 -0.0851  0.8691
14675TIP3    H165516   0.442   6.891  14.007  1.0788 -0.7752  0.6016
14675TIP3    H265517   0.460   6.745  14.040  0.2771 -1.4104 -1.6961
14676TIP3   OH265518   1.286   3.754   1.543 -0.5262  0.2384 -0.2692
14676TIP3    H165519   1.279   3.840   1.585 -1.3964 -0.2323  0.5719
14676TIP3    H265520   1.341   3.703   1.602  0.6157  0.4521 -1.1530
14677TIP3   OH265521   5.184   3.235   6.504 -0.0943 -0.0358 -0.1851
14677TIP3    H165522   5.112   3.279   6.550 -0.1224 -0.6903  0.4028
14677TIP3    H265523   5.252   3.225   6.570  0.0752 -0.4932 -0.4263
14678TIP3   OH265524   1.696   1.738   4.619  0.4950  0.0671 -0.0322
14678TIP3    H165525   1.757   1.811   4.615  0.8485 -0.2429 -0.3901
14678TIP3    H265526   1.619   1.768   4.572  1.3090 -0.4135 -1.7008
14679TIP3   OH265527   6.351   1.222  16.592  0.0206  0.0386 -0.1164
14679TIP3    H165528   6.342   1.128  16.607  0.5139  0.2486  1.6242
14679TIP3    H265529   6.427   1.248  16.644 -1.2216  1.7319  0.9428
14680TIP3   OH265530   1.740   0.948   2.091 -0.1663  0.1043  0.3255
14680TIP3    H165531   1.737   1.005   2.168 -1.2769 -0.9082  1.0550
14680TIP3    H265532   1.671   0.884   2.107 -0.2967 -0.2107 -1.4532
14681TIP3   OH265533   5.501   0.393  10.432 -0.1272 -0.2265  0.1728
14681TIP3    H165534   5.551   0.313  10.417  0.0050 -0.3895  1.4361
14681TIP3    H265535   5.567   0.460  10.449 -0.1215  0.6629 -2.9731
14682TIP3   OH265536   3.729   5.332   1.342  0.1309 -0.6260 -0.0840
14682TIP3    H165537   3.786   5.344   1.265  2.2699  1.0711  1.6744
14682TIP3    H265538   3.757   5.249   1.380  0.7489 -0.2998  0.1876
14683TIP3   OH265539   3.572   5.177   3.744  0.1919 -0.2839 -0.0983
14683TIP3    H165540   3.653   5.140   3.776  0.2894  1.5044  1.8840
14683TIP3    H265541   3.584   5.272   3.752 -2.3042 -0.0007  0.8546
14684TIP3   OH265542   5.801   5.365  11.970 -0.1389  0.4893 -0.2846
14684TIP3    H165543   5.748   5.347  12.047  0.1841 -0.4958 -0.2761
14684TIP3    H265544   5.890   5.341  11.996  0.0935  0.8760 -0.7119
14685TIP3   OH265545   2.635   6.521   4.070  0.1835 -0.4019 -0.3033
14685TIP3    H165546   2.565   6.494   4.129  2.1355 -1.8731  1.3757
14685TIP3    H265547   2.590   6.571   4.002 -2.5199 -1.4444  0.6462
14686TIP3   OH265548   2.066   2.594   6.628  0.2211  0.5374 -0.1124
14686TIP3    H165549   2.017   2.676   6.635 -3.2662 -1.6613  2.7898
14686TIP3    H265550   2.025   2.547   6.555  1.8211  1.0653 -1.3814
14687TIP3   OH265551   5.750   6.471  11.700  0.2890 -0.4584  0.4256
14687TIP3    H165552   5.691   6.459  11.626  1.2637  0.1211 -0.4624
14687TIP3    H265553   5.706   6.428  11.774 -1.6920  0.8610  0.0263
14688TIP3   OH265554   2.005   4.353   3.257  0.4086  0.3022 -0.3019
14688TIP3    H165555   1.973   4.422   3.315  1.0571 -0.5255  1.0721
14688TIP3    H265556   2.100   4.351   3.273  0.4244 -0.7417 -0.5059
14689TIP3   OH265557   4.688   0.235   5.157  0.4239 -0.3894 -0.5296
14689TIP3    H165558   4.700   0.197   5.070  1.7501 -0.5013 -0.2976
14689TIP3    H265559   4.663   0.161   5.212 -1.8224 -0.0848 -1.0949
14690TIP3   OH265560   3.331   6.029  14.584  0.4497  0.0732 -0.2315
14690TIP3    H165561   3.342   6.121  14.563  0.8347  0.1144  0.1437
14690TIP3    H265562   3.410   6.006  14.633  0.9894 -0.7959 -1.4874
14691TIP3   OH265563   4.284   2.176  12.445 -0.1492  0.2868  0.3138
14691TIP3    H165564   4.363   2.222  12.417 -0.5280  0.4847 -0.4550
14691TIP3    H265565   4.213   2.238  12.428 -0.5714 -0.2516  0.0876
14692TIP3   OH265566   0.964   6.105   4.710  0.3342  0.1808  0.8976
14692TIP3    H165567   0.884   6.126   4.662  0.0001 -2.0367  0.4130
14692TIP3    H265568   0.935   6.095   4.801  0.4326  1.3637  1.0684
14693TIP3   OH265569   3.215   6.635  13.699 -0.2870 -0.1242  0.6474
14693TIP3    H165570   3.227   6.632  13.794 -0.6335  0.4178  0.7138
14693TIP3    H265571   3.273   6.567  13.665 -0.9810 -1.0573  1.3266
14694TIP3   OH265572   5.502   4.333   2.893 -0.4347 -0.1454 -0.0761
14694TIP3    H165573   5.526   4.381   2.814  0.8131  0.7674  0.8296
14694TIP3    H265574   5.431   4.275   2.866 -0.7596  0.9466 -1.6039
14695TIP3   OH265575   3.936   0.104  11.393 -0.0685 -0.2143 -0.6554
14695TIP3    H165576   3.908   0.186  11.432 -1.9694 -1.2319  0.1855
14695TIP3    H265577   4.026   0.120  11.365  0.7174  1.1522  2.4287
14696TIP3   OH265578   6.540   1.517  16.398 -0.0213 -0.3380  0.1134
14696TIP3    H165579   6.461   1.517  16.343  0.6041  1.2114 -0.8310
14696TIP3    H265580   6.603   1.569  16.348  1.9710 -2.4368  0.3665
14697TIP3   OH265581   6.473   4.644  16.740  0.4706  0.4597 -0.4037
14697TIP3    H165582   6.500   4.591  16.815  0.2989  1.9025  0.7002
14697TIP3    H265583   6.419   4.714  16.778 -0.7605  0.4268 -2.0268
14698TIP3   OH265584   4.326   4.959   1.887  0.4605 -0.2243 -0.0101
14698TIP3    H165585   4.310   4.900   1.961 -0.4596 -1.2378 -1.0023
14698TIP3    H265586   4.239   4.970   1.847  1.0039  0.0666 -1.1151
14699TIP3   OH265587   5.867   5.510   5.444 -0.2470 -0.3665  0.6720
14699TIP3    H165588   5.931   5.524   5.515  0.0057 -1.9587  0.7673
14699TIP3    H265589   5.881   5.419   5.417  2.1031  1.1478 -3.8004
14700TIP3   OH265590   4.619   5.145  14.016  0.2090 -0.3718  0.3829
14700TIP3    H165591   4.529   5.178  14.025 -0.2407 -2.0120  2.2101
14700TIP3    H265592   4.608   5.054  13.989  1.3591 -0.3676 -0.1248
14701TIP3   OH265593   0.415   6.619   4.593 -0.3138  0.2227  0.1779
14701TIP3    H165594   0.349   6.556   4.565  0.1199  0.4512 -1.3754
14701TIP3    H265595   0.484   6.612   4.528  0.5032  1.0948  0.9386
14702TIP3   OH265596   2.733   2.870   2.603  0.4006 -0.3855 -0.1422
14702TIP3    H165597   2.826   2.893   2.602  0.5910 -1.1035  0.2783
14702TIP3    H265598   2.699   2.904   2.521  0.8430  0.6680  0.1062
14703TIP3   OH265599   2.349   0.133  12.393 -0.1744  0.5187 -0.3085
14703TIP3    H165600   2.434   0.088  12.398 -1.0960 -1.2634 -0.3363
14703TIP3    H265601   2.293   0.084  12.452 -1.0620  2.0039  0.0900
14704TIP3   OH265602   6.794   4.706   3.250  0.5978 -0.6711  0.1580
14704TIP3    H165603   6.876   4.665   3.278  1.7836  1.4533 -0.0209
14704TIP3    H265604   6.804   4.798   3.275 -1.3850 -0.2069 -0.6360
14705TIP3   OH265605   2.123   0.722   1.294  0.6114  0.4238  0.2636
14705TIP3    H165606   2.189   0.751   1.357 -1.4958  0.6042  2.4165
14705TIP3    H265607   2.122   0.791   1.227  2.5030  0.4630  0.2313
14706TIP3   OH265608   0.326   4.631   3.566  0.6270 -0.0219  0.4992
14706TIP3    H165609   0.261   4.685   3.611 -0.3818 -0.7906 -0.0142
14706TIP3    H265610   0.384   4.694   3.524 -0.8545  0.6741 -0.5433
14707TIP3   OH265611   6.619   2.749   3.855 -0.5850  0.4354 -0.7461
14707TIP3    H165612   6.656   2.661   3.863 -1.1746  0.3680  1.9555
14707TIP3    H265613   6.568   2.746   3.774  1.4811 -0.8938 -2.0446
14708TIP3   OH265614   0.599   1.319  13.758 -0.5095  0.2800 -0.2004
14708TIP3    H165615   0.527   1.294  13.700 -0.2880 -1.3807  0.2037
14708TIP3    H265616   0.571   1.287  13.844  0.1739  0.7062  0.1819
14709TIP3   OH265617   2.185   4.764  16.411  0.4710 -0.1176 -0.1271
14709TIP3    H165618   2.148   4.840  16.454  2.2394  1.1328 -0.7448
14709TIP3    H265619   2.267   4.747  16.459  1.4336  0.0407 -1.6849
14710TIP3   OH265620   2.836   2.102  10.494  0.2517 -0.2029 -0.1073
14710TIP3    H165621   2.910   2.102  10.554  1.4519 -1.5254 -1.5294
14710TIP3    H265622   2.772   2.160  10.534  0.8621 -1.3385  2.6075
14711TIP3   OH265623   6.361   4.573   1.149  0.5679  0.1913  0.1676
14711TIP3    H165624   6.425   4.618   1.093  0.9309  1.0453  1.2418
14711TIP3    H265625   6.414   4.531   1.217  0.1726 -1.2816 -0.4079
14712TIP3   OH265626   4.083   2.086   3.857 -0.3265 -0.1788  0.4811
14712TIP3    H165627   4.148   2.136   3.907 -0.2372  1.7727 -1.5309
14712TIP3    H265628   4.124   2.000   3.845  0.0149 -0.4102  2.9677
14713TIP3   OH265629   4.355   4.263  13.074 -0.1822  0.2850  0.3359
14713TIP3    H165630   4.337   4.261  13.168  1.3475  0.6003  0.6471
14713TIP3    H265631   4.272   4.292  13.035 -1.6956 -2.5419  1.3263
14714TIP3   OH265632   2.241   4.570  17.037  0.0279  0.2386 -0.8382
14714TIP3    H165633   2.260   4.516  16.961 -1.4676  1.1237 -1.8579
14714TIP3    H265634   2.311   4.635  17.038 -0.6445  1.0010 -2.2031
14715TIP3   OH265635   1.156   3.328   3.616  0.1495  0.0240  0.2719
14715TIP3    H165636   1.215   3.398   3.641  0.0699  0.0789  0.3045
14715TIP3    H265637   1.165   3.322   3.520 -1.9264  1.9539 -0.0838
14716TIP3   OH265638   4.373   5.183   2.532  0.5192  0.8258 -0.4092
14716TIP3    H165639   4.405   5.115   2.590  3.3354  0.3495 -2.3847
14716TIP3    H265640   4.283   5.199   2.560  0.5808 -2.0091  1.6069
14717TIP3   OH265641   0.010   1.647   2.912  0.1181  0.1347 -0.0202
14717TIP3    H165642   0.014   1.740   2.936  0.7538  0.9392 -3.0342
14717TIP3    H265643   0.095   1.629   2.874 -0.9601 -0.9623 -1.9385
14718TIP3   OH265644   5.693   0.971   3.391  0.2012  0.2436  0.3401
14718TIP3    H165645   5.636   1.047   3.402 -0.2426 -0.1019  0.4053
14718TIP3    H265646   5.779   1.009   3.373  0.2800  0.7864  1.7975
14719TIP3   OH265647   6.636   0.652   2.016 -0.1266 -0.5510 -0.3367
14719TIP3    H165648   6.582   0.666   2.094  0.3090 -0.1971 -0.0906
14719TIP3    H265649   6.726   0.650   2.050  0.1567  0.7801 -0.9681
14720TIP3   OH265650   2.031   5.959  11.111  0.2497 -0.2543 -0.0925
14720TIP3    H165651   2.104   6.020  11.122 -0.1446  0.0698  0.7550
14720TIP3    H265652   1.959   6.013  11.078 -0.0806 -0.2808  0.5925
14721TIP3   OH265653   1.645   2.071  17.074  0.0653  0.0411 -0.3677
14721TIP3    H165654   1.626   2.141  17.136 -1.4007  0.1645 -0.9480
14721TIP3    H265655   1.594   1.996  17.104  0.8142 -0.4644 -0.3482
14722TIP3   OH265656   0.843   2.439  13.472 -0.2930 -0.0639  0.5762
14722TIP3    H165657   0.768   2.488  13.437 -0.0180  0.8873  1.2838
14722TIP3    H265658   0.806   2.384  13.540 -0.3609  0.3574  0.8814
14723TIP3   OH265659   1.085   0.330   0.260  0.2049  0.0021 -0.1416
14723TIP3    H165660   1.005   0.282   0.238  0.7817 -1.6673  1.2178
14723TIP3    H265661   1.054   0.418   0.283 -1.3633 -0.8121  1.0681
14724TIP3   OH265662   6.329   4.979  15.038  0.0268 -0.5407 -0.6816
14724TIP3    H165663   6.418   4.990  15.005  0.3578 -1.2016  0.0073
14724TIP3    H265664   6.338   4.929  15.119 -0.8367  0.6186  0.1517
14725TIP3   OH265665   4.407   2.967   5.523 -0.1763  0.0333  0.1938
14725TIP3    H165666   4.319   3.004   5.529 -0.1714 -0.3308  2.8796
14725TIP3    H265667   4.393   2.880   5.484 -1.1921 -0.6579  2.0623
14726TIP3   OH265668   5.417   6.300   3.941  0.1021  0.1449 -0.0262
14726TIP3    H165669   5.377   6.348   4.013 -0.7106  0.3107 -0.5900
14726TIP3    H265670   5.355   6.308   3.869  1.1281  0.3640 -0.8917
14727TIP3   OH265671   3.084   5.323  12.390  0.7139  0.5945 -0.2370
14727TIP3    H165672   3.125   5.349  12.473  2.1454 -2.4593  0.0597
14727TIP3    H265673   3.027   5.397  12.368 -0.3131  1.1403  3.8432
14728TIP3   OH265674   0.221   4.844   2.419  0.0047 -0.2497 -0.5908
14728TIP3    H165675   0.227   4.854   2.514 -0.3970  1.4178 -0.7337
14728TIP3    H265676   0.134   4.877   2.397  0.6961  0.8531 -1.7265
14729TIP3   OH265677   0.955   0.722  12.405 -0.5346 -0.5894  0.5711
14729TIP3    H165678   0.966   0.785  12.334 -1.0254 -1.1185  0.0245
14729TIP3    H265679   0.936   0.776  12.482 -3.1759 -0.1490 -0.3285
14730TIP3   OH265680   1.704   4.013  16.745 -0.2721 -0.6744 -0.1890
14730TIP3    H165681   1.638   3.958  16.787 -1.0380 -0.6191 -1.3197
14730TIP3    H265682   1.787   3.969  16.766 -0.7026 -1.0659  0.7421
14731TIP3   OH265683   1.762   3.119   5.928  0.2192  0.2678  0.4525
14731TIP3    H165684   1.729   3.032   5.949  2.9806 -1.1533 -0.8756
14731TIP3    H265685   1.798   3.151   6.011  0.1661 -0.2749  0.6910
14732TIP3   OH265686   3.854   2.129   0.644 -0.2842 -0.0687 -0.1102
14732TIP3    H165687   3.930   2.183   0.623 -0.2986 -0.2096 -0.5413
14732TIP3    H265688   3.779   2.186   0.630 -0.2107  0.4224  1.4433
14733TIP3   OH265689   6.180   3.852   0.499 -0.0516 -0.0844  0.2575
14733TIP3    H165690   6.130   3.770   0.506 -2.0192  1.0676 -0.0644
14733TIP3    H265691   6.150   3.892   0.417  0.5112  1.2306  0.6816
14734TIP3   OH265692   4.130   3.679   4.387  0.0853  0.0907 -0.2553
14734TIP3    H165693   4.183   3.636   4.455 -1.8859  0.4159  1.5345
14734TIP3    H265694   4.189   3.746   4.351  1.3383 -0.4169  0.7778
14735TIP3   OH265695   0.389   5.210  15.441 -0.2552  0.2978 -0.5662
14735TIP3    H165696   0.381   5.148  15.514 -0.6855 -0.4941 -1.2887
14735TIP3    H265697   0.424   5.289  15.482 -0.1940 -0.2429  0.4544
14736TIP3   OH265698   4.268   3.584  13.839  0.3644  0.0572  0.4819
14736TIP3    H165699   4.247   3.498  13.875  0.0516  0.1515  0.5302
14736TIP3    H265700   4.285   3.639  13.916  0.0385  0.1707  0.4760
14737TIP3   OH265701   1.100   1.022  14.039  0.4472  0.3151 -0.0266
14737TIP3    H165702   1.160   0.974  13.981 -0.9811 -1.9089  0.2676
14737TIP3    H265703   1.023   1.040  13.984  0.0677  0.3185  0.5032
14738TIP3   OH265704   6.718   3.214  12.515  0.4497  0.2560  0.7869
14738TIP3    H165705   6.653   3.270  12.558 -0.4765 -1.0164  1.1027
14738TIP3    H265706   6.669   3.168  12.447  1.0613 -0.5247  0.8592
14739TIP3   OH265707   0.082   4.951   1.235  0.1733 -0.1360 -0.3997
14739TIP3    H165708   0.171   4.978   1.258  0.8321 -2.1296 -0.5443
14739TIP3    H265709   0.039   5.032   1.206  1.9185  0.8459 -0.3036
14740TIP3   OH265710   0.316   4.937  16.609  0.4950  0.6187 -0.0409
14740TIP3    H165711   0.376   4.863  16.620  0.1575  0.3432 -0.0453
14740TIP3    H265712   0.368   5.014  16.633  0.2590  0.1793  1.9718
14741TIP3   OH265713   4.401   5.403  15.567 -0.1302 -0.3677 -0.5328
14741TIP3    H165714   4.473   5.370  15.512 -1.2194 -1.6747 -1.2035
14741TIP3    H265715   4.405   5.348  15.646 -1.1257 -1.2701 -1.0900
14742TIP3   OH265716   1.608   5.207  11.999  0.4806 -0.3775  0.4358
14742TIP3    H165717   1.569   5.294  12.008  0.2161 -0.1172 -2.7058
14742TIP3    H265718   1.691   5.212  12.047  0.3108  1.5064  0.5432
14743TIP3   OH265719   2.970   5.681   5.508 -0.2399 -0.6665  0.1920
14743TIP3    H165720   2.936   5.677   5.418 -0.2166 -1.3685  0.2119
14743TIP3    H265721   3.065   5.680   5.498 -0.2372 -0.6180  0.2172
14744TIP3   OH265722   4.905   3.978   5.056  0.0559 -0.7156  0.1963
14744TIP3    H165723   4.966   4.007   4.989  0.6427 -0.8651  0.6658
14744TIP3    H265724   4.908   3.882   5.052  0.7369 -0.7353  1.0137
14745TIP3   OH265725   5.865   1.633   0.510 -0.0290  0.2818  0.6167
14745TIP3    H165726   5.890   1.679   0.430 -3.0364  1.0092  0.0240
14745TIP3    H265727   5.770   1.646   0.516  0.2201  0.7571  4.6308
14746TIP3   OH265728   5.995   0.213   2.007 -0.3142 -0.3717 -0.2390
14746TIP3    H165729   6.015   0.121   2.027  2.0866  0.1137 -0.2096
14746TIP3    H265730   6.025   0.260   2.085 -1.0355  0.4783 -0.4834
14747TIP3   OH265731   5.496   3.316   5.362 -0.1720  0.4356  0.2591
14747TIP3    H165732   5.435   3.243   5.351  1.1150 -0.5391 -0.6172
14747TIP3    H265733   5.551   3.291   5.436 -0.2844  0.9114  0.5035
14748TIP3   OH265734   3.713   1.758  16.087  0.2042  0.3737 -0.6409
14748TIP3    H165735   3.740   1.743  15.997 -1.9454  1.5222 -1.5267
14748TIP3    H265736   3.790   1.737  16.140  1.4237 -0.4924 -2.7238
14749TIP3   OH265737   2.113   1.285  14.241  0.1634  0.1937  0.2096
14749TIP3    H165738   2.034   1.319  14.283  0.0629 -1.6066  1.5273
14749TIP3    H265739   2.176   1.357  14.246 -1.0073  1.2294  0.2005
14750TIP3   OH265740   3.552   6.334   1.012 -0.4348 -0.2817 -0.5596
14750TIP3    H165741   3.518   6.247   1.028  0.2294 -0.0541  2.4317
14750TIP3    H265742   3.640   6.320   0.977 -0.6305 -0.8320 -0.8176
14751TIP3   OH265743   0.586   2.221  11.462  0.3167  0.3043  0.6776
14751TIP3    H165744   0.589   2.264  11.547 -0.7187 -1.6208  1.7301
14751TIP3    H265745   0.510   2.163  11.467 -0.2196  0.7137 -1.8441
14752TIP3   OH265746   5.660   5.392  14.003 -0.4740 -0.3597 -0.4902
14752TIP3    H165747   5.649   5.485  13.984 -2.0837 -0.5199 -0.4180
14752TIP3    H265748   5.620   5.348  13.928  1.8884 -1.0098 -1.4043
14753TIP3   OH265749   6.463   3.322   1.650 -0.0917 -0.1378 -0.4771
14753TIP3    H165750   6.379   3.363   1.671  0.4746  0.7769  0.0785
14753TIP3    H265751   6.507   3.313   1.735  0.3917 -0.5571 -0.7676
14754TIP3   OH265752   5.512   5.553  14.313 -0.1714  0.2195 -0.4841
14754TIP3    H165753   5.537   5.642  14.288 -1.0759  0.3982 -0.7743
14754TIP3    H265754   5.592   5.514  14.347 -0.0928  1.5780  0.9127
14755TIP3   OH265755   3.042   0.528  15.501 -0.1940 -0.0935  0.1962
14755TIP3    H165756   3.110   0.543  15.436  0.6517 -0.1624  1.0517
14755TIP3    H265757   2.978   0.597  15.485  0.1881  0.1169 -0.4547
14756TIP3   OH265758   0.389   5.947  13.149 -0.1184 -0.3452  0.1987
14756TIP3    H165759   0.384   5.903  13.234 -1.3919  2.0728  1.4299
14756TIP3    H265760   0.470   5.997  13.153 -0.8515  0.8288  0.5370
14757TIP3   OH265761   0.565   5.847  16.231  0.2600  0.3102  0.0892
14757TIP3    H165762   0.515   5.900  16.169  0.5653  0.7903  0.2431
14757TIP3    H265763   0.630   5.908  16.267  0.9827 -0.3159 -0.1478
14758TIP3   OH265764   5.295   3.640  15.748  0.4357  0.0758 -0.1390
14758TIP3    H165765   5.280   3.637  15.654 -0.0890  0.4724 -0.0729
14758TIP3    H265766   5.379   3.597  15.761  0.9630  0.8717 -0.8918
14759TIP3   OH265767   1.358   0.093  15.741 -0.3793 -0.8426 -0.4618
14759TIP3    H165768   1.404   0.114  15.660  0.0349 -0.2428 -0.0809
14759TIP3    H265769   1.406   0.019  15.778  0.2541 -0.2492 -0.0897
14760TIP3   OH265770   3.247   3.700   5.523 -0.3150 -0.0711  0.1576
14760TIP3    H165771   3.318   3.688   5.586 -1.3187 -0.1016  1.2983
14760TIP3    H265772   3.221   3.791   5.533 -1.1447 -0.3419  0.4986
14761TIP3   OH265773   0.002   5.692  15.138  0.1727 -0.1552 -0.5253
14761TIP3    H165774   0.056   5.626  15.184 -0.9316 -0.8007 -0.1409
14761TIP3    H265775  -0.084   5.684  15.178 -0.3998  0.3805 -1.6524
14762TIP3   OH265776   2.659   6.384   2.153 -0.1197  0.1588 -0.4272
14762TIP3    H165777   2.650   6.458   2.214  0.7931  1.7972 -2.1981
14762TIP3    H265778   2.710   6.420   2.080 -0.5072 -1.9664 -1.7848
14763TIP3   OH265779   1.733   1.261   3.581  0.0022  0.1610 -0.0306
14763TIP3    H165780   1.706   1.206   3.508 -0.3481 -2.3715  1.9219
14763TIP3    H265781   1.682   1.342   3.571 -2.3357 -1.3772 -0.8664
14764TIP3   OH265782   4.564   5.589  16.500 -0.0877  0.0705 -0.4371
14764TIP3    H165783   4.489   5.643  16.475  0.4165  0.5399 -0.9701
14764TIP3    H265784   4.538   5.547  16.581 -1.3407 -0.6152 -1.1895
14765TIP3   OH265785   6.634   4.232  11.583 -0.0265 -0.1620 -0.0845
14765TIP3    H165786   6.591   4.216  11.499  2.4079 -2.4865 -0.9438
14765TIP3    H265787   6.629   4.327  11.594 -0.2920  0.2067 -2.9084
14766TIP3   OH265788   4.781   5.889  15.120  0.0061  0.4806 -0.0880
14766TIP3    H165789   4.874   5.878  15.098  0.2799  1.6979  0.4127
14766TIP3    H265790   4.781   5.913  15.213 -0.8838 -0.5534  0.1882
14767TIP3   OH265791   0.009   1.251   4.751  0.5690 -0.3850  0.4342
14767TIP3    H165792   0.041   1.184   4.812  0.4012  0.5892  1.5934
14767TIP3    H265793  -0.042   1.202   4.686  1.5829 -1.5412  0.4938
14768TIP3   OH265794   5.597   4.535   1.141 -0.0656 -0.2425  0.0418
14768TIP3    H165795   5.536   4.470   1.174 -0.5958  0.2548  0.0616
14768TIP3    H265796   5.671   4.533   1.201 -0.6041 -0.0029  0.7198
14769TIP3   OH265797   1.909   4.741  14.821 -0.3388  0.1916  0.2456
14769TIP3    H165798   1.818   4.724  14.845  0.0844 -1.6381  0.6079
14769TIP3    H265799   1.931   4.820  14.869 -2.0222  1.2024 -0.5867
14770TIP3   OH265800   6.607   5.581  11.062  0.3506  0.3542  0.3125
14770TIP3    H165801   6.556   5.662  11.052  2.3798  1.5169 -1.1518
14770TIP3    H265802   6.694   5.604  11.028  0.7298 -2.6961 -0.9505
14771TIP3   OH265803   6.290   5.615  16.515 -0.3613  0.1229  0.1324
14771TIP3    H165804   6.211   5.583  16.472 -0.2676  0.0405  0.0249
14771TIP3    H265805   6.308   5.698  16.471  0.3805 -0.5027 -0.7586
14772TIP3   OH265806   3.923   4.993   6.186  0.1084 -0.3182 -0.4276
14772TIP3    H165807   3.974   5.036   6.255  1.5905  0.2404 -1.8257
14772TIP3    H265808   3.890   5.065   6.132 -1.4996 -0.7225 -0.0152
14773TIP3   OH265809   4.121   1.540  12.133 -0.3713  0.3924 -0.0863
14773TIP3    H165810   4.177   1.600  12.182  0.2897  0.6221 -1.1020
14773TIP3    H265811   4.035   1.582  12.133 -0.8613 -0.5141  2.4677
14774TIP3   OH265812   2.265   4.110   1.922  0.0521 -0.6378 -0.4528
14774TIP3    H165813   2.276   4.184   1.981  1.7817  1.1801 -2.9726
14774TIP3    H265814   2.327   4.044   1.954  0.1164 -0.1376  0.4583
14775TIP3   OH265815   2.520   3.952  13.609  0.0387 -0.0363 -0.4165
14775TIP3    H165816   2.595   3.898  13.635  0.1664  0.5355  0.4322
14775TIP3    H265817   2.558   4.021  13.556 -0.1703 -0.9700 -1.8095
14776TIP3   OH265818   2.768   3.635   5.325 -0.9408  0.3618 -0.4814
14776TIP3    H165819   2.710   3.560   5.334  1.3890 -1.4384  0.0667
14776TIP3    H265820   2.820   3.634   5.406  0.4442  1.3894 -1.3383
14777TIP3   OH265821   3.989   1.354   0.235 -0.7173  0.2762 -0.3871
14777TIP3    H165822   4.013   1.305   0.314 -0.7601 -0.6786 -0.9591
14777TIP3    H265823   4.034   1.438   0.244 -0.4095  0.0261  0.4625
14778TIP3   OH265824   1.101   2.058   3.676 -0.3409 -0.3482 -0.0473
14778TIP3    H165825   1.014   2.095   3.661  0.1900  0.6968 -0.6059
14778TIP3    H265826   1.115   2.000   3.602 -0.8084 -0.9892  0.3614
14779TIP3   OH265827   0.879   0.238  12.913 -0.0090  0.1315  0.3073
14779TIP3    H165828   0.881   0.329  12.944  1.3266 -0.1201  0.9909
14779TIP3    H265829   0.939   0.237  12.838  0.2597 -0.2672  0.5270
14780TIP3   OH265830   1.847   2.804  16.105 -0.0947 -0.0290  0.4100
14780TIP3    H165831   1.773   2.838  16.055  0.9468  0.1409 -1.0386
14780TIP3    H265832   1.807   2.763  16.182 -1.7162 -0.3340 -0.5737
14781TIP3   OH265833   6.550   4.835  11.980 -0.1190  0.6593 -0.2377
14781TIP3    H165834   6.633   4.838  11.932 -0.0065 -0.3211 -0.0980
14781TIP3    H265835   6.492   4.783  11.924 -0.3856  0.6201  0.0781
14782TIP3   OH265836   3.694   5.805   4.621  0.3354  0.5057 -0.0995
14782TIP3    H165837   3.657   5.741   4.683 -1.6686  0.7919 -0.9387
14782TIP3    H265838   3.644   5.790   4.540  4.0197 -0.9770 -2.1961
14783TIP3   OH265839   1.709   3.139  12.169 -0.1766  0.3001  0.0727
14783TIP3    H165840   1.629   3.090  12.183  0.4266 -0.9736 -0.8297
14783TIP3    H265841   1.687   3.202  12.100 -0.7542  0.8304  0.7375
14784TIP3   OH265842   0.954   3.209  14.004  0.0255  0.4349 -0.0006
14784TIP3    H165843   0.973   3.121  14.036 -0.2165  0.7308  0.9460
14784TIP3    H265844   1.036   3.238  13.963  0.0976 -0.2344 -0.3338
14785TIP3   OH265845   6.771   0.795   2.747  0.6473 -0.2103 -0.2568
14785TIP3    H165846   6.685   0.759   2.771  2.0205 -3.6040 -0.1299
14785TIP3    H265847   6.756   0.837   2.662 -1.5550  1.0737  0.7225
14786TIP3   OH265848   6.529   0.882   4.050 -0.3350  0.1678  0.6967
14786TIP3    H165849   6.542   0.788   4.033 -0.4766  0.4877 -1.3785
14786TIP3    H265850   6.529   0.922   3.962 -2.5191  1.8254  1.4209
14787TIP3   OH265851   3.384   3.977   2.452 -0.5968 -0.0838 -0.2669
14787TIP3    H165852   3.350   4.008   2.368  0.2270 -0.3053 -0.6849
14787TIP3    H265853   3.337   4.028   2.517  0.3736  1.6937 -0.9194
14788TIP3   OH265854   3.754   1.108   2.160 -0.9730 -0.3824 -0.2835
14788TIP3    H165855   3.736   1.018   2.133 -1.9780  0.0309 -1.0416
14788TIP3    H265856   3.723   1.112   2.251 -0.4965 -0.9227 -0.0913
14789TIP3   OH265857   5.115   5.212  17.095  0.8291  0.9605 -0.2782
14789TIP3    H165858   5.183   5.231  17.159 -0.3663 -1.8916  1.9357
14789TIP3    H265859   5.035   5.244  17.135  0.3150  0.6843 -1.0771
14790TIP3   OH265860   0.635   6.136   0.755  0.2753 -0.2564  0.2768
14790TIP3    H165861   0.720   6.180   0.748  0.8947 -1.4610 -0.1168
14790TIP3    H265862   0.638   6.090   0.839  0.5660 -1.3675 -0.3178
14791TIP3   OH265863   1.791   2.089  14.852  0.0589  0.1597  0.1491
14791TIP3    H165864   1.847   2.082  14.774  0.1061 -0.8195  0.2700
14791TIP3    H265865   1.705   2.112  14.817  0.0438 -0.4309 -0.2134
14792TIP3   OH265866   2.506   2.872   5.050 -0.0717  0.4212 -0.4981
14792TIP3    H165867   2.418   2.839   5.064  0.3037 -0.3255  0.1334
14792TIP3    H265868   2.560   2.794   5.041  0.4031  0.8790 -1.6737
14793TIP3   OH265869   1.740   4.981  11.782  0.8488  0.0150 -0.0464
14793TIP3    H165870   1.674   4.948  11.843  0.0123 -0.9645 -1.4631
14793TIP3    H265871   1.695   5.048  11.731  0.8526 -0.8268 -1.1829
14794TIP3   OH265872   6.364   2.358  15.089 -0.4175 -0.0794  0.0544
14794TIP3    H165873   6.395   2.276  15.127  2.0913  0.4398 -0.7509
14794TIP3    H265874   6.322   2.332  15.007 -1.3247 -0.7109  0.7068
14795TIP3   OH265875   0.565   0.402   5.521  0.8274  0.0186  0.4501
14795TIP3    H165876   0.643   0.385   5.574  0.8348 -0.0004  0.4336
14795TIP3    H265877   0.599   0.428   5.435  0.8159  0.1286  0.4791
14796TIP3   OH265878   1.671   2.020   2.641  0.4760  0.2760  0.3090
14796TIP3    H165879   1.623   2.049   2.563 -1.0424  0.3836  1.2559
14796TIP3    H265880   1.745   2.080   2.647 -0.1054  1.0729 -0.3328
14797TIP3   OH265881   4.113   1.721   4.012  0.2380 -0.2010 -0.7627
14797TIP3    H165882   4.038   1.731   4.071  0.9284 -0.0695  0.1019
14797TIP3    H265883   4.139   1.629   4.021  1.3563  0.2089  0.3897
14798TIP3   OH265884   6.703   4.630   0.349 -0.0337  0.3604 -0.2975
14798TIP3    H165885   6.775   4.693   0.339  1.1712 -0.8475  0.4779
14798TIP3    H265886   6.723   4.584   0.430 -0.7864 -1.1384 -0.9376
14799TIP3   OH265887   3.752   6.418   1.628 -0.2781 -0.7177  0.2534
14799TIP3    H165888   3.727   6.411   1.536 -1.6721 -0.1475  0.5758
14799TIP3    H265889   3.843   6.445   1.626 -1.0812  2.0693 -0.9883
14800TIP3   OH265890   1.161   1.232  11.567 -0.6191  0.5621  0.1964
14800TIP3    H165891   1.225   1.220  11.637 -0.3481  1.9010  0.1923
14800TIP3    H265892   1.213   1.239  11.488 -0.8403  0.4820  0.0425
14801TIP3   OH265893   1.639   3.467   4.624 -0.4582  0.5450  0.6731
14801TIP3    H165894   1.628   3.515   4.706 -2.3601  1.4088 -0.0550
14801TIP3    H265895   1.558   3.483   4.576  0.1405 -0.9265 -0.8800
14802TIP3   OH265896   6.223   5.350   3.344  0.3491 -0.3058  0.1190
14802TIP3    H165897   6.160   5.383   3.279  0.5258  1.2904  0.7439
14802TIP3    H265898   6.308   5.374   3.308  0.5792 -1.6232 -0.2557
14803TIP3   OH265899   0.875   1.051   3.107 -0.0755  0.2986 -0.3399
14803TIP3    H165900   0.798   1.108   3.101 -1.5307 -1.4467  1.2612
14803TIP3    H265901   0.871   1.015   3.196  0.1502 -3.2178 -1.7195
14804TIP3   OH265902   1.083   1.559   1.857 -0.0911 -0.2779 -0.0077
14804TIP3    H165903   1.052   1.606   1.935  0.8202 -0.5053  0.4995
14804TIP3    H265904   1.133   1.625   1.808 -0.4439 -0.2035 -0.2645
14805TIP3   OH265905   4.631   3.525   0.969  0.0297  0.2292  0.6726
14805TIP3    H165906   4.690   3.575   0.913 -2.1618  1.0020 -1.0132
14805TIP3    H265907   4.640   3.435   0.937 -1.3206  0.6842 -1.0781
14806TIP3   OH265908   4.765   6.448   3.012  0.4353  0.0591 -0.3028
14806TIP3    H165909   4.730   6.479   3.096 -1.5386 -0.7793 -0.7790
14806TIP3    H265910   4.726   6.506   2.947 -0.4411 -1.1411 -0.8769
14807TIP3   OH265911   1.932   1.941   1.707 -0.0624  0.1056 -0.1803
14807TIP3    H165912   1.896   2.029   1.711 -0.5773 -0.1658  1.3244
14807TIP3    H265913   1.856   1.883   1.709  0.3592 -0.4168  0.7997
14808TIP3   OH265914   5.508   4.432  10.996 -0.6109 -0.6522  0.1531
14808TIP3    H165915   5.562   4.463  10.924 -0.5063 -2.2982 -0.5154
14808TIP3    H265916   5.476   4.511  11.039 -0.4162  0.3547 -1.5158
14809TIP3   OH265917   0.843   4.382   5.584 -0.4334  0.6185 -0.3436
14809TIP3    H165918   0.892   4.457   5.620 -1.1716  1.3187 -0.7831
14809TIP3    H265919   0.851   4.392   5.490 -1.3535  0.6859 -0.4149
14810TIP3   OH265920   2.493   4.018  16.946  0.3005 -0.0743 -0.3111
14810TIP3    H165921   2.538   4.043  17.027 -0.2863  0.6443 -0.2041
14810TIP3    H265922   2.559   3.970  16.896  1.1944  0.9754 -0.1575
14811TIP3   OH265923   0.504   0.051  10.829 -0.4609 -0.5090  0.8556
14811TIP3    H165924   0.476   0.100  10.751 -2.2599 -3.0203 -0.1514
14811TIP3    H265925   0.441   0.074  10.896 -0.7691 -0.7441  0.6485
14812TIP3   OH265926   0.319   2.496  15.969  0.6791 -0.5167  0.0786
14812TIP3    H165927   0.378   2.441  15.918  1.7463 -0.3262  1.0940
14812TIP3    H265928   0.376   2.541  16.031 -0.2589  1.2396 -0.2970
14813TIP3   OH265929   5.315   2.406   4.974  0.3680  0.2034  0.3166
14813TIP3    H165930   5.304   2.367   4.887  1.9232 -0.3917  0.3696
14813TIP3    H265931   5.320   2.500   4.957 -1.9010  0.2906  0.0333
14814TIP3   OH265932   5.247   0.662   4.655 -0.2746  0.3902 -0.4199
14814TIP3    H165933   5.206   0.585   4.694  0.1125 -0.6617 -2.0478
14814TIP3    H265934   5.203   0.672   4.571 -1.3705  2.8604  0.3960
14815TIP3   OH265935   4.959   5.561   2.802 -0.1032  0.1884  0.2760
14815TIP3    H165936   4.919   5.542   2.717 -1.0914 -2.6067  1.3274
14815TIP3    H265937   5.044   5.518   2.799  0.9080  2.1352 -0.1593
14816TIP3   OH265938   5.272   4.629   3.125  0.5542 -0.0506  0.1241
14816TIP3    H165939   5.271   4.648   3.031  0.8195 -0.0149  0.1282
14816TIP3    H265940   5.361   4.598   3.142  0.5040 -0.0623  0.3615
14817TIP3   OH265941   4.279   4.200   2.327  0.4789  0.8763 -0.2854
14817TIP3    H165942   4.374   4.191   2.322  0.2502 -1.0922 -1.4897
14817TIP3    H265943   4.258   4.273   2.269  1.1678  0.7172 -0.7363
14818TIP3   OH265944   4.601   4.801  12.851  0.1931  0.5237  0.1629
14818TIP3    H165945   4.678   4.852  12.875 -1.3014  2.5712  0.7719
14818TIP3    H265946   4.625   4.758  12.769  1.4532  2.3897 -0.4851
14819TIP3   OH265947   3.377   4.677   4.848  0.5162  0.0380  0.2496
14819TIP3    H165948   3.338   4.727   4.776  2.9046  0.3836 -0.8279
14819TIP3    H265949   3.350   4.586   4.831 -1.3747  0.5129  0.5858
14820TIP3   OH265950   1.052   0.975   4.628  1.0407 -0.1444  0.6295
14820TIP3    H165951   1.072   1.067   4.608 -1.1242  0.1688 -0.1756
14820TIP3    H265952   1.087   0.926   4.554  2.3553 -0.0219  1.1413
14821TIP3   OH265953   1.288   1.047  17.247  0.5986  0.7788 -0.4651
14821TIP3    H165954   1.272   1.136  17.216  1.2540  0.8336 -0.6576
14821TIP3    H265955   1.206   1.021  17.289  0.5949  1.6755  0.0963
14822TIP3   OH265956   6.142   0.100  12.031  0.2872 -0.1225 -0.2675
14822TIP3    H165957   6.137   0.075  12.124  1.3299  1.1234  0.1331
14822TIP3    H265958   6.143   0.017  11.984  0.7046 -0.7808  0.8883
14823TIP3   OH265959   2.908   0.858  13.764 -0.4773  0.3885  0.0815
14823TIP3    H165960   2.924   0.862  13.858  0.4578 -3.0534  0.1587
14823TIP3    H265961   2.819   0.891  13.752 -0.0618  2.2461  1.9803
14824TIP3   OH265962   2.809   2.729   4.786  0.4268  0.2588  0.2915
14824TIP3    H165963   2.846   2.751   4.700 -1.1453  0.3426 -0.3860
14824TIP3    H265964   2.884   2.733   4.846  1.2257  1.9277 -0.7737
14825TIP3   OH265965   4.145   3.587   2.020 -0.0009  0.0705  0.3540
14825TIP3    H165966   4.067   3.618   2.066 -0.2386 -0.6226  0.4205
14825TIP3    H265967   4.168   3.506   2.064 -0.2265 -0.5977 -0.7302
14826TIP3   OH265968   2.726   3.619   3.858 -0.7668 -0.1237  0.0183
14826TIP3    H165969   2.703   3.661   3.776 -0.0586  0.7670  0.2713
14826TIP3    H265970   2.720   3.688   3.924  0.5645 -0.3599  0.4149
14827TIP3   OH265971   4.898   0.299  14.901  0.2877 -0.1167 -0.6513
14827TIP3    H165972   4.849   0.236  14.954  0.4150 -0.3400 -0.7999
14827TIP3    H265973   4.831   0.358  14.866 -0.2935 -2.3794 -3.5319
14828TIP3   OH265974   6.313   0.942  15.235 -0.0603 -0.4770 -0.8279
14828TIP3    H165975   6.398   0.984  15.234 -0.1925 -0.2122 -1.2528
14828TIP3    H265976   6.332   0.849  15.224  0.2884 -0.6386  1.0470
14829TIP3   OH265977   6.452   2.373   5.473 -0.0721 -0.3492  0.5400
14829TIP3    H165978   6.391   2.329   5.532 -0.9446  0.5397  0.2945
14829TIP3    H265979   6.472   2.307   5.406 -3.6297  0.5248 -1.4633
14830TIP3   OH265980   1.390   1.864   1.693  0.0289 -0.1681  0.0480
14830TIP3    H165981   1.365   1.829   1.779 -1.5891  1.0620  0.0888
14830TIP3    H265982   1.312   1.855   1.639  0.0191  1.9688 -0.3625
14831TIP3   OH265983   4.410   5.872  10.751 -0.1892 -0.3918  0.2697
14831TIP3    H165984   4.437   5.916  10.832 -0.5118 -1.2954  0.8720
14831TIP3    H265985   4.470   5.906  10.685 -0.7053  1.2789  0.6335
14832TIP3   OH265986   6.720   5.126   0.723 -0.1091  0.4846 -0.3224
14832TIP3    H165987   6.686   5.136   0.634 -0.9834  2.0047  0.1571
14832TIP3    H265988   6.804   5.081   0.712  0.2520  1.5348 -1.9996
14833TIP3   OH265989   4.217   1.269   4.679  0.5539 -0.0863 -0.5401
14833TIP3    H165990   4.158   1.242   4.749  0.3409  1.1916 -0.2312
14833TIP3    H265991   4.271   1.191   4.662 -0.3780 -0.8592  0.0221
14834TIP3   OH265992   5.904   2.014  12.971  0.0819  0.2703 -0.0604
14834TIP3    H165993   5.927   2.006  12.878  0.1650 -0.8900  0.0554
14834TIP3    H265994   5.819   1.970  12.978  0.5036 -0.4447  0.5873
14835TIP3   OH265995   2.749   0.476  13.383 -0.5632  0.4832 -0.2646
14835TIP3    H165996   2.686   0.533  13.340 -1.0495 -0.8501 -1.3486
14835TIP3    H265997   2.725   0.387  13.356  0.3809 -0.2284  1.1268
14836TIP3   OH265998   0.142   2.832  13.231 -0.1780 -0.3832  0.1678
14836TIP3    H165999   0.080   2.891  13.188 -0.2827  0.7623  1.8302
14836TIP3    H266000   0.092   2.752  13.246 -0.7350 -0.0803 -0.0495
14837TIP3   OH266001   6.302   4.266  16.292 -0.5255  0.8605 -0.0810
14837TIP3    H166002   6.377   4.265  16.352  0.0250  2.6088 -0.7142
14837TIP3    H266003   6.302   4.179  16.253 -0.2492  0.0504  1.6492
14838TIP3   OH266004   5.942   6.256   5.381  0.7581  0.1547 -0.3999
14838TIP3    H166005   5.962   6.339   5.423 -2.4640  0.3258  0.9394
14838TIP3    H266006   5.979   6.190   5.439  0.7864  0.5580  0.0410
14839TIP3   OH266007   2.228   0.149  17.149 -0.2513 -0.2221 -0.0813
14839TIP3    H166008   2.221   0.086  17.078 -0.5130 -1.0017  0.6223
14839TIP3    H266009   2.290   0.215  17.117 -1.6196  0.3378 -1.6675
14840TIP3   OH266010   6.454   2.643  11.434 -0.4859  0.6208  0.3058
14840TIP3    H166011   6.530   2.671  11.383  0.8452  0.6475  2.2513
14840TIP3    H266012   6.379   2.655  11.375  1.1363 -0.4818 -2.0444
14841TIP3   OH266013   6.043   1.857  15.021  0.3347 -0.3045  0.2475
14841TIP3    H166014   6.064   1.910  15.098  1.0238  1.7065 -1.2675
14841TIP3    H266015   5.969   1.902  14.980  1.3812 -0.0653 -1.4520
14842TIP3   OH266016   3.674   1.715  11.996  0.1464 -0.0550 -0.1068
14842TIP3    H166017   3.623   1.719  12.076 -1.4224 -2.6310 -0.9053
14842TIP3    H266018   3.639   1.785  11.941  0.0925  0.6429  0.8048
14843TIP3   OH266019   6.162   3.338   2.149 -0.0985 -0.3182  0.2538
14843TIP3    H166020   6.232   3.365   2.208 -0.9528  0.6356  0.8335
14843TIP3    H266021   6.200   3.350   2.061 -0.6339  3.4684  0.4329
14844TIP3   OH266022   2.780   6.315   4.786  0.5672  0.3245 -0.7486
14844TIP3    H166023   2.753   6.325   4.877  2.0759  0.5711 -0.3189
14844TIP3    H266024   2.829   6.395   4.766  0.8752 -0.0513 -1.5452
14845TIP3   OH266025   5.498   3.484   5.696  0.3879 -0.0215  0.3035
14845TIP3    H166026   5.455   3.399   5.707  0.2132  0.2647  2.1124
14845TIP3    H266027   5.427   3.543   5.672 -0.0493  0.1860  1.9917
14846TIP3   OH266028   2.501   6.207  16.800 -0.0088 -0.3429 -0.0936
14846TIP3    H166029   2.563   6.135  16.791 -1.3812 -1.6258  0.5580
14846TIP3    H266030   2.474   6.205  16.892 -1.7288 -0.4101 -0.5823
14847TIP3   OH266031   4.331   3.855  13.335  0.5236 -0.2193 -0.2622
14847TIP3    H166032   4.242   3.865  13.371  0.7128  0.3178  0.0592
14847TIP3    H266033   4.353   3.763  13.352 -0.4096 -0.6732 -1.3652
14848TIP3   OH266034   5.095   2.196   1.353  0.0311  0.1336 -0.1269
14848TIP3    H166035   5.111   2.258   1.424  0.3345 -1.5047  1.2718
14848TIP3    H266036   5.000   2.189   1.349  0.0111  0.2315  0.1222
14849TIP3   OH266037   5.959   5.230  15.441  0.1608  0.2688  0.5674
14849TIP3    H166038   6.015   5.262  15.370  1.6276  0.1929  1.6524
14849TIP3    H266039   5.963   5.134  15.433 -1.1552  0.2750 -0.3487
14850TIP3   OH266040   4.901   3.028  11.871  0.2929  0.9989  0.1029
14850TIP3    H166041   4.832   3.090  11.847  0.0819  0.9441  0.5534
14850TIP3    H266042   4.976   3.083  11.892 -0.2955  1.1838  1.8094
14851TIP3   OH266043   5.558   1.025  11.865  0.1487  0.4595  0.0555
14851TIP3    H166044   5.547   1.050  11.773  2.0348  0.9252 -0.0615
14851TIP3    H266045   5.489   1.073  11.911 -1.2774 -0.3387 -1.1879
14852TIP3   OH266046   2.358   0.285  11.464 -0.0021  0.5411 -0.1130
14852TIP3    H166047   2.340   0.378  11.474 -0.1607  0.4527  0.4860
14852TIP3    H266048   2.454   0.278  11.465  0.0135  0.7216 -0.4083
14853TIP3   OH266049   4.828   1.732   2.251  0.1030  0.6751  0.0398
14853TIP3    H166050   4.745   1.708   2.211  0.9941 -2.5852  0.0188
14853TIP3    H266051   4.830   1.684   2.334  1.4053  1.7815  0.6814
14854TIP3   OH266052   2.250   4.928  17.120 -0.0758  0.0333  0.3076
14854TIP3    H166053   2.160   4.898  17.104  0.7561 -0.7280 -3.4083
14854TIP3    H266054   2.280   4.875  17.194 -2.0972 -0.9726  0.4378
14855TIP3   OH266055   6.683   0.929   2.500 -0.9197  0.2922 -0.0318
14855TIP3    H166056   6.589   0.931   2.483 -0.9521 -0.2811  0.0749
14855TIP3    H266057   6.720   0.889   2.422 -0.6723  1.3269 -0.4562
14856TIP3   OH266058   5.620   1.546  13.675 -0.0261 -0.2892 -0.3292
14856TIP3    H166059   5.644   1.505  13.758 -1.4728 -1.0411 -0.2734
14856TIP3    H266060   5.677   1.505  13.610 -0.1954 -1.0600  0.0091
14857TIP3   OH266061   0.981   0.427   4.581 -0.2360 -0.2921  0.0496
14857TIP3    H166062   0.927   0.350   4.602 -0.2969  0.0071  1.0311
14857TIP3    H266063   0.970   0.485   4.657  1.1195 -0.0365  0.0530
14858TIP3   OH266064   3.406   4.208  12.644  0.2377 -0.5240  0.1782
14858TIP3    H166065   3.341   4.139  12.647 -0.2319 -0.0776  0.2493
14858TIP3    H266066   3.437   4.207  12.553 -0.2444 -0.3823  0.0143
14859TIP3   OH266067   0.814   3.370   2.863 -0.1556 -0.0928  0.4593
14859TIP3    H166068   0.827   3.441   2.801 -1.4601  1.0771  1.5047
14859TIP3    H266069   0.730   3.332   2.839 -0.0104 -0.5334  0.6377
14860TIP3   OH266070   0.062   3.555   0.733 -0.0344  0.3797  0.9270
14860TIP3    H166071  -0.030   3.529   0.730  0.2207 -0.3673 -1.6314
14860TIP3    H266072   0.110   3.474   0.713  1.0539  1.2738 -0.1592
14861TIP3   OH266073   5.733   4.719  11.491 -0.0538 -0.7924 -0.4516
14861TIP3    H166074   5.804   4.782  11.485  0.1911 -0.8042  1.9285
14861TIP3    H266075   5.763   4.644  11.440  0.6198  0.1022 -1.4051
14862TIP3   OH266076   2.614   0.988   5.629 -0.7737  0.2804 -0.2613
14862TIP3    H166077   2.705   1.016   5.640 -0.5765 -0.7127  0.7308
14862TIP3    H266078   2.562   1.064   5.657 -0.2684  1.1840 -1.7176
14863TIP3   OH266079   5.768   1.065  14.593  0.0541  0.0292  0.0936
14863TIP3    H166080   5.815   1.006  14.533 -1.9599 -1.6592  0.1222
14863TIP3    H266081   5.678   1.034  14.591 -0.4917  1.3951  2.2649
14864TIP3   OH266082   6.744   5.654   4.107 -0.4251  0.2347  0.0036
14864TIP3    H166083   6.758   5.745   4.083  0.8585 -0.1528 -0.7315
14864TIP3    H266084   6.689   5.618   4.037 -0.7479  0.3702  0.1826
14865TIP3   OH266085   5.814   2.669  15.387  0.0186  0.0910  0.2229
14865TIP3    H166086   5.801   2.764  15.396  0.2469  0.0180  1.5583
14865TIP3    H266087   5.889   2.661  15.329 -0.3754  0.7170 -0.3787
14866TIP3   OH266088   6.793   4.062   2.826  0.0020 -0.4904  0.3056
14866TIP3    H166089   6.733   4.132   2.803  0.3914 -0.1366  0.3606
14866TIP3    H266090   6.842   4.096   2.901  1.9582  0.1916 -1.2429
14867TIP3   OH266091   3.666   5.590  15.493 -0.1004 -0.2337 -0.2108
14867TIP3    H166092   3.737   5.591  15.557  0.1649 -0.2113 -0.5009
14867TIP3    H266093   3.651   5.497  15.476 -1.9418 -0.3156  1.8211
14868TIP3   OH266094   1.819   5.971   5.643 -0.4723 -0.2956  0.1756
14868TIP3    H166095   1.755   5.916   5.597 -0.5160 -0.1212  0.0319
14868TIP3    H266096   1.894   5.976   5.584 -0.5898  0.0567  0.0566
14869TIP3   OH266097   4.549   3.282   2.041 -0.0562  0.1775  0.0510
14869TIP3    H166098   4.530   3.326   1.958  1.3725  0.1322 -0.3260
14869TIP3    H266099   4.478   3.219   2.053  0.2658 -0.5235 -1.6453
14870TIP3   OH266100   5.067   1.616   4.431 -0.4768  0.0035  0.4600
14870TIP3    H166101   5.098   1.615   4.340  0.4158  1.1056  0.7554
14870TIP3    H266102   5.136   1.661   4.480 -1.8352  1.1274  1.3719
14871TIP3   OH266103   2.410   0.869  10.680 -0.2438 -0.1828  0.2909
14871TIP3    H166104   2.461   0.850  10.759 -0.4179 -0.6521  0.2895
14871TIP3    H266105   2.323   0.834  10.700 -0.0421 -1.1243 -0.4758
14872TIP3   OH266106   5.402   3.391  14.407 -0.0179 -0.2615  0.3155
14872TIP3    H166107   5.314   3.407  14.440  0.4227  0.4607  1.1482
14872TIP3    H266108   5.392   3.316  14.348 -1.4766  0.8596 -0.9044
14873TIP3   OH266109   0.644   3.069   2.160 -0.5910 -0.4280  0.0432
14873TIP3    H166110   0.584   3.102   2.093 -1.2206 -0.6402  0.4956
14873TIP3    H266111   0.670   3.147   2.209 -0.9600 -0.4086  0.2131
14874TIP3   OH266112   1.858   5.160  12.637  0.0577 -0.2762 -0.1915
14874TIP3    H166113   1.818   5.230  12.687  0.4511  0.6971 -1.2222
14874TIP3    H266114   1.787   5.098  12.620 -0.5677  0.4859 -0.3468
14875TIP3   OH266115   4.903   3.711   4.967  0.3034 -0.2067 -0.2589
14875TIP3    H166116   4.997   3.694   4.966  0.3862  0.2242  0.3148
14875TIP3    H266117   4.866   3.635   5.013  0.4443 -0.0205  0.1667
14876TIP3   OH266118   1.694   0.620   0.045 -0.2398  0.2875 -0.2376
14876TIP3    H166119   1.757   0.687   0.018 -0.4412  0.4714 -0.2511
14876TIP3    H266120   1.612   0.645   0.001 -0.3819  0.1793 -0.0338
14877TIP3   OH266121   0.386   0.323  17.250 -0.4194 -0.5221  0.3612
14877TIP3    H166122   0.380   0.287  17.339  1.6010 -0.7456  0.4308
14877TIP3    H266123   0.416   0.249  17.197 -0.6446 -0.1199 -0.3284
14878TIP3   OH266124   3.283   6.623   0.111 -0.3351 -0.2240 -0.2169
14878TIP3    H166125   3.233   6.705   0.109  0.5962  0.3165 -1.8181
14878TIP3    H266126   3.347   6.632   0.041  1.4563 -1.2746  1.2488
14879TIP3   OH266127   1.931   6.660   5.075 -0.1510 -0.8457  0.1123
14879TIP3    H166128   1.925   6.752   5.098  2.4583 -0.3109 -1.1035
14879TIP3    H266129   1.893   6.653   4.988 -0.3578 -0.9232  0.2082
14880TIP3   OH266130   4.409   6.017  14.891 -0.2358  0.1652 -0.2212
14880TIP3    H166131   4.333   6.075  14.879 -2.5153 -2.2807  1.9078
14880TIP3    H266132   4.412   5.965  14.810  0.6789  1.8904 -1.3325
14881TIP3   OH266133   3.609   0.993  10.978  0.0329 -1.2444 -0.2346
14881TIP3    H166134   3.593   1.077  11.021  0.8336 -1.2443  0.0782
14881TIP3    H266135   3.595   1.010  10.885  0.1583 -0.7671 -0.1662
14882TIP3   OH266136   0.377   4.526   0.922  0.6190 -0.2083  0.7958
14882TIP3    H166137   0.414   4.498   1.006 -0.0229 -0.8081  0.8858
14882TIP3    H266138   0.315   4.456   0.899  1.3553 -0.4230 -0.5501
14883TIP3   OH266139   1.628   2.635   0.574 -0.2965 -0.2664  0.1799
14883TIP3    H166140   1.552   2.602   0.622 -1.5578  1.7779 -0.3419
14883TIP3    H266141   1.693   2.653   0.642 -1.0975  0.0784  0.8710
14884TIP3   OH266142   2.230   2.701   4.321  0.7134 -0.0492  0.3768
14884TIP3    H166143   2.277   2.673   4.242  2.2172  0.1957  1.1686
14884TIP3    H266144   2.225   2.797   4.313 -1.1278 -0.1971 -0.5045
14885TIP3   OH266145   2.192   1.706   2.707  0.2289 -0.4209 -0.5323
14885TIP3    H166146   2.250   1.776   2.738 -0.4033 -0.5586  1.0238
14885TIP3    H266147   2.208   1.701   2.613  1.2588  0.9112 -0.4423
14886TIP3   OH266148   1.013   5.225   5.572 -0.1727 -0.5227  0.1744
14886TIP3    H166149   0.958   5.289   5.526 -0.0451 -0.0238  0.7121
14886TIP3    H266150   1.103   5.250   5.549 -0.2224 -2.7299 -2.5533
14887TIP3   OH266151   4.680   2.520  13.240  0.0432  0.0013  0.0176
14887TIP3    H166152   4.608   2.495  13.297  0.4904  0.7754  0.9391
14887TIP3    H266153   4.658   2.608  13.210  0.0015 -0.2479 -0.6962
14888TIP3   OH266154   4.879   3.260  14.425  0.7068 -0.3043 -0.1970
14888TIP3    H166155   4.898   3.179  14.473 -2.5822 -0.2034  1.4105
14888TIP3    H266156   4.784   3.260  14.415  0.7988  2.6303 -1.5449
14889TIP3   OH266157   2.321   4.438   2.408 -0.2636  0.0096 -0.4547
14889TIP3    H166158   2.384   4.419   2.478  1.9313  1.9973 -1.8264
14889TIP3    H266159   2.307   4.533   2.414 -1.6327 -0.1177 -1.4456
14890TIP3   OH266160   3.515   0.403  12.436  0.2082 -0.0831  0.3429
14890TIP3    H166161   3.439   0.400  12.494  0.5178 -1.5215  0.6861
14890TIP3    H266162   3.523   0.315  12.400  2.2709 -0.2236  1.0493
14891TIP3   OH266163   3.739   0.665   1.069  0.1947 -0.2553  0.5265
14891TIP3    H166164   3.776   0.713   0.994  0.1903  0.2036  0.8173
14891TIP3    H266165   3.815   0.640   1.121  0.2341 -0.9978  0.1192
14892TIP3   OH266166   4.596   1.510   1.558 -0.0142 -0.5358 -0.8844
14892TIP3    H166167   4.606   1.547   1.646 -1.6571 -0.7439 -0.5840
14892TIP3    H266168   4.686   1.500   1.526  0.5799  0.3260  0.4341
14893TIP3   OH266169   3.162   6.777  16.919 -0.0927 -0.4243 -0.5413
14893TIP3    H166170   3.193   6.732  16.997  1.1032  0.0399 -0.7346
14893TIP3    H266171   3.180   6.717  16.847  1.3271  0.2403 -0.7745
14894TIP3   OH266172   4.812   4.084  12.540  0.2384  0.3915 -0.1610
14894TIP3    H166173   4.828   3.994  12.566  2.5168  0.5291 -1.0261
14894TIP3    H266174   4.793   4.079  12.446 -2.8387  0.4901  0.3900
14895TIP3   OH266175   4.929   0.294  13.401  0.0601 -0.1636  0.1546
14895TIP3    H166176   4.912   0.388  13.413 -1.3256 -0.3946  0.1647
14895TIP3    H266177   5.009   0.291  13.348 -1.0011  1.0834 -1.6108
14896TIP3   OH266178   3.244   5.260  13.447  0.5282 -0.1696 -0.0973
14896TIP3    H166179   3.163   5.212  13.432  1.4259 -1.4654 -0.9766
14896TIP3    H266180   3.249   5.323  13.376  0.9131 -0.9779 -0.8044
14897TIP3   OH266181   2.289   5.193  16.185  0.5518  0.0065  0.4958
14897TIP3    H166182   2.257   5.216  16.272  0.3249  4.3312 -0.5896
14897TIP3    H266183   2.384   5.207  16.190  0.4299  1.1810 -0.1469
14898TIP3   OH266184   1.773   3.452  11.451  0.3180 -0.6071  0.5273
14898TIP3    H166185   1.741   3.480  11.365  2.3521 -1.8597 -0.6777
14898TIP3    H266186   1.702   3.474  11.512 -2.2084 -1.9778 -1.8332
14899TIP3   OH266187   3.692   6.327   2.978 -0.6540  0.3206  0.6362
14899TIP3    H166188   3.688   6.423   2.977  0.5846  0.3984  2.0421
14899TIP3    H266189   3.699   6.303   2.886 -1.3939  1.5686  0.2446
14900TIP3   OH266190   0.300   4.631   0.323 -0.0947  0.3418 -0.0036
14900TIP3    H166191   0.254   4.715   0.315  0.4449  0.5912 -0.5445
14900TIP3    H266192   0.240   4.567   0.285 -0.1570  0.6138 -0.3653
14901TIP3   OH266193   6.621   5.273  11.086 -1.0307 -0.0315  0.2507
14901TIP3    H166194   6.645   5.362  11.112 -2.1580  0.0640  0.9967
14901TIP3    H266195   6.702   5.236  11.050 -0.3314  1.0004  0.7386
14902TIP3   OH266196   2.510   0.471  11.044 -0.2301  0.1089 -0.1846
14902TIP3    H166197   2.536   0.563  11.042 -0.6878  0.2770  0.8598
14902TIP3    H266198   2.416   0.474  11.061 -0.0819 -0.5608  0.7791
14903TIP3   OH266199   2.766   1.485   0.171 -0.5000 -0.3859  0.7008
14903TIP3    H166200   2.783   1.578   0.182  2.9108 -0.9736  0.9507
14903TIP3    H266201   2.687   1.481   0.116  0.4756  2.6132 -1.0129
14904TIP3   OH266202   5.899   4.033   6.317  0.2185 -0.6356 -0.4449
14904TIP3    H166203   5.821   4.000   6.361  1.2058  0.3089  2.1726
14904TIP3    H266204   5.955   4.064   6.389  2.7164 -0.7095 -2.2939
14905TIP3   OH266205   3.111   3.000  11.497  0.1508  0.3093 -0.1713
14905TIP3    H166206   3.019   2.993  11.473  0.0157  1.8576 -0.1158
14905TIP3    H266207   3.150   2.919  11.464 -0.7031  0.8365 -2.5972
14906TIP3   OH266208   0.172   4.024  15.910 -0.3562 -0.7029  0.1161
14906TIP3    H166209   0.247   3.967  15.927  0.9615  1.0931  0.5228
14906TIP3    H266210   0.178   4.092  15.978 -1.9364 -0.1269 -0.2878
14907TIP3   OH266211   4.516   1.288  16.677 -0.1388 -0.5509 -0.3630
14907TIP3    H166212   4.549   1.370  16.714 -2.0260  0.1684 -0.1930
14907TIP3    H266213   4.513   1.228  16.751  1.0701 -0.7180 -0.4453
14908TIP3   OH266214   4.382   2.490  15.622 -0.3021  0.0999  0.3783
14908TIP3    H166215   4.428   2.494  15.539 -2.9503 -2.4020 -1.3175
14908TIP3    H266216   4.439   2.439  15.679 -0.0061 -1.1808 -1.0290
14909TIP3   OH266217   4.188   5.316  10.683 -0.1704 -0.2774 -0.6045
14909TIP3    H166218   4.227   5.235  10.648 -0.4464 -0.1138 -1.3049
14909TIP3    H266219   4.094   5.299  10.682 -0.3319  0.6004 -2.1706
14910TIP3   OH266220   2.151   4.381  17.261  0.4092  0.7104 -0.4817
14910TIP3    H166221   2.087   4.382  17.332  0.9242  0.9077 -0.0093
14910TIP3    H266222   2.118   4.445  17.198 -0.1090  0.4540 -0.4749
14911TIP3   OH266223   1.350   4.087  17.108  0.7527  0.0092 -0.1963
14911TIP3    H166224   1.427   4.137  17.135  1.6401 -1.1835 -0.4637
14911TIP3    H266225   1.369   4.060  17.018 -1.1056  1.8517 -1.1754
14912TIP3   OH266226   0.503   4.888   4.991 -0.5119 -0.0557 -0.2491
14912TIP3    H166227   0.555   4.923   5.064  0.8440 -0.7279 -0.8680
14912TIP3    H266228   0.413   4.895   5.021 -0.0615  0.9562  0.9417
14913TIP3   OH266229   3.727   2.748   0.737 -0.3782  0.0784  0.5624
14913TIP3    H166230   3.761   2.708   0.817  1.2238 -0.1315 -0.2011
14913TIP3    H266231   3.782   2.825   0.723 -1.0989  0.5065  0.0477
14914TIP3   OH266232   1.368   4.718  16.342 -0.3676  0.2600 -0.4215
14914TIP3    H166233   1.367   4.669  16.424  1.8273  1.4063  0.3380
14914TIP3    H266234   1.349   4.653  16.274 -0.4838 -1.0261  0.8238
14915TIP3   OH266235   5.521   2.898  15.839 -0.9597 -0.4005  0.3864
14915TIP3    H166236   5.519   2.922  15.746  0.1986 -0.4849  0.3306
14915TIP3    H266237   5.577   2.821  15.842 -1.9354 -1.0898  1.0135
14916TIP3   OH266238   1.032   3.444  14.196  0.2664  0.1334 -0.7372
14916TIP3    H166239   1.108   3.393  14.165  0.7868  0.0129  0.7137
14916TIP3    H266240   1.052   3.464  14.287 -1.1623  0.6649 -0.5285
14917TIP3   OH266241   6.607   0.128  15.665  0.3515 -0.7411  0.6532
14917TIP3    H166242   6.623   0.209  15.714 -0.9240 -0.8384  1.2541
14917TIP3    H266243   6.518   0.103  15.689 -0.2786 -0.8323 -1.6653
14918TIP3   OH266244   6.614   2.065   4.308 -0.2322 -0.2404 -0.4041
14918TIP3    H166245   6.593   2.133   4.372  0.3719  0.0869 -0.5543
14918TIP3    H266246   6.537   2.061   4.251 -0.1149  0.5904 -0.6306
14919TIP3   OH266247   1.519   2.469  17.084  0.2805  0.0228 -0.0586
14919TIP3    H166248   1.549   2.380  17.103  0.7525  0.1113 -0.3938
14919TIP3    H266249   1.425   2.466  17.102  0.8241  0.3235  3.0872
14920TIP3   OH266250   0.404   4.297  11.748  0.2990  0.2249  0.2852
14920TIP3    H166251   0.485   4.346  11.732 -0.3585  1.8556  1.8409
14920TIP3    H266252   0.426   4.234  11.816  0.5273 -0.0975 -0.0786
14921TIP3   OH266253   3.851   5.342   1.037  0.0654 -0.5323  0.9354
14921TIP3    H166254   3.819   5.272   0.979 -0.1190 -0.4793  0.9736
14921TIP3    H266255   3.799   5.419   1.013 -2.0097 -1.1801  3.0782
14922TIP3   OH266256   2.217   2.128   4.043  0.7776  0.5423  0.4216
14922TIP3    H166257   2.298   2.173   4.018 -0.6711  1.9770 -1.9049
14922TIP3    H266258   2.219   2.045   3.995  1.5970 -0.1493  1.6267
14923TIP3   OH266259   0.035   2.317   0.530 -0.4091  0.2173 -0.3537
14923TIP3    H166260   0.120   2.277   0.550 -0.9908 -1.2314 -0.7509
14923TIP3    H266261  -0.015   2.309   0.611 -0.4180  0.4310 -0.3378
14924TIP3   OH266262   6.664   3.111   2.772  0.4105 -0.2161  0.0282
14924TIP3    H166263   6.615   3.124   2.691 -0.6284  1.8469  0.9545
14924TIP3    H266264   6.635   3.025   2.804  0.3887 -0.7712 -1.4789
14925TIP3   OH266265   2.005   5.422  13.999  0.2497 -0.5224  0.0241
14925TIP3    H166266   2.001   5.514  13.975  2.0278 -0.6152 -0.7226
14925TIP3    H266267   1.914   5.397  14.013 -0.2806  1.2406 -0.1343
14926TIP3   OH266268   0.052   5.749   2.773  0.1311  0.0701 -0.2868
14926TIP3    H166269  -0.031   5.786   2.803 -0.2004  0.5308 -1.7483
14926TIP3    H266270   0.028   5.662   2.741  0.4009 -0.2158  0.2782
14927TIP3   OH266271   5.821   6.629  13.894 -0.0193  0.2356  0.6718
14927TIP3    H166272   5.845   6.541  13.924 -0.4743  0.2949  1.1999
14927TIP3    H266273   5.873   6.641  13.814  1.0730  0.0254  1.3356
14928TIP3   OH266274   1.450   4.905   2.348  0.6640 -0.0847  0.3051
14928TIP3    H166275   1.474   4.978   2.291  1.7913 -0.0312  0.8368
14928TIP3    H266276   1.411   4.841   2.289  0.9860  0.3459 -0.3939
14929TIP3   OH266277   0.290   3.175   4.834  0.6795  0.5403  0.1051
14929TIP3    H166278   0.333   3.094   4.861  1.0515  0.2965 -1.1846
14929TIP3    H266279   0.233   3.198   4.907  2.6065  0.5929  1.6426
14930TIP3   OH266280   4.319   1.447  16.455  0.1245  0.4224 -0.4805
14930TIP3    H166281   4.282   1.432  16.542 -0.2079 -1.3815 -0.9072
14930TIP3    H266282   4.254   1.411  16.395  1.8418 -1.3918 -1.3112
14931TIP3   OH266283   3.144   0.367   3.863 -0.0765  0.3016 -0.1148
14931TIP3    H166284   3.069   0.326   3.906  0.9945 -1.0202  0.5445
14931TIP3    H266285   3.151   0.453   3.903 -0.4808 -0.0505  0.7263
14932TIP3   OH266286   4.042   0.649  11.358 -0.0561 -0.2268  0.2799
14932TIP3    H166287   4.087   0.733  11.369  1.3862 -0.9366 -0.0399
14932TIP3    H266288   4.015   0.647  11.266 -0.4450  0.0599  0.3882
14933TIP3   OH266289   3.440   4.342   1.382  0.0473  0.3990  0.1685
14933TIP3    H166290   3.384   4.294   1.443 -1.6722  0.7385 -1.0962
14933TIP3    H266291   3.445   4.285   1.305 -2.7060  2.5365 -1.6879
14934TIP3   OH266292   5.747   3.018  11.758 -0.0877 -0.4174 -0.3822
14934TIP3    H166293   5.679   2.970  11.710 -0.0820  0.6804 -1.5206
14934TIP3    H266294   5.814   3.036  11.693  0.3926  0.2141  0.2858
14935TIP3   OH266295   0.051   4.484  12.170 -0.6434  0.1716  0.1974
14935TIP3    H166296   0.134   4.531  12.162 -0.4206 -0.4530 -1.4859
14935TIP3    H266297  -0.008   4.546  12.212  0.6141  0.7079  1.1980
14936TIP3   OH266298   0.503   0.867  14.007  0.1154 -0.0104 -0.4711
14936TIP3    H166299   0.589   0.831  14.029  0.0668 -0.8441 -1.6147
14936TIP3    H266300   0.481   0.827  13.923 -1.0874  0.7298 -0.5173
14937TIP3   OH266301   2.593   3.421   5.300  0.2915  0.1883 -0.0013
14937TIP3    H166302   2.544   3.353   5.346  1.5683  0.7336  2.2481
14937TIP3    H266303   2.617   3.381   5.217 -1.8486 -0.9141 -0.1253
14938TIP3   OH266304   6.353   0.715   0.742  0.2612  0.6716 -0.8317
14938TIP3    H166305   6.373   0.808   0.755  1.6626  0.4285 -1.1930
14938TIP3    H266306   6.421   0.669   0.791  1.0197 -0.1765 -2.6301
14939TIP3   OH266307   6.572   0.895   5.063  0.3328 -0.7940 -0.1870
14939TIP3    H166308   6.479   0.902   5.087  0.6469 -3.1627  1.9486
14939TIP3    H266309   6.615   0.963   5.113 -0.1289 -0.2114 -0.5676
14940TIP3   OH266310   2.451   2.642   4.549 -0.0607  0.0717  0.0718
14940TIP3    H166311   2.504   2.698   4.606  2.4090  0.1309 -2.1760
14940TIP3    H266312   2.434   2.695   4.472  0.4589 -1.4915 -1.1497
14941TIP3   OH266313   1.563   6.578  14.678  0.1649 -0.0778  0.2553
14941TIP3    H166314   1.523   6.655  14.639 -0.4036  0.9388  2.7659
14941TIP3    H266315   1.524   6.504  14.632 -0.9212  1.0672 -0.6798
14942TIP3   OH266316   5.792   3.107  11.151 -0.1058 -0.1739 -0.3522
14942TIP3    H166317   5.837   3.040  11.100 -0.4276  0.0070 -0.8777
14942TIP3    H266318   5.699   3.093  11.132 -0.1088  1.1237 -1.3274
14943TIP3   OH266319   6.358   5.350  16.495 -0.5192 -0.3072 -0.4943
14943TIP3    H166320   6.340   5.444  16.487 -1.6732 -0.4272  0.5213
14943TIP3    H266321   6.401   5.342  16.581 -2.4366 -0.9746  0.4307
14944TIP3   OH266322   3.779   3.975   4.408 -0.0875  0.2628 -0.0042
14944TIP3    H166323   3.711   4.032   4.373 -0.8215  0.4367  1.6607
14944TIP3    H266324   3.734   3.918   4.470  0.5723 -2.3908 -1.8626
14945TIP3   OH266325   1.349   6.039   4.753 -0.1325  0.0316 -0.6366
14945TIP3    H166326   1.442   6.020   4.743  0.2091  1.2044  0.1654
14945TIP3    H266327   1.329   6.100   4.682  0.4598  2.2239  1.0341
14946TIP3   OH266328   1.159   5.968  15.116  0.0614 -0.2467 -0.0929
14946TIP3    H166329   1.152   5.881  15.077  2.6512 -0.3009 -0.5357
14946TIP3    H266330   1.173   5.951  15.210  0.1933 -0.3001 -0.1227
14947TIP3   OH266331   6.066   1.384   4.002  0.4420  0.3844  0.0786
14947TIP3    H166332   6.143   1.434   4.028  1.6492 -0.9780 -0.8151
14947TIP3    H266333   6.001   1.403   4.070  0.4840  3.9720 -0.7696
14948TIP3   OH266334   0.269   3.752  13.133  0.1843  0.5505  0.0222
14948TIP3    H166335   0.359   3.766  13.103 -0.1346  1.7555 -0.4130
14948TIP3    H266336   0.275   3.679  13.195  1.5281  0.9199  0.3434
14949TIP3   OH266337   0.753   1.286   3.914 -0.3860 -0.5866 -0.0258
14949TIP3    H166338   0.761   1.362   3.971 -1.2357  0.7085 -1.5950
14949TIP3    H266339   0.699   1.224   3.964 -1.1083  0.5124  0.5779
14950TIP3   OH266340   4.007   2.372  11.939  0.0343  0.0172 -0.1041
14950TIP3    H166341   4.024   2.400  11.849 -0.7735 -1.7958 -0.8547
14950TIP3    H266342   3.950   2.440  11.975  1.3358  1.3761 -0.5502
14951TIP3   OH266343   2.628   6.089  15.354  0.1810  0.2333  0.2409
14951TIP3    H166344   2.707   6.095  15.301 -1.0855  0.2909 -1.7401
14951TIP3    H266345   2.571   6.029  15.305 -1.4565  1.1411  0.9650
14952TIP3   OH266346   5.323   1.005   5.735 -0.4682  0.2318 -0.5262
14952TIP3    H166347   5.370   0.941   5.682  0.7535  0.3130  0.4351
14952TIP3    H266348   5.377   1.016   5.813 -2.0661  0.3517  0.5945
14953TIP3   OH266349   6.403   3.190  16.617  0.3828  0.8907 -0.0671
14953TIP3    H166350   6.367   3.262  16.567 -0.7997 -0.8813 -1.8254
14953TIP3    H266351   6.327   3.145  16.653  0.9696 -0.9362 -1.0598
14954TIP3   OH266352   4.569   4.745   2.039 -0.5307  1.0794  0.7034
14954TIP3    H166353   4.560   4.657   2.075  2.6477  0.3004 -0.2383
14954TIP3    H266354   4.518   4.801   2.097 -0.9526 -1.1073  2.4735
14955TIP3   OH266355   4.509   0.793  15.381 -0.0251  0.4444  0.3195
14955TIP3    H166356   4.551   0.879  15.385 -2.0770  1.5092 -0.2083
14955TIP3    H266357   4.448   0.799  15.307 -0.5483 -1.3037  0.5804
14956TIP3   OH266358   2.916   5.205  11.900 -0.4602  0.3780  0.3421
14956TIP3    H166359   2.938   5.181  11.990 -0.5482 -0.3546  0.1659
14956TIP3    H266360   2.971   5.149  11.846  0.2686  1.4536 -0.0647
14957TIP3   OH266361   1.477   0.192  12.712  0.2108 -0.0840  0.0443
14957TIP3    H166362   1.492   0.278  12.752 -0.8214 -0.3515  1.0364
14957TIP3    H266363   1.561   0.169  12.673  0.8873  0.7594  0.9724
14958TIP3   OH266364   2.196   1.045  16.032  0.4255 -0.0642  0.2136
14958TIP3    H166365   2.247   0.964  16.027  0.8682  0.2083  0.3379
14958TIP3    H266366   2.128   1.026  16.097 -0.8685 -1.1158 -1.4171
14959TIP3   OH266367   5.620   1.900  11.268 -0.5286 -0.2298 -0.1658
14959TIP3    H166368   5.693   1.961  11.260 -1.0816  0.6279  1.2082
14959TIP3    H266369   5.563   1.922  11.194 -1.2562  1.6783  0.9226
14960TIP3   OH266370   4.367   5.833   6.143  0.5160  0.5139  0.6589
14960TIP3    H166371   4.332   5.762   6.090  0.6977  0.5851  0.4412
14960TIP3    H266372   4.407   5.892   6.079  0.3593  0.8145  0.8372
14961TIP3   OH266373   2.933   0.884   5.518 -0.1138 -0.4034  0.2164
14961TIP3    H166374   2.984   0.901   5.597 -0.5210  1.6897  0.0465
14961TIP3    H266375   2.902   0.794   5.529  0.1750 -0.2805  2.2503
14962TIP3   OH266376   5.952   6.690   0.288  0.2860 -0.3952  0.0266
14962TIP3    H166377   5.864   6.671   0.254  0.5692 -0.0266 -0.9217
14962TIP3    H266378   6.011   6.657   0.221  0.8295  1.5219 -0.4717
14963TIP3   OH266379   0.625   6.808   1.888  0.3815  0.4320  0.0974
14963TIP3    H166380   0.660   6.722   1.906  0.5504  0.6513  0.8184
14963TIP3    H266381   0.701   6.863   1.870  0.2609  0.3808 -0.6201
14964TIP3   OH266382   1.452   1.447   3.882 -0.0381  0.6541 -0.5054
14964TIP3    H166383   1.498   1.498   3.815 -0.8134  2.4923  0.3292
14964TIP3    H266384   1.474   1.491   3.965 -1.0642 -0.1149  0.1878
14965TIP3   OH266385   0.615   2.239  13.888  0.3275 -0.8967 -0.0728
14965TIP3    H166386   0.640   2.235  13.981  2.2322 -0.6347 -0.5542
14965TIP3    H266387   0.545   2.173  13.880 -1.6741  0.8709  2.0553
14966TIP3   OH266388   0.037   4.539   2.190  0.2985  0.7837 -0.2456
14966TIP3    H166389   0.125   4.523   2.154  0.7611  3.3112 -0.3404
14966TIP3    H266390   0.051   4.544   2.284 -0.2565 -1.7489  0.0077
14967TIP3   OH266391   6.641   2.330  14.418 -0.1176 -0.0988 -0.2730
14967TIP3    H166392   6.704   2.375  14.362  0.3036  0.9691  1.0383
14967TIP3    H266393   6.686   2.251  14.448 -0.6608 -1.1556 -2.1271
14968TIP3   OH266394   3.726   4.587  16.985 -0.9064 -0.2706  0.6693
14968TIP3    H166395   3.646   4.624  16.950 -0.2710 -0.5961 -1.1710
14968TIP3    H266396   3.769   4.546  16.910  1.0781  0.0819  1.5805
14969TIP3   OH266397   3.759   2.966  16.015  0.3645 -0.7142  0.2038
14969TIP3    H166398   3.763   3.017  15.934  0.4960 -1.9847 -0.6083
14969TIP3    H266399   3.850   2.956  16.042  0.2837  0.2227  0.8472
14970TIP3   OH266400   5.837   4.083   0.296 -0.4039 -0.3001  0.2752
14970TIP3    H166401   5.854   4.151   0.361 -0.0373  0.7361 -0.8813
14970TIP3    H266402   5.814   4.131   0.217 -1.2211 -1.5557 -0.2709
14971TIP3   OH266403   3.824   1.334  16.689 -0.0672  0.0229  0.2515
14971TIP3    H166404   3.873   1.366  16.613  0.5173  0.4611  0.8088
14971TIP3    H266405   3.811   1.241  16.671 -0.5789  0.2777 -0.7272
14972TIP3   OH266406   3.323   1.608   3.063 -0.0575  0.0415 -0.3309
14972TIP3    H166407   3.399   1.550   3.058 -0.9687 -1.0999 -1.2804
14972TIP3    H266408   3.248   1.550   3.053 -1.1287  0.9901  1.8616
14973TIP3   OH266409   3.166   2.534   4.299  0.3116  0.3171 -0.1799
14973TIP3    H166410   3.193   2.444   4.284 -1.1450 -0.1703  0.0571
14973TIP3    H266411   3.148   2.569   4.212  0.8957  0.3943 -0.2730
14974TIP3   OH266412   4.307   0.757  12.541  0.0845 -0.0658 -0.6587
14974TIP3    H166413   4.325   0.769  12.448 -0.2845 -1.6423 -0.9459
14974TIP3    H266414   4.236   0.693  12.544  0.5523 -0.5435  0.7231
14975TIP3   OH266415   4.040   3.205  15.272 -0.3729  0.5522 -0.4404
14975TIP3    H166416   4.006   3.294  15.264  0.0831  0.8317  0.6260
14975TIP3    H266417   4.042   3.189  15.366  1.7696  0.2911 -0.5006
14976TIP3   OH266418   0.455   6.534  15.367  0.6261 -0.1053  0.2938
14976TIP3    H166419   0.475   6.612  15.314 -1.1289 -1.6356 -2.7095
14976TIP3    H266420   0.426   6.570  15.451 -2.5199  2.6545 -1.8152
14977TIP3   OH266421   0.795   2.391   4.592 -0.0277 -0.3870 -0.0860
14977TIP3    H166422   0.816   2.485   4.595 -0.7844 -0.1773 -1.1369
14977TIP3    H266423   0.701   2.388   4.577 -0.2243 -1.3279  1.2502
14978TIP3   OH266424   3.420   4.708   2.930  1.1700 -0.0730  0.2708
14978TIP3    H166425   3.327   4.725   2.914  1.2931 -0.4343 -0.9006
14978TIP3    H266426   3.429   4.711   3.025 -0.2092 -0.8432  0.4471
14979TIP3   OH266427   5.546   4.087  16.161 -0.1904  0.3924 -0.8916
14979TIP3    H166428   5.584   4.059  16.078 -0.0865  1.6889 -1.2818
14979TIP3    H266429   5.457   4.113  16.140 -0.2926  0.3512 -0.5232
14980TIP3   OH266430   6.164   5.726   1.292  0.0323 -0.5876 -0.4261
14980TIP3    H166431   6.077   5.686   1.299 -0.4379  0.7029  1.3870
14980TIP3    H266432   6.147   5.813   1.256  0.3965  0.1806  1.1982
14981TIP3   OH266433   5.940   0.111   3.575 -0.8066 -0.3573 -0.1741
14981TIP3    H166434   5.991   0.118   3.494  1.0527 -0.5770  0.9436
14981TIP3    H266435   6.006   0.110   3.645 -2.2416 -2.6287  1.2130
14982TIP3   OH266436   0.718   3.002   3.202 -0.5197  0.0636  0.0191
14982TIP3    H166437   0.762   3.080   3.236 -0.0694  0.1660 -0.7840
14982TIP3    H266438   0.784   2.933   3.210 -0.0286  0.3156 -1.6280
14983TIP3   OH266439   4.607   3.098   4.230  0.1084  0.0511 -0.2421
14983TIP3    H166440   4.573   3.010   4.245 -0.4233 -0.1070 -2.2318
14983TIP3    H266441   4.544   3.156   4.273 -1.8071 -0.3348 -2.4292
14984TIP3   OH266442   1.728   6.058   2.264 -0.8514 -0.5987  0.0122
14984TIP3    H166443   1.813   6.073   2.304 -0.7642 -1.0261 -0.0205
14984TIP3    H266444   1.719   5.963   2.259 -0.9662 -0.5520 -0.7580
14985TIP3   OH266445   1.043   5.013  11.691  0.3872  0.4823  0.2534
14985TIP3    H166446   0.977   5.075  11.720  0.6430  1.5589 -1.3967
14985TIP3    H266447   1.008   4.927  11.716 -0.5174  1.1904  1.4796
14986TIP3   OH266448   3.187   0.711  15.669 -0.0772 -0.0277 -0.3404
14986TIP3    H166449   3.142   0.642  15.621 -0.1435  1.6425 -2.8002
14986TIP3    H266450   3.160   0.792  15.625  1.3447  1.4149  1.3656
14987TIP3   OH266451   3.670   4.992   2.647 -0.5978  0.0329  0.5605
14987TIP3    H166452   3.720   4.915   2.621  0.3487  0.4739  1.0152
14987TIP3    H266453   3.583   4.959   2.668 -0.1013 -0.9660  1.0861
14988TIP3   OH266454   3.683   3.081   2.356  0.1687  0.2411 -0.3320
14988TIP3    H166455   3.678   2.986   2.341 -1.3187  0.0150  1.4938
14988TIP3    H266456   3.594   3.107   2.377  0.6085  2.0354 -0.6266
14989TIP3   OH266457   2.381   6.293  12.301 -0.2480 -0.3160  0.3279
14989TIP3    H166458   2.423   6.292  12.387  0.6307 -0.1914 -0.0930
14989TIP3    H266459   2.300   6.341  12.315 -1.2158 -2.2456  1.5912
14990TIP3   OH266460   4.001   0.969  15.681 -0.0406  0.1597  0.5232
14990TIP3    H166461   3.973   0.926  15.601  2.1876 -0.9077  0.2647
14990TIP3    H266462   4.039   0.899  15.734  1.0172  1.3176  1.3191
14991TIP3   OH266463   6.214   1.006   1.744  0.2983  0.1213 -0.7452
14991TIP3    H166464   6.267   1.029   1.820  0.6943 -0.1787 -0.9281
14991TIP3    H266465   6.269   0.947   1.693 -0.5974 -1.0134 -0.4187
14992TIP3   OH266466   0.657   3.555  14.228 -0.5983  0.2107 -0.2185
14992TIP3    H166467   0.621   3.492  14.291  0.1196  0.6604  0.6620
14992TIP3    H266468   0.582   3.581  14.175 -1.2817  0.0380  0.6435
14993TIP3   OH266469   3.253   5.830   5.046  0.5682 -0.8604  0.1382
14993TIP3    H166470   3.291   5.910   5.081 -2.8977  0.8663  0.1341
14993TIP3    H266471   3.204   5.792   5.119 -1.8283 -0.3522 -1.1368
14994TIP3   OH266472   5.834   5.496   2.494  0.2622 -0.1963  0.0990
14994TIP3    H166473   5.793   5.581   2.513  0.2813  0.2644 -1.8803
14994TIP3    H266474   5.891   5.481   2.569 -0.0150  1.3691  0.6543
14995TIP3   OH266475   3.430   4.859   1.611 -0.0149  0.6023 -0.1962
14995TIP3    H166476   3.350   4.899   1.577  1.4568  1.7182 -2.5410
14995TIP3    H266477   3.488   4.934   1.627  0.6671 -0.2104  1.1628
14996TIP3   OH266478   1.883   1.339   5.510  0.0435 -0.3301 -0.1823
14996TIP3    H166479   1.954   1.380   5.559 -0.1114  0.4873 -0.6455
14996TIP3    H266480   1.884   1.383   5.425 -0.8964 -0.4512 -0.2585
14997TIP3   OH266481   0.489   3.664   0.987  0.0838 -0.0194 -0.0788
14997TIP3    H166482   0.576   3.626   0.984  0.0739 -0.1933  1.8191
14997TIP3    H266483   0.440   3.609   1.047 -0.8002  1.1880  0.3211
14998TIP3   OH266484   0.142   2.016  11.817 -0.1827  0.0434 -0.3394
14998TIP3    H166485   0.076   2.080  11.789  0.0153  0.3188 -0.1776
14998TIP3    H266486   0.165   2.042  11.906 -1.0851 -1.0605  0.2196
14999TIP3   OH266487   2.361   4.040   3.177 -0.3410  0.3333 -0.0610
14999TIP3    H166488   2.430   4.023   3.241 -2.0648 -0.1014  1.6790
14999TIP3    H266489   2.315   3.957   3.168 -1.9464  1.1778  0.3351
15000TIP3   OH266490   0.467   3.183   2.426  0.5169  0.2122 -0.6373
15000TIP3    H166491   0.374   3.160   2.418  0.1424  2.0242 -1.6391
15000TIP3    H266492   0.508   3.103   2.461 -1.4087 -0.5899 -0.1283
15001TIP3   OH266493   3.875   5.135  14.007 -0.1603 -0.1441 -0.1388
15001TIP3    H166494   3.812   5.084  13.955 -0.1302  0.1607 -0.4714
15001TIP3    H266495   3.820   5.180  14.072 -0.0978 -1.2792  0.7176
15002TIP3   OH266496   0.443   5.144  15.050 -0.5603 -0.7870 -0.2135
15002TIP3    H166497   0.530   5.108  15.030 -0.3954 -0.0479 -0.8356
15002TIP3    H266498   0.460   5.231  15.085 -1.1202 -0.0107 -1.8363
15003TIP3   OH266499   0.641   5.495  11.436  0.3131  0.5704 -0.3098
15003TIP3    H166500   0.635   5.513  11.530  0.0720  1.4137 -0.4800
15003TIP3    H266501   0.556   5.458  11.413  0.2739  0.6175 -0.2429
15004TIP3   OH266502   2.345   5.655   5.988  0.6018 -0.7800  0.2368
15004TIP3    H166503   2.325   5.745   6.013 -2.8299 -1.5319  0.4601
15004TIP3    H266504   2.396   5.663   5.908  2.3124  1.3973  1.4965
15005TIP3   OH266505   3.409   6.324   3.709  0.0876 -0.0132  0.4942
15005TIP3    H166506   3.419   6.235   3.742 -0.2654  0.1138  0.9444
15005TIP3    H266507   3.320   6.349   3.732  0.4475  0.7464  1.0933
15006TIP3   OH266508   2.087   4.106  15.387  0.3083 -0.3339  0.6966
15006TIP3    H166509   2.110   4.166  15.316  0.6117 -0.2923  0.8316
15006TIP3    H266510   2.001   4.135  15.417 -0.1084 -0.7430 -0.0849
15007TIP3   OH266511   5.212   0.741   4.912 -0.1672 -0.1606  0.4730
15007TIP3    H166512   5.230   0.750   4.818 -0.9178 -0.0393  0.3329
15007TIP3    H266513   5.214   0.647   4.928  0.8325 -0.1314  0.5153
15008TIP3   OH266514   0.609   0.795   2.606  0.3802  0.4147 -0.5300
15008TIP3    H166515   0.552   0.728   2.643  1.9302  0.0144  1.2014
15008TIP3    H266516   0.661   0.749   2.540 -0.7185  0.6064 -1.5400
15009TIP3   OH266517   3.350   5.002  14.765 -0.4469 -0.9699 -0.8430
15009TIP3    H166518   3.279   4.966  14.817 -0.6856 -1.9598 -1.8274
15009TIP3    H266519   3.306   5.052  14.695 -0.1866 -1.4357 -1.3476
15010TIP3   OH266520   5.034   5.897  12.246  0.6366 -0.0359 -0.8746
15010TIP3    H166521   5.114   5.882  12.295  0.5912 -1.0484 -1.1085
15010TIP3    H266522   4.966   5.850  12.295  0.7498 -1.8033 -2.3746
15011TIP3   OH266523   4.051   0.770   5.313 -0.5376 -0.4537  0.0450
15011TIP3    H166524   4.053   0.731   5.225 -0.2128  0.9708 -0.6025
15011TIP3    H266525   4.136   0.749   5.350 -0.9101 -1.5955  0.2610
15012TIP3   OH266526   2.526   6.017   0.371  0.3257  0.1771  0.2903
15012TIP3    H166527   2.440   6.057   0.367 -0.2183 -0.8091  1.7924
15012TIP3    H266528   2.587   6.090   0.357 -0.6554  1.4587  2.5087
15013TIP3   OH266529   4.991   4.517  17.246  0.3732  0.3942  0.4093
15013TIP3    H166530   5.008   4.535  17.339  1.7672 -0.2301  0.3001
15013TIP3    H266531   5.074   4.480  17.214 -1.1330 -2.5854 -0.2449
15014TIP3   OH266532   0.353   1.635   5.760  0.4038 -0.0111  0.1396
15014TIP3    H166533   0.417   1.570   5.731 -1.3866 -2.3180  1.1457
15014TIP3    H266534   0.268   1.597   5.737 -0.7659  1.1461  2.3279
15015TIP3   OH266535   6.098   4.559   1.125 -0.9126 -0.2692 -0.2500
15015TIP3    H166536   6.193   4.544   1.123 -0.9827 -0.6704 -0.3929
15015TIP3    H266537   6.089   4.652   1.104 -0.4032  0.3751  2.1792
15016TIP3   OH266538   3.573   3.684   5.222 -0.1102  0.2345 -0.2777
15016TIP3    H166539   3.502   3.739   5.254  1.0062  1.0440  0.8282
15016TIP3    H266540   3.620   3.657   5.301  0.6664 -0.5175 -0.9827
15017TIP3   OH266541   4.602   1.908   3.585  0.2427 -0.0282  0.0655
15017TIP3    H166542   4.604   2.003   3.589  1.5532 -0.0942  1.5100
15017TIP3    H266543   4.509   1.885   3.581 -0.0352  1.3640 -2.3482
15018TIP3   OH266544   5.456   4.572   0.071 -0.1330  0.3719 -0.1617
15018TIP3    H166545   5.381   4.593   0.127 -1.2321 -4.0844  0.2414
15018TIP3    H266546   5.528   4.561   0.133 -0.7021 -1.7723  0.1598
15019TIP3   OH266547   0.647   4.043   2.787  0.0081  0.2670 -0.7793
15019TIP3    H166548   0.698   4.123   2.778 -1.4683  1.2337 -0.7216
15019TIP3    H266549   0.556   4.071   2.777 -0.6500 -1.1177  1.0386
15020TIP3   OH266550   5.106   4.207  16.307  0.3733 -0.8245  0.1505
15020TIP3    H166551   5.093   4.156  16.228  0.2338 -0.3188 -0.1553
15020TIP3    H266552   5.192   4.248  16.296 -0.3621  0.5829 -0.4951
15021TIP3   OH266553   1.476   2.179  12.272  0.6268  0.2754 -0.3173
15021TIP3    H166554   1.457   2.266  12.234  1.9574  2.0392  2.8782
15021TIP3    H266555   1.567   2.162  12.248  1.7040  1.7264  2.5694
15022TIP3   OH266556   2.651   6.603   4.441 -0.3028 -0.7221 -0.7677
15022TIP3    H166557   2.649   6.521   4.489  0.0665 -0.3293 -0.0784
15022TIP3    H266558   2.733   6.599   4.391 -0.3742 -0.8518 -0.8747
15023TIP3   OH266559   5.212   5.446  15.593  0.2924  0.0619 -0.5748
15023TIP3    H166560   5.188   5.440  15.500 -0.5686  1.6012 -0.4718
15023TIP3    H266561   5.299   5.406  15.598  0.5584  0.3944 -2.1300
15024TIP3   OH266562   0.426   0.185  12.326 -0.1373 -0.4487 -0.0867
15024TIP3    H166563   0.442   0.158  12.236  1.6084 -1.4696  0.5059
15024TIP3    H266564   0.360   0.124  12.359 -1.0276  0.1329 -0.7385
15025TIP3   OH266565   2.746   3.186   5.960  0.3100  0.1746  0.3877
15025TIP3    H166566   2.731   3.278   5.937 -1.7027  0.6392  3.2556
15025TIP3    H266567   2.659   3.146   5.957  1.2975 -1.8946 -1.7685
15026TIP3   OH266568   1.637   4.637  12.423  0.2397 -0.3476  0.5651
15026TIP3    H166569   1.575   4.590  12.368  0.4866 -2.3307  1.9357
15026TIP3    H266570   1.623   4.602  12.511 -0.4867  3.1043  1.9260
15027TIP3   OH266571   6.546   4.204   1.910  0.1371  0.2186  0.4816
15027TIP3    H166572   6.464   4.209   1.958  0.8105  1.4003  1.5513
15027TIP3    H266573   6.553   4.290   1.867  1.8351  0.9677  2.1603
15028TIP3   OH266574   4.817   2.872  15.875 -0.4035 -0.3206 -0.2612
15028TIP3    H166575   4.770   2.913  15.947 -0.5366  2.3399 -1.8180
15028TIP3    H266576   4.881   2.937  15.847 -1.0934 -0.8460 -3.2614
15029TIP3   OH266577   1.700   6.456   1.157 -0.0868  0.0664 -0.5064
15029TIP3    H166578   1.790   6.449   1.188 -0.0271  4.2071  0.6589
15029TIP3    H266579   1.706   6.507   1.076 -1.2491 -1.2424 -1.4521
15030TIP3   OH266580   6.664   6.292   6.286 -0.1556 -0.4378  0.3814
15030TIP3    H166581   6.693   6.354   6.220  0.1737  1.2165  2.0483
15030TIP3    H266582   6.569   6.292   6.279 -0.0745 -1.0438 -0.7708
15031TIP3   OH266583   2.148   2.368  17.261 -0.3088  0.2672  0.1278
15031TIP3    H166584   2.199   2.340  17.186  0.7306 -0.4006  1.0658
15031TIP3    H266585   2.151   2.464  17.258  0.9796  0.2310  0.1623
15032TIP3   OH266586   6.044   3.591   2.187 -0.4656  0.7792 -0.0015
15032TIP3    H166587   6.085   3.508   2.211  0.6323  0.7859 -1.8116
15032TIP3    H266588   6.013   3.579   2.098 -0.1689  2.3665 -0.3399
15033TIP3   OH266589   0.892   1.782  15.822 -0.0818 -0.0616  0.4298
15033TIP3    H166590   0.930   1.750  15.904  0.2037  1.5413  0.9383
15033TIP3    H266591   0.959   1.839  15.785 -0.9549  0.7114  0.0137
15034TIP3   OH266592   4.921   1.131  12.348 -0.8455  0.0036  0.3909
15034TIP3    H166593   4.915   1.127  12.444 -1.0400  0.4546  0.3999
15034TIP3    H266594   5.004   1.175  12.331 -0.2268 -1.1585  0.3356
15035TIP3   OH266595   4.803   1.183   0.343 -0.4336  0.0622 -0.6346
15035TIP3    H166596   4.734   1.239   0.379 -1.6319 -1.1983 -0.9174
15035TIP3    H266597   4.757   1.104   0.315  1.2911 -1.2896  0.2579
15036TIP3   OH266598   1.221   3.936   1.778 -0.7019  0.3151 -0.0383
15036TIP3    H166599   1.171   4.018   1.775 -0.4365  0.5366  1.0660
15036TIP3    H266600   1.202   3.901   1.865 -0.3611 -0.5159 -0.3001
15037TIP3   OH266601   2.607   3.166  11.402 -0.6740 -0.4197 -0.1946
15037TIP3    H166602   2.620   3.126  11.316 -0.0265  1.3792 -0.9606
15037TIP3    H266603   2.655   3.109  11.463  0.4896 -0.6479 -1.3009
15038TIP3   OH266604   1.574   1.449  14.945  1.0383  0.5290 -0.5260
15038TIP3    H166605   1.611   1.403  15.021  2.0497  0.3552 -1.1274
15038TIP3    H266606   1.523   1.382  14.899  1.4780  0.3168 -0.7058
15039TIP3   OH266607   6.425   2.396   3.874 -0.1890  0.3544  0.1087
15039TIP3    H166608   6.458   2.417   3.786  1.2645  0.0511  0.5642
15039TIP3    H266609   6.419   2.300   3.875 -3.6869  0.5148 -0.8638
15040TIP3   OH266610   1.059   0.587  12.691 -0.0866  0.4828  0.5296
15040TIP3    H166611   1.083   0.498  12.665  0.8187  0.1888  2.2510
15040TIP3    H266612   0.970   0.579  12.726  0.9232 -0.2686  3.0520
15041TIP3   OH266613   3.765   2.002   5.506 -0.2680  0.3625  0.0064
15041TIP3    H166614   3.827   1.969   5.571  2.4669  1.9890 -1.6449
15041TIP3    H266615   3.731   1.923   5.464 -0.2324 -0.6131  1.7479
15042TIP3   OH266616   6.257   6.055   4.449  0.1480 -0.2578  0.2764
15042TIP3    H166617   6.209   5.973   4.463 -0.1639  0.1235  1.4546
15042TIP3    H266618   6.201   6.105   4.390  0.1380 -0.7191 -0.1109
15043TIP3   OH266619   5.224   0.652  14.142 -0.9551  0.1796 -0.2040
15043TIP3    H166620   5.286   0.725  14.146 -0.5073 -0.2515  0.6573
15043TIP3    H266621   5.161   0.679  14.074  0.7494  0.1555 -1.8466
15044TIP3   OH266622   2.792   1.649   0.881  0.0066  1.0775 -1.3502
15044TIP3    H166623   2.827   1.604   0.958 -0.6333  1.8982 -0.5652
15044TIP3    H266624   2.847   1.620   0.809  0.2989 -0.0969 -0.6644
15045TIP3   OH266625   3.032   4.645  17.000 -0.4366 -0.1106  0.7127
15045TIP3    H166626   2.995   4.703  17.066 -0.1839  0.3283  0.4725
15045TIP3    H266627   3.082   4.580  17.050 -0.3490  0.1440  0.9604
15046TIP3   OH266628   2.794   1.365  16.507  0.0096 -0.1281  0.1417
15046TIP3    H166629   2.753   1.425  16.445  1.1658 -0.1514 -0.6755
15046TIP3    H266630   2.887   1.389  16.506  0.4129 -1.6044  0.1722
15047TIP3   OH266631   5.444   6.389  16.538  0.3508 -0.0627 -0.4799
15047TIP3    H166632   5.352   6.373  16.559  1.1389 -0.7603  2.8069
15047TIP3    H266633   5.445   6.473  16.493 -2.0035 -0.6323 -1.6373
15048TIP3   OH266634   1.577   5.701  13.749  0.7916 -0.2214 -0.0912
15048TIP3    H166635   1.650   5.758  13.725  2.0403  0.0690  3.9903
15048TIP3    H266636   1.499   5.749  13.724  1.9294  1.1675 -1.0215
15049TIP3   OH266637   1.213   4.186   0.146 -0.3792  0.4256 -0.1572
15049TIP3    H166638   1.270   4.120   0.187  0.8215  0.5983 -1.5221
15049TIP3    H266639   1.144   4.135   0.104 -1.3667  0.2216  1.6238
15050TIP3   OH266640   3.096   4.335  17.013 -0.4733  0.1909  0.2469
15050TIP3    H166641   3.177   4.359  16.968 -0.1918 -1.0274  0.1108
15050TIP3    H266642   3.073   4.249  16.978 -1.5833  0.3262  0.6219
15051TIP3   OH266643   3.078   4.020  15.763  0.8407 -0.5359  0.8448
15051TIP3    H166644   3.145   4.063  15.816  0.8555  0.9526 -0.3602
15051TIP3    H266645   3.125   3.985  15.687  0.2866  0.2915  0.1243
15052TIP3   OH266646   5.404   5.831  16.398 -0.3288 -0.5554 -0.4399
15052TIP3    H166647   5.398   5.925  16.382  2.9877 -0.0205  1.1098
15052TIP3    H266648   5.338   5.813  16.465 -3.1034  0.0391 -2.8895
15053TIP3   OH266649   3.349   3.640  12.892 -0.2648  0.0116 -0.1155
15053TIP3    H166650   3.415   3.704  12.918 -1.6690  0.2395  3.0348
15053TIP3    H266651   3.267   3.674  12.927 -1.2946 -2.7036  0.1885
15054TIP3   OH266652   2.360   5.383  13.951 -0.3383  0.3320  0.2750
15054TIP3    H166653   2.343   5.365  14.044  1.1499  0.1408  0.5157
15054TIP3    H266654   2.391   5.299  13.916 -0.7850  0.4332 -0.3699
15055TIP3   OH266655   4.876   0.429   5.284 -0.0618 -0.3985  0.4982
15055TIP3    H166656   4.798   0.397   5.239 -0.3263  0.2492  0.4883
15055TIP3    H266657   4.874   0.386   5.369  0.3568 -1.5062 -0.0400
15056TIP3   OH266658   0.127   4.139  16.362 -0.0562 -0.1700 -0.3238
15056TIP3    H166659   0.179   4.060  16.347  0.7440  0.2690  0.1197
15056TIP3    H266660   0.087   4.157  16.277  0.6150 -0.4516 -0.7087
15057TIP3   OH266661   1.256   2.996   2.777 -0.7164  0.3121  0.3141
15057TIP3    H166662   1.298   3.035   2.700  1.9110 -3.1488 -0.1360
15057TIP3    H266663   1.309   3.026   2.850  0.1454 -0.8176  0.1655
15058TIP3   OH266664   6.153   2.690   5.865  0.4319 -0.5025 -0.2776
15058TIP3    H166665   6.141   2.602   5.902  1.1627 -0.2823  0.5167
15058TIP3    H266666   6.204   2.736   5.931  1.4600  0.0172 -1.4167
15059TIP3   OH266667   6.671   4.283   3.884 -0.3155  0.1491 -0.0675
15059TIP3    H166668   6.653   4.347   3.814 -0.5784 -0.5402 -0.6337
15059TIP3    H266669   6.733   4.221   3.844  1.7320  1.3214  1.2013
15060TIP3   OH266670   6.764   3.934   4.102  0.4575  0.3733  0.2625
15060TIP3    H166671   6.820   3.856   4.100  0.1162  0.0800  1.5972
15060TIP3    H266672   6.681   3.906   4.065  1.3822  0.9858 -2.3653
15061TIP3   OH266673   2.870   2.432   4.929 -0.1624 -0.2582 -0.1322
15061TIP3    H166674   2.942   2.374   4.951  0.6776  0.4120 -1.0330
15061TIP3    H266675   2.903   2.520   4.948  0.1753  0.2438 -2.8345
15062TIP3   OH266676   2.816   6.536  11.677 -0.2039 -0.0170 -0.5496
15062TIP3    H166677   2.738   6.498  11.716  0.0804  0.8920  0.9413
15062TIP3    H266678   2.886   6.515  11.739  0.8135 -1.1810 -2.0679
15063TIP3   OH266679   6.446   0.735  12.362 -0.6725 -0.1152  0.2437
15063TIP3    H166680   6.487   0.705  12.280 -0.8983  1.0178 -0.2945
15063TIP3    H266681   6.352   0.723  12.347 -0.8615  2.2676 -0.5601
15064TIP3   OH266682   6.583   6.345   5.361  0.1029 -0.3252 -0.5450
15064TIP3    H166683   6.608   6.254   5.376 -0.5624 -0.8172 -2.3495
15064TIP3    H266684   6.662   6.387   5.327 -0.0780 -0.6329 -1.3371
15065TIP3   OH266685   1.590   2.327  13.343  0.1220 -0.6902  0.4245
15065TIP3    H166686   1.522   2.371  13.393  0.4227 -2.2351  2.2714
15065TIP3    H266687   1.665   2.324  13.402  1.5112  0.1192 -1.2278
15066TIP3   OH266688   5.039   0.444   3.724  0.2046 -0.2533 -0.2835
15066TIP3    H166689   5.018   0.513   3.661  1.8935 -0.8175 -1.4855
15066TIP3    H266690   4.954   0.415   3.756 -0.6995  0.0006 -2.3560
15067TIP3   OH266691   5.986   1.956  14.436  0.0311 -0.6849 -0.3891
15067TIP3    H166692   5.947   1.883  14.484 -0.0863 -0.6772 -0.4728
15067TIP3    H266693   5.945   2.034  14.473  0.3510 -0.6433 -0.1191
15068TIP3   OH266694   4.276   0.168   4.701  0.2759  0.2366 -0.0121
15068TIP3    H166695   4.263   0.142   4.792  1.3800  0.2147  0.1552
15068TIP3    H266696   4.368   0.147   4.684  0.1368  0.4683 -1.0564
15069TIP3   OH266697   2.393   0.355   2.434 -0.3650  0.4066 -0.1672
15069TIP3    H166698   2.395   0.303   2.514  0.9008 -2.5183 -2.0270
15069TIP3    H266699   2.300   0.363   2.413 -0.6051 -0.4533  0.5398
15070TIP3   OH266700   5.486   3.942  11.363 -0.0082 -0.2542 -0.2485
15070TIP3    H166701   5.493   3.926  11.457 -0.6753  1.6197  0.1447
15070TIP3    H266702   5.399   3.911  11.339  0.5472 -1.6933 -0.4767
15071TIP3   OH266703   5.220   1.013   5.076  0.1714  0.0640 -0.6358
15071TIP3    H166704   5.155   1.055   5.133  1.8149  0.7850  0.7456
15071TIP3    H266705   5.281   0.971   5.137  1.9785  0.8885 -1.8508
15072TIP3   OH266706   0.126   0.219  11.367 -0.5093 -0.2331 -0.4535
15072TIP3    H166707   0.134   0.127  11.343  0.3959 -0.3632  0.2836
15072TIP3    H266708   0.191   0.264  11.313 -2.1921  0.2471 -2.1265
15073TIP3   OH266709   4.263   2.173  15.990 -0.0975 -0.4704 -0.0292
15073TIP3    H166710   4.351   2.136  15.983  0.4014  0.6034  0.3971
15073TIP3    H266711   4.277   2.268  15.988 -1.1689 -0.2852  0.9607
15074TIP3   OH266712   6.474   4.706   4.594  0.4224 -0.0345 -0.3093
15074TIP3    H166713   6.441   4.794   4.608 -1.1531 -0.7386  0.4549
15074TIP3    H266714   6.516   4.709   4.508 -0.4678  1.2017 -0.6963
15075TIP3   OH266715   5.911   3.855  17.276 -0.3426  0.8175 -0.2323
15075TIP3    H166716   5.996   3.865  17.234  1.0722 -0.3727  2.2234
15075TIP3    H266717   5.881   3.769  17.248 -0.5119  1.0240 -0.6910
15076TIP3   OH266718   5.186   1.878   4.111  0.4584 -0.2170  0.5263
15076TIP3    H166719   5.213   1.892   4.020  1.5286 -0.0069  0.8702
15076TIP3    H266720   5.171   1.783   4.116 -0.5495 -0.0995 -0.1159
15077TIP3   OH266721   5.252   4.393   2.747 -0.4081 -0.3325 -0.0341
15077TIP3    H166722   5.170   4.367   2.706 -1.0768 -1.0854  1.7119
15077TIP3    H266723   5.258   4.338   2.825  0.4201  1.5671  1.2951
15078TIP3   OH266724   2.718   1.160  13.221 -0.0337 -0.0905 -0.4447
15078TIP3    H166725   2.719   1.222  13.148  0.3634 -0.0664 -0.4195
15078TIP3    H266726   2.759   1.081  13.185  0.3534 -0.0066 -0.1835
15079TIP3   OH266727   2.810   3.406   2.802 -0.2733  0.3164  0.2953
15079TIP3    H166728   2.847   3.318   2.802 -0.9419 -0.0041  3.1707
15079TIP3    H266729   2.725   3.397   2.757  0.1929 -0.2453 -0.4815
15080TIP3   OH266730   2.214   2.162  12.744 -0.4780 -0.8486  0.1522
15080TIP3    H166731   2.206   2.247  12.701  2.1660 -0.4901  0.3307
15080TIP3    H266732   2.250   2.182  12.830  0.8619 -2.2162 -0.0768
15081TIP3   OH266733   5.545   0.989  12.531  0.3398  0.7505 -0.0280
15081TIP3    H166734   5.476   0.970  12.595 -0.4074  0.5139 -0.8942
15081TIP3    H266735   5.599   1.056  12.574 -0.3488  0.8442  0.7183
15082TIP3   OH266736   6.300   2.787   5.190  0.2885  0.4032 -0.0365
15082TIP3    H166737   6.319   2.865   5.139 -1.5185  0.6966 -0.2856
15082TIP3    H266738   6.349   2.799   5.272  0.5108  1.5020 -0.3225
15083TIP3   OH266739   1.799   3.764   5.820 -0.7708 -0.0358 -0.0063
15083TIP3    H166740   1.822   3.827   5.889  0.1796 -1.3984  0.9468
15083TIP3    H266741   1.879   3.715   5.805 -1.7213 -1.5905 -0.1273
15084TIP3   OH266742   2.289   6.774  16.955 -0.3485  0.1390 -0.9092
15084TIP3    H166743   2.301   6.704  17.019 -2.9853 -0.2687 -0.7975
15084TIP3    H266744   2.372   6.777  16.907  0.1462 -2.4480 -0.2962
15085TIP3   OH266745   0.764   3.823   2.666 -0.5230 -0.3359 -0.0546
15085TIP3    H166746   0.718   3.902   2.695  0.1358 -0.5799  1.7154
15085TIP3    H266747   0.756   3.825   2.570 -0.3642  1.9599 -0.0667
15086TIP3   OH266748   3.450   1.185   2.413 -0.0853  0.0414  0.3070
15086TIP3    H166749   3.380   1.161   2.352 -0.2408  1.0201  0.0943
15086TIP3    H266750   3.509   1.240   2.361 -0.0724  0.6418  0.9591
15087TIP3   OH266751   1.358   5.993   5.237 -0.3499  0.3062 -0.6048
15087TIP3    H166752   1.320   6.049   5.305 -0.2298  0.4903 -0.6890
15087TIP3    H266753   1.301   6.005   5.162 -0.1247  0.5812 -0.7306
15088TIP3   OH266754   3.511   0.899  16.950 -0.3241  0.0155 -0.0062
15088TIP3    H166755   3.430   0.949  16.939 -0.0828  0.3320 -0.3534
15088TIP3    H266756   3.576   0.963  16.978 -0.1691 -0.2218  0.1827
15089TIP3   OH266757   1.788   2.411   5.948 -0.0977 -0.3266 -0.2350
15089TIP3    H166758   1.839   2.469   5.891 -1.5219 -0.4842 -1.7237
15089TIP3    H266759   1.729   2.364   5.888  0.1333 -2.3823  1.0719
15090TIP3   OH266760   4.354   4.661   6.007 -0.2026  0.3321  0.3731
15090TIP3    H166761   4.440   4.664   6.049 -0.5711  0.5522  1.1209
15090TIP3    H266762   4.303   4.729   6.051 -1.6136 -1.6212  1.8851
15091TIP3   OH266763   5.993   2.017  12.280  0.6344 -0.1126  0.2461
15091TIP3    H166764   6.081   2.051  12.266  0.1876  0.6071 -0.8958
15091TIP3    H266765   6.006   1.925  12.303  1.7099  0.1389  0.6677
15092TIP3   OH266766   4.136   6.208   3.603  0.2080 -0.0522 -0.2022
15092TIP3    H166767   4.217   6.250   3.575 -0.8730  1.3478 -1.2749
15092TIP3    H266768   4.069   6.246   3.547 -0.9965 -2.2088 -0.2527
15093TIP3   OH266769   2.354   3.198  11.126 -0.0227 -0.1637 -0.2269
15093TIP3    H166770   2.343   3.126  11.063 -0.2212  0.1328 -0.5299
15093TIP3    H266771   2.424   3.252  11.090 -0.5749  0.3601 -0.5253
15094TIP3   OH266772   3.565   4.793  11.209  0.8650 -0.2068  0.2419
15094TIP3    H166773   3.564   4.709  11.163  2.1314 -0.3250  0.4199
15094TIP3    H266774   3.495   4.844  11.168  2.2350 -0.1651 -2.1165
15095TIP3   OH266775   5.552   4.778   1.581 -0.7710  0.1191 -0.1333
15095TIP3    H166776   5.565   4.855   1.636 -1.8165 -0.3956  0.8473
15095TIP3    H266777   5.638   4.762   1.543  0.1461  0.1000  1.8636
15096TIP3   OH266778   2.436   2.888  11.912  0.0466 -0.3479  0.3586
15096TIP3    H166779   2.523   2.869  11.946  0.5146  2.1998  0.7107
15096TIP3    H266780   2.376   2.853  11.977  0.8862  0.7046  1.7286
15097TIP3   OH266781   4.752   0.800  14.986 -0.0938  0.6712 -0.3669
15097TIP3    H166782   4.733   0.894  14.988 -0.3205  0.6499 -1.2303
15097TIP3    H266783   4.783   0.784  14.896 -2.3420 -0.5198 -0.9762
15098TIP3   OH266784   1.667   6.516  15.700  0.4152 -0.1226 -0.0822
15098TIP3    H166785   1.596   6.466  15.659 -0.1666  0.2910  0.4130
15098TIP3    H266786   1.744   6.459  15.692  0.4530  0.1798 -2.2469
15099TIP3   OH266787   4.859   0.804   5.309 -0.0543  0.0833 -0.6624
15099TIP3    H166788   4.932   0.759   5.268 -2.2308 -3.5267 -0.8627
15099TIP3    H266789   4.809   0.841   5.237  0.2808  0.4947 -0.6860
15100TIP3   OH266790   4.694   5.666   4.928 -0.2063 -0.2455  0.5830
15100TIP3    H166791   4.629   5.610   4.885 -0.0883 -0.8877  1.2493
15100TIP3    H266792   4.652   5.694   5.009  0.3153 -0.5956  0.9753
15101TIP3   OH266793   1.197   3.177  16.755 -0.3730 -0.0219 -0.3196
15101TIP3    H166794   1.280   3.220  16.773 -0.2970 -0.1281 -0.4105
15101TIP3    H266795   1.132   3.247  16.757 -0.4864 -0.1478  1.1785
15102TIP3   OH266796   5.953   1.279  15.031 -0.1657  0.8280 -0.0463
15102TIP3    H166797   5.961   1.372  15.054  2.2723  0.4499  0.6880
15102TIP3    H266798   6.006   1.269  14.952  0.1660 -0.0882  0.2891
15103TIP3   OH266799   3.087   1.645  17.233 -0.0280  0.3263  0.1363
15103TIP3    H166800   3.143   1.712  17.192  0.5800  0.5124  1.2519
15103TIP3    H266801   3.148   1.592  17.284 -0.8850  0.5263  1.3616
15104TIP3   OH266802   0.486   2.255   4.065  0.3495  0.0333  0.0226
15104TIP3    H166803   0.537   2.195   4.119  2.9531  3.7855  2.0167
15104TIP3    H266804   0.530   2.253   3.980  0.5268 -0.7321  0.1260
15105TIP3   OH266805   3.094   4.274   0.361 -0.2916  0.3380 -0.0621
15105TIP3    H166806   3.134   4.335   0.424  0.1756  0.0272 -0.0514
15105TIP3    H266807   3.005   4.306   0.350 -0.0957  0.9383  0.0568
15106TIP3   OH266808   3.191   6.739   0.560 -0.0120  0.0240 -0.4736
15106TIP3    H166809   3.157   6.653   0.582 -0.1980  0.1697 -0.1817
15106TIP3    H266810   3.253   6.724   0.489 -1.6473 -0.0851 -1.9008
15107TIP3   OH266811   3.448   2.322   4.261 -0.6182 -0.0979  0.6111
15107TIP3    H166812   3.527   2.341   4.211 -1.5579  0.9021 -0.5289
15107TIP3    H266813   3.455   2.377   4.339 -0.7964  0.9494 -0.1086
15108TIP3   OH266814   2.610   6.810  17.052 -0.3615  0.3833 -0.2454
15108TIP3    H166815   2.533   6.788  17.105  0.3006  2.4170  1.6468
15108TIP3    H266816   2.683   6.768  17.097 -0.0882  0.1773 -0.8751
15109TIP3   OH266817   6.261   0.800   5.751  0.0118  0.2057 -0.0629
15109TIP3    H166818   6.185   0.742   5.760 -1.0188  1.6629  0.7840
15109TIP3    H266819   6.225   0.888   5.760  1.6387  0.9660 -0.8305
15110TIP3   OH266820   4.199   2.848  17.227  1.0740  0.7665 -0.0564
15110TIP3    H166821   4.257   2.912  17.187  2.0943  0.8869  1.5700
15110TIP3    H266822   4.124   2.899  17.257  0.7203  0.8082 -0.9994
15111TIP3   OH266823   1.023   6.519   3.881 -0.4404 -0.4406  0.3456
15111TIP3    H166824   1.095   6.581   3.899 -1.2806  1.0195 -1.1848
15111TIP3    H266825   1.031   6.500   3.788 -1.2966 -1.2366  0.4327
15112TIP3   OH266826   4.004   0.673  13.413 -0.4308 -0.1985  0.2003
15112TIP3    H166827   4.004   0.722  13.331 -1.6810 -0.1203  0.2241
15112TIP3    H266828   3.984   0.739  13.480  0.2318 -0.3220  0.5186
15113TIP3   OH266829   6.567   0.002  13.764  0.1166  0.4122  0.4244
15113TIP3    H166830   6.550  -0.040  13.680  0.3370  1.0899  0.0292
15113TIP3    H266831   6.608  -0.066  13.817  2.2848  0.6517 -0.8649
15114TIP3   OH266832   0.905   1.064   5.592  0.2848 -0.0459  0.0675
15114TIP3    H166833   0.956   1.058   5.673  1.7278  1.2379 -0.7135
15114TIP3    H266834   0.846   0.989   5.595  1.5700 -1.0346  1.4664
15115TIP3   OH266835   0.808   3.928   6.217  0.3795 -0.6757  0.3452
15115TIP3    H166836   0.715   3.929   6.238 -0.0664 -0.5737 -1.5194
15115TIP3    H266837   0.839   3.843   6.249 -1.1928 -2.3220 -2.2792
15116TIP3   OH266838   3.559   5.082   1.660 -0.4213 -0.3410 -0.2608
15116TIP3    H166839   3.485   5.140   1.678  0.3679  0.9218 -0.9902
15116TIP3    H266840   3.635   5.140   1.660  0.1856 -1.0821 -2.7677
15117TIP3   OH266841   5.756   2.764   2.974  0.0007  0.4099 -0.1076
15117TIP3    H166842   5.806   2.695   2.931 -0.0457  0.5151 -0.3267
15117TIP3    H266843   5.687   2.718   3.021 -0.8311  0.4063 -1.3195
15118TIP3   OH266844   1.316   5.704  14.508  0.1798  0.4173  0.1168
15118TIP3    H166845   1.402   5.673  14.536  0.6010  1.0042 -0.5298
15118TIP3    H266846   1.276   5.739  14.588 -0.7485 -2.7707  1.1264
15119TIP3   OH266847   4.658   2.498   0.897 -0.2834 -0.0889 -0.6747
15119TIP3    H166848   4.688   2.464   0.812  0.4398  0.4467 -0.6497
15119TIP3    H266849   4.694   2.587   0.900  3.1758 -1.4377  1.9211
15120TIP3   OH266850   1.863   5.697   3.186  0.2429 -0.0614 -0.4224
15120TIP3    H166851   1.925   5.761   3.152  0.3578  0.9856  1.6866
15120TIP3    H266852   1.799   5.749   3.235 -1.3713 -1.2842 -1.1655
15121TIP3   OH266853   2.965   0.890  14.853 -0.2159  0.7830 -0.2298
15121TIP3    H166854   2.984   0.869  14.762  1.8835 -0.4255  0.4736
15121TIP3    H266855   2.942   0.806  14.893  3.6774  0.4732  1.4984
15122TIP3   OH266856   1.444   5.870  14.320  0.0831  0.1294 -0.7184
15122TIP3    H166857   1.485   5.898  14.402 -0.5925 -0.4708 -0.1671
15122TIP3    H266858   1.382   5.802  14.347 -1.2511  1.0106 -1.5510
15123TIP3   OH266859   0.434   2.118   0.250 -0.2190  0.2016  0.2898
15123TIP3    H166860   0.424   2.111   0.345 -2.2510  1.6322  0.2002
15123TIP3    H266861   0.417   2.210   0.231 -1.1531 -0.3446 -1.6213
15124TIP3   OH266862   6.271   6.051   5.437  0.2261  0.3529  0.6615
15124TIP3    H166863   6.360   6.021   5.451  0.1630 -0.1182  0.0713
15124TIP3    H266864   6.226   5.976   5.399  0.1123  1.2418 -1.0042
15125TIP3   OH266865   0.067   3.064  13.699  0.3854  0.0647  0.3178
15125TIP3    H166866   0.126   3.013  13.643  0.0345 -0.7180  0.6575
15125TIP3    H266867   0.017   3.118  13.637 -1.1375 -1.9688 -0.2659
15126TIP3   OH266868   6.409   4.015   5.477  0.3396  0.2309 -0.1026
15126TIP3    H166869   6.371   4.098   5.507 -1.4951 -0.0528 -1.5552
15126TIP3    H266870   6.337   3.953   5.484  1.2692 -0.9026 -0.5321
15127TIP3   OH266871   4.605   2.272   4.044  0.4253  0.3602  0.8301
15127TIP3    H166872   4.588   2.358   4.007  0.8583  0.6392  1.2719
15127TIP3    H266873   4.584   2.280   4.137 -1.4036 -0.5565  0.5108
15128TIP3   OH266874   5.318   4.527  11.764 -0.1450  0.2741  0.2718
15128TIP3    H166875   5.349   4.437  11.773 -2.1005 -0.3581  0.8822
15128TIP3    H266876   5.393   4.581  11.791  2.2000 -1.0403 -3.3166
15129TIP3   OH266877   2.481   5.392  11.256 -0.7407  0.1656 -0.4206
15129TIP3    H166878   2.496   5.298  11.253 -2.1684 -0.0503 -2.5095
15129TIP3    H266879   2.433   5.407  11.337 -1.1311 -1.0305 -0.4221
15130TIP3   OH266880   5.529   3.001  11.176 -0.1980  0.5649 -0.9133
15130TIP3    H166881   5.544   3.047  11.259  0.2290 -0.4442 -0.4195
15130TIP3    H266882   5.443   3.030  11.147 -1.0459 -0.2962  0.6970
15131TIP3   OH266883   6.413   1.754   1.283 -0.3275  0.4186  0.2132
15131TIP3    H166884   6.466   1.702   1.343 -0.3129 -1.5251 -1.4250
15131TIP3    H266885   6.471   1.825   1.255 -0.0333  0.7961  1.7452
15132TIP3   OH266886   4.389   2.431  14.803  0.0426  0.5936  0.2322
15132TIP3    H166887   4.395   2.342  14.836 -1.0614  0.2440 -0.4664
15132TIP3    H266888   4.336   2.477  14.868 -0.6508  0.3525 -0.1570
15133TIP3   OH266889   5.188   6.595  16.330  0.0726 -0.5034 -0.2479
15133TIP3    H166890   5.185   6.499  16.331 -2.6566 -0.4572  1.7554
15133TIP3    H266891   5.102   6.622  16.297 -0.2101  1.2366  1.7657
15134TIP3   OH266892   2.650   1.036   1.129  0.4056 -0.3440  0.4684
15134TIP3    H166893   2.672   1.004   1.217  1.0727  1.9485  1.1906
15134TIP3    H266894   2.610   1.122   1.145 -1.0666 -0.6820 -1.3796
15135TIP3   OH266895   5.983   5.451  14.032  0.0765  0.4176 -0.1368
15135TIP3    H166896   5.919   5.419  13.969 -0.3435  1.4144 -0.2392
15135TIP3    H266897   5.965   5.402  14.112 -0.2369  0.0728 -0.4187
15136TIP3   OH266898   1.142   5.804   3.712  0.0518  0.3722 -0.3889
15136TIP3    H166899   1.144   5.738   3.782 -1.4766  0.8411  0.1117
15136TIP3    H266900   1.155   5.887   3.757  1.4197  0.4847 -0.9583
15137TIP3   OH266901   2.888   5.228   0.269  0.4607 -0.4325  0.0542
15137TIP3    H166902   2.890   5.253   0.177 -0.6527  1.3947  0.5051
15137TIP3    H266903   2.980   5.232   0.297  0.5400  1.3188 -0.3864
15138TIP3   OH266904   4.245   0.689   4.852 -0.2811 -0.1008  0.2884
15138TIP3    H166905   4.332   0.650   4.849  0.7781  2.2495 -1.0931
15138TIP3    H266906   4.201   0.656   4.773  0.5130  1.2128 -0.7264
15139TIP3   OH266907   0.072   0.417  15.755 -0.1274 -0.1193 -0.0832
15139TIP3    H166908   0.059   0.502  15.715  0.5830 -0.2747 -0.6631
15139TIP3    H266909   0.094   0.359  15.682  1.8502 -0.2526  0.5654
15140TIP3   OH266910   1.315   0.439   2.625 -0.3878 -0.0337  0.0269
15140TIP3    H166911   1.310   0.437   2.529 -0.4725  1.4585 -0.0082
15140TIP3    H266912   1.240   0.492   2.651  0.3232  0.5630  0.8598
15141TIP3   OH266913   2.787   5.688   0.470 -0.2736 -0.1336  0.1181
15141TIP3    H166914   2.693   5.706   0.480 -0.2240 -0.2063  0.7450
15141TIP3    H266915   2.811   5.642   0.551  0.4233  0.3904  0.2168
15142TIP3   OH266916   2.335   3.252  11.407  0.5056  0.0562 -0.4483
15142TIP3    H166917   2.412   3.293  11.446  0.3016  0.2457 -0.2395
15142TIP3    H266918   2.356   3.243  11.314  0.9741 -0.3477 -0.3054
15143TIP3   OH266919   1.976   0.629   5.784 -0.5827  0.0929 -0.0311
15143TIP3    H166920   2.057   0.631   5.834 -0.4345 -0.4088 -0.2467
15143TIP3    H266921   1.979   0.707   5.729  0.0718 -0.2777 -0.5289
15144TIP3   OH266922   5.964   4.055   3.328 -0.3966  0.1080  0.0313
15144TIP3    H166923   5.947   3.999   3.404 -0.7064 -1.7213 -1.3419
15144TIP3    H266924   6.038   4.014   3.285  0.5111  1.7935 -0.0517
15145TIP3   OH266925   0.379   2.526  14.042  0.0988  0.2098 -0.6931
15145TIP3    H166926   0.460   2.545  13.995  0.6330  1.6776  0.7673
15145TIP3    H266927   0.400   2.452  14.099 -0.6183 -1.7323 -2.8789
15146TIP3   OH266928   5.522   2.560  14.031  0.3858  0.0813 -0.4999
15146TIP3    H166929   5.439   2.573  14.078  0.1537 -0.9042 -0.6113
15146TIP3    H266930   5.547   2.470  14.052  0.3908 -0.3026 -2.0870
15147TIP3   OH266931   5.037   3.028  11.619  0.3338 -0.2009  0.7386
15147TIP3    H166932   4.982   2.997  11.690  0.8252 -2.0227  0.3450
15147TIP3    H266933   5.001   3.114  11.596 -1.5347 -0.8112  1.3334
15148TIP3   OH266934   5.805   5.457   2.946 -0.0552 -0.5156  0.1880
15148TIP3    H166935   5.845   5.379   2.983  3.0522  0.5555 -0.7812
15148TIP3    H266936   5.774   5.429   2.859  0.6992 -0.7666 -0.0012
15149TIP3   OH266937   4.125   4.628  17.127  0.1517 -0.0324  0.0926
15149TIP3    H166938   4.202   4.599  17.176 -0.6211 -3.1631 -0.4006
15149TIP3    H266939   4.051   4.584  17.169 -0.7313 -1.3744 -2.6966
15150TIP3   OH266940   0.234   4.856  16.333  0.3293 -0.0251  0.7788
15150TIP3    H166941   0.225   4.944  16.297  2.3586  0.0038  0.3153
15150TIP3    H266942   0.300   4.863  16.401 -1.0058 -0.7909  2.1956
15151TIP3   OH266943   5.896   1.160   3.370  0.1780  0.2461 -0.1077
15151TIP3    H166944   5.923   1.244   3.332  0.3338  0.7493  1.0960
15151TIP3    H266945   5.843   1.185   3.446 -2.1439 -0.7374 -1.3770
15152TIP3   OH266946   0.879   6.626  12.798  0.0108 -0.2741 -0.2105
15152TIP3    H166947   0.888   6.695  12.863 -0.8827 -1.4510  1.1818
15152TIP3    H266948   0.916   6.548  12.839 -1.9977 -1.4007 -0.4540
15153TIP3   OH266949   0.064   3.047   2.620  0.1456 -0.2567 -0.4252
15153TIP3    H166950   0.007   3.064   2.695  1.5728  1.7761  0.2208
15153TIP3    H266951   0.012   2.990   2.564 -0.9434 -1.8722  2.1114
15154TIP3   OH266952   1.233   2.358   1.709 -0.1215 -0.1954  0.0794
15154TIP3    H166953   1.295   2.379   1.780 -1.1989 -0.2236  1.0463
15154TIP3    H266954   1.266   2.276   1.673  2.0186  1.2148 -1.3099
15155TIP3   OH266955   5.804   3.012   0.215  0.0594  0.2428  0.2803
15155TIP3    H166956   5.713   2.982   0.221  0.2991 -0.4569  0.4778
15155TIP3    H266957   5.798   3.101   0.180 -0.6811  0.0800 -0.0121
15156TIP3   OH266958   3.541   5.954  14.724  0.5998  0.1343  0.2572
15156TIP3    H166959   3.544   5.911  14.809  1.4654 -0.9086 -0.2868
15156TIP3    H266960   3.632   5.978  14.706  0.0147  2.9038  0.8957
15157TIP3   OH266961   1.828   2.447   2.610 -0.1802 -0.7288 -0.2390
15157TIP3    H166962   1.906   2.404   2.644  0.4158  1.6578  1.5223
15157TIP3    H266963   1.838   2.444   2.515  1.7177 -1.0020 -0.0445
15158TIP3   OH266964   5.242   2.039   4.974 -0.5022 -0.1439 -0.3892
15158TIP3    H166965   5.197   2.111   5.017  0.2409 -0.0472  0.2470
15158TIP3    H266966   5.223   1.963   5.029  0.9349  0.0916  0.4718
15159TIP3   OH266967   4.610   5.901  15.586  0.0939  0.1743  0.2543
15159TIP3    H166968   4.613   5.869  15.677 -0.7694 -0.0783  0.1975
15159TIP3    H266969   4.601   5.995  15.595  1.9079  0.3616  0.4193
15160TIP3   OH266970   5.614   1.481   0.301  0.3647  0.2099 -0.5745
15160TIP3    H166971   5.581   1.546   0.362  0.6851 -0.0956 -0.0714
15160TIP3    H266972   5.600   1.397   0.345 -0.8030 -0.1296 -1.5655
15161TIP3   OH266973   1.095   5.165  16.858  0.4690  0.0539 -0.5807
15161TIP3    H166974   1.049   5.189  16.777 -0.0093  0.2905 -0.2379
15161TIP3    H266975   1.044   5.093  16.894 -0.4674  1.2928  0.5686
15162TIP3   OH266976   4.607   4.586   0.448  0.0486  0.6047 -0.1562
15162TIP3    H166977   4.543   4.657   0.456 -1.1321 -0.4187 -0.2558
15162TIP3    H266978   4.670   4.602   0.518 -0.4968  1.4703  0.1403
15163TIP3   OH266979   0.779   3.368   4.438  0.5752 -0.2606  0.6807
15163TIP3    H166980   0.815   3.330   4.358 -0.7368 -0.7609  0.3192
15163TIP3    H266981   0.695   3.405   4.411  1.3495  1.9968  1.2381
15164TIP3   OH266982   0.584   4.380  14.206 -0.1397  0.1901  0.5303
15164TIP3    H166983   0.578   4.474  14.220  1.5887  0.1238  1.9042
15164TIP3    H266984   0.670   4.356  14.239  0.1386 -1.6145 -1.3434
15165TIP3   OH266985   0.466   5.177  11.527 -0.4553  0.0110 -0.4817
15165TIP3    H166986   0.400   5.110  11.540 -0.2792 -0.3152 -1.2155
15165TIP3    H266987   0.418   5.260  11.534 -0.3272 -0.1279  2.2948
15166TIP3   OH266988   2.314   2.289   3.399  0.0309 -0.4664 -0.5118
15166TIP3    H166989   2.335   2.279   3.492  0.3044 -0.8282 -0.6113
15166TIP3    H266990   2.387   2.248   3.353 -1.6849 -3.2406 -0.8518
15167TIP3   OH266991   3.733   0.429  16.391  0.0100  0.6058  0.0998
15167TIP3    H166992   3.725   0.524  16.388  1.5286  0.7542  0.2296
15167TIP3    H266993   3.827   0.413  16.384 -0.0491 -0.7958  2.1295
15168TIP3   OH266994   2.799   4.517  14.588 -0.4539  0.3651  0.3285
15168TIP3    H166995   2.778   4.600  14.632  1.3035  1.1396 -0.2473
15168TIP3    H266996   2.731   4.507  14.522 -0.8378  1.2110  0.5832
15169TIP3   OH266997   0.866   5.099   5.779  0.1163 -0.1660 -0.3160
15169TIP3    H166998   0.940   5.045   5.806  0.5888  0.1369 -0.9759
15169TIP3    H266999   0.895   5.140   5.697 -1.1782 -0.8611 -1.1502
15170TIP3   OH267000   0.925   0.674  15.318 -0.0878  0.5931  0.3239
15170TIP3    H167001   0.998   0.713  15.269 -0.2009  1.4297  0.8078
15170TIP3    H267002   0.882   0.617  15.255  1.0703 -0.0301  0.0705
15171TIP3   OH267003   3.504   2.488   4.914 -0.0803  0.1043 -0.1698
15171TIP3    H167004   3.544   2.405   4.886 -1.6216 -0.5107 -0.5593
15171TIP3    H267005   3.501   2.482   5.009 -1.6111 -0.9526 -0.2800
15172TIP3   OH267006   1.626   6.648   4.004  0.0718  0.4178 -0.3289
15172TIP3    H167007   1.607   6.740   4.020  0.4795  0.5344 -0.4966
15172TIP3    H267008   1.555   6.617   3.949 -0.0716  0.6316 -0.2623
15173TIP3   OH267009   6.168   3.686   4.652  0.4040  0.1291 -0.6728
15173TIP3    H167010   6.102   3.623   4.622 -0.7944  2.2918 -2.8144
15173TIP3    H267011   6.233   3.687   4.581  0.5752  1.0857 -0.5013
15174TIP3   OH267012   1.991   2.490  13.124  0.2839  0.1199 -0.4494
15174TIP3    H167013   2.050   2.499  13.199  0.5906  1.9627 -0.8960
15174TIP3    H267014   1.936   2.568  13.128 -2.6315 -1.8840  0.3750
15175TIP3   OH267015   3.387   3.176   4.717  0.5191 -0.1373 -0.0865
15175TIP3    H167016   3.416   3.208   4.632 -0.0987 -1.6645 -0.8872
15175TIP3    H267017   3.303   3.134   4.700  0.7237 -1.0808  1.1468
15176TIP3   OH267018   4.459   1.902   5.367  0.5226 -0.1345 -0.0821
15176TIP3    H167019   4.535   1.960   5.370  0.4578 -0.0419 -0.2409
15176TIP3    H267020   4.400   1.943   5.304 -0.0301  0.2452  0.6759
15177TIP3   OH267021   2.515   2.064   0.213  0.0247 -0.3444 -0.1429
15177TIP3    H167022   2.562   2.138   0.174  1.0721 -0.0594  1.5948
15177TIP3    H267023   2.423   2.090   0.209  0.2303  0.2456 -1.2152
15178TIP3   OH267024   2.543   4.147  11.468 -0.0084  0.2466  0.1564
15178TIP3    H167025   2.495   4.230  11.466 -1.2929 -0.4793  0.4531
15178TIP3    H267026   2.482   4.085  11.507  1.5442 -0.4746  1.4643
15179TIP3   OH267027   2.112   3.819   4.637 -0.1355  0.1433  0.7003
15179TIP3    H167028   2.038   3.776   4.594  0.2772 -0.7210  0.8318
15179TIP3    H267029   2.094   3.809   4.731  0.6515 -0.9854  0.7428
15180TIP3   OH267030   2.237   1.275  11.298  0.4152  0.4198  0.3065
15180TIP3    H167031   2.267   1.185  11.281 -0.9830  0.2434 -1.3465
15180TIP3    H267032   2.292   1.305  11.371  3.0109 -0.6816 -1.1393
15181TIP3   OH267033   3.508   6.816   4.659 -0.4749 -0.2946 -0.2049
15181TIP3    H167034   3.441   6.798   4.594 -2.7911 -0.2224  2.0762
15181TIP3    H267035   3.506   6.739   4.717  1.1696 -0.1281  0.0865
15182TIP3   OH267036   6.080   3.861   4.387  0.0995 -0.3691  0.5492
15182TIP3    H167037   6.086   3.867   4.291 -0.8088  0.8714  0.5528
15182TIP3    H267038   6.010   3.798   4.402 -1.5959  1.3853  0.3410
15183TIP3   OH267039   3.341   4.885  15.847  0.8289 -0.3211  0.1296
15183TIP3    H167040   3.278   4.872  15.776  1.4347 -0.1850 -0.4433
15183TIP3    H267041   3.322   4.973  15.880  1.2296  0.0309 -0.5649
15184TIP3   OH267042   2.585   0.720   0.372 -0.6535  0.1638  0.2168
15184TIP3    H167043   2.513   0.661   0.394 -1.1933  0.6565 -0.1968
15184TIP3    H267044   2.544   0.787   0.317 -0.2708  1.5051  1.5370
15185TIP3   OH267045   1.394   0.623  12.634 -0.2270 -0.2675  0.2044
15185TIP3    H167046   1.406   0.556  12.567  2.3666 -1.2958  1.6322
15185TIP3    H267047   1.331   0.585  12.695 -1.2339 -0.0462 -0.6744
15186TIP3   OH267048   5.073   2.217   4.529 -0.2264  0.5458  0.0434
15186TIP3    H167049   5.105   2.193   4.443 -1.2119 -0.5107 -0.0319
15186TIP3    H267050   5.069   2.135   4.578 -1.7953  0.7954  0.3792
15187TIP3   OH267051   3.483   3.878  12.843 -0.0735  0.1820  0.1559
15187TIP3    H167052   3.427   3.857  12.768  1.4955  0.2562 -1.0594
15187TIP3    H267053   3.466   3.970  12.861  0.7362  0.6147 -1.1731
15188TIP3   OH267054   4.959   3.529   5.978 -0.2025  0.6886  0.0639
15188TIP3    H167055   4.901   3.465   6.019  1.0987 -1.1096 -0.7836
15188TIP3    H267056   4.937   3.612   6.018 -2.1120 -0.2703  1.0326
15189TIP3   OH267057   0.619   5.418  13.310 -0.1658 -0.7386 -0.6520
15189TIP3    H167058   0.639   5.423  13.216 -0.3328 -1.1603 -0.7137
15189TIP3    H267059   0.604   5.508  13.337  0.6805 -0.5383 -0.8578
15190TIP3   OH267060   4.518   6.575  13.118  0.3744  0.0399 -0.1701
15190TIP3    H167061   4.495   6.656  13.164  0.4350  0.2247 -0.4649
15190TIP3    H267062   4.491   6.505  13.177 -0.4428  0.2611 -0.2736
15191TIP3   OH267063   6.385   1.561   4.304 -0.2845 -0.3930  0.6065
15191TIP3    H167064   6.325   1.487   4.297 -0.0232 -0.6705  1.1696
15191TIP3    H267065   6.442   1.538   4.378 -0.7567  0.7661  1.3442
15192TIP3   OH267066   4.888   2.447  14.594 -0.9117  0.9851 -0.2017
15192TIP3    H167067   4.941   2.390  14.540  0.7145  2.0872  0.2019
15192TIP3    H267068   4.810   2.395  14.614 -0.0560 -0.6056 -0.8938
15193TIP3   OH267069   0.894   5.494   0.461 -0.3387  0.7622 -0.6423
15193TIP3    H167070   0.850   5.411   0.441  0.3993  0.3654 -0.6414
15193TIP3    H267071   0.928   5.523   0.376  1.0236  0.1091 -0.3419
15194TIP3   OH267072   1.934   5.875  10.475  1.0057  0.5533 -0.2582
15194TIP3    H167073   2.021   5.838  10.489 -0.0968 -2.6265 -1.4035
15194TIP3    H267074   1.945   5.933  10.400  2.3062  0.8891  0.1679
15195TIP3   OH267075   1.595   1.361   6.263 -0.6173  0.8936 -0.0526
15195TIP3    H167076   1.635   1.275   6.280  1.0913  1.6768 -0.0763
15195TIP3    H267077   1.513   1.340   6.217  0.2481 -0.6761 -0.9311
15196TIP3   OH267078   3.841   1.077   0.417 -1.0333  0.0456 -0.0150
15196TIP3    H167079   3.909   1.119   0.470 -0.9274  0.6915 -0.6535
15196TIP3    H267080   3.888   1.014   0.362 -0.8135  1.1540 -1.1291
15197TIP3   OH267081   5.599   3.071   5.838  0.1220 -0.5495 -0.1844
15197TIP3    H167082   5.568   3.022   5.914  3.1616  0.9475  2.0795
15197TIP3    H267083   5.664   3.014   5.798 -1.0214 -1.0648 -1.3649
15198TIP3   OH267084   0.834   4.051   3.889  0.2404  0.1997 -0.4273
15198TIP3    H167085   0.869   3.972   3.848  3.3112  1.1344  0.2822
15198TIP3    H267086   0.789   4.020   3.967  0.6402 -0.9457 -0.6411
15199TIP3   OH267087   1.218   6.601  14.344  0.0598  0.6175  0.0948
15199TIP3    H167088   1.234   6.508  14.355  0.2143  0.6951  0.5238
15199TIP3    H267089   1.150   6.606  14.277 -1.3945  0.1187  1.5022
15200TIP3   OH267090   0.776   6.744  14.370  0.3318  0.3703  0.1095
15200TIP3    H167091   0.801   6.796  14.447 -0.4064  1.1454 -0.1672
15200TIP3    H267092   0.845   6.762  14.306 -1.3105  3.1748 -0.9605
15201TIP3   OH267093   1.967   0.914   2.746  0.0351 -0.5852  0.5702
15201TIP3    H167094   1.940   0.868   2.666 -0.6284  1.1546 -0.2180
15201TIP3    H267095   2.063   0.913   2.743  0.0180 -1.0434  0.0719
15202TIP3   OH267096   3.221   5.448   2.586 -0.2251 -0.1113  0.0706
15202TIP3    H167097   3.195   5.445   2.494  0.0101  0.5950 -0.0197
15202TIP3    H267098   3.231   5.541   2.605 -0.7002 -0.2281  0.9296
15203TIP3   OH267099   3.904   0.430   2.017 -0.1526  0.0585  0.3050
15203TIP3    H167100   3.983   0.485   2.017 -0.0017 -0.1064 -1.6907
15203TIP3    H267101   3.869   0.440   1.928 -0.2114 -2.9165 -0.0593
15204TIP3   OH267102   5.378   2.443  10.555  0.0117  0.3289 -0.1461
15204TIP3    H167103   5.429   2.370  10.591  0.8111  1.3560  0.8363
15204TIP3    H267104   5.441   2.514  10.544 -1.4826  2.2482  2.8469
15205TIP3   OH267105   0.307   4.672  11.700 -0.0437 -0.7126  1.1459
15205TIP3    H167106   0.375   4.674  11.632 -0.2023  0.9731  0.9973
15205TIP3    H267107   0.239   4.731  11.666 -1.1601 -1.6497  1.7293
15206TIP3   OH267108   2.212   3.213   4.328  0.3464  0.1282  0.1984
15206TIP3    H167109   2.241   3.226   4.238  1.4976 -0.4394  0.4812
15206TIP3    H267110   2.247   3.288   4.376  0.7549 -0.1930  0.4042
15207TIP3   OH267111   2.398   4.203   4.790  0.3987 -0.3848 -0.1346
15207TIP3    H167112   2.349   4.270   4.743  1.5273  0.3183 -0.3156
15207TIP3    H267113   2.461   4.170   4.726  2.0693  0.7059  0.9171
15208TIP3   OH267114   5.206   2.460  16.873 -0.0666 -0.4946  0.0710
15208TIP3    H167115   5.209   2.511  16.792  2.4398  1.0399  1.0828
15208TIP3    H267116   5.270   2.390  16.860 -0.6776 -1.0922  0.2185
15209TIP3   OH267117   0.830   3.076   0.433  0.3749  0.0012  0.8629
15209TIP3    H167118   0.801   3.064   0.342  2.8986  1.7985 -0.2514
15209TIP3    H267119   0.777   3.148   0.466  0.3020  0.1743  0.3814
15210TIP3   OH267120   0.289   5.835  11.845 -0.1525 -1.1419 -0.2980
15210TIP3    H167121   0.206   5.819  11.798  0.6394  0.9336 -2.5322
15210TIP3    H267122   0.356   5.803  11.785  0.8025 -0.3147  0.3265
15211TIP3   OH267123   0.393   2.118  15.495 -0.0325  0.3140 -0.8666
15211TIP3    H167124   0.437   2.048  15.448 -1.6936 -0.3302 -1.4727
15211TIP3    H267125   0.385   2.086  15.585  1.5827  0.8359 -0.5199
15212TIP3   OH267126   3.452   5.365  13.796 -0.0607 -0.4846 -0.6782
15212TIP3    H167127   3.452   5.448  13.747 -0.0327  0.2227  0.4931
15212TIP3    H267128   3.531   5.320  13.768  0.4238  0.3190 -0.6078
15213TIP3   OH267129   1.600   4.287  15.899 -0.3090  0.1262 -0.1168
15213TIP3    H167130   1.507   4.270  15.916 -0.7635  2.3835 -0.1648
15213TIP3    H267131   1.647   4.228  15.958 -1.7885 -0.4230  0.5273
15214TIP3   OH267132   5.449   3.082  12.566 -0.5690 -0.4679 -0.1776
15214TIP3    H167133   5.372   3.113  12.614 -0.2723 -0.2143  0.1390
15214TIP3    H267134   5.496   3.161  12.542 -0.0012 -0.6536  0.3081
15215TIP3   OH267135   5.287   0.974   3.450 -0.0212 -0.0385 -0.3717
15215TIP3    H167136   5.342   0.968   3.529  0.0352 -0.2976 -0.4299
15215TIP3    H267137   5.260   0.884   3.433 -0.0084  0.0127 -0.6650
15216TIP3   OH267138   6.421   2.971  10.603  0.3879 -0.1461 -0.3371
15216TIP3    H167139   6.503   3.013  10.577  0.5255 -0.0105  0.2999
15216TIP3    H267140   6.353   3.019  10.556  0.7222 -0.6499 -1.3357
15217TIP3   OH267141   3.951   0.414   0.559 -0.0839 -0.3479 -0.2359
15217TIP3    H167142   3.945   0.418   0.655 -0.6345  1.6755 -0.3314
15217TIP3    H267143   3.914   0.498   0.529  0.7229 -0.6668 -2.1862
15218TIP3   OH267144   6.432   4.085   3.727 -0.1058 -0.2701  0.5266
15218TIP3    H167145   6.374   4.131   3.666  1.9830  0.5914 -0.8307
15218TIP3    H267146   6.393   4.102   3.813 -2.0228  0.0460 -0.3686
15219TIP3   OH267147   4.232   4.790   0.977 -0.6602 -0.0318 -0.6085
15219TIP3    H167148   4.185   4.760   1.055  0.6927 -0.5778  0.0104
15219TIP3    H267149   4.306   4.730   0.970 -1.2484 -0.5334 -2.8320
15220TIP3   OH267150   5.709   3.599   4.949  0.1223 -0.1165  0.0162
15220TIP3    H167151   5.751   3.676   4.988  1.0691 -1.1878  1.1370
15220TIP3    H267152   5.676   3.550   5.023  4.1644 -3.5012 -0.2318
15221TIP3   OH267153   1.481   4.301   0.211  0.2424  0.2678 -0.5796
15221TIP3    H167154   1.436   4.219   0.191 -1.4241  1.1021 -0.2880
15221TIP3    H267155   1.444   4.364   0.149  3.8178  0.1336 -3.0325
15222TIP3   OH267156   4.321   3.702  13.612 -0.2584  0.5526  0.5992
15222TIP3    H167157   4.298   3.642  13.683  0.0717  0.7847  0.9049
15222TIP3    H267158   4.338   3.785  13.656  0.8780  0.4620  0.3507
15223TIP3   OH267159   3.565   5.313   4.285 -0.5422  0.0826  0.2342
15223TIP3    H167160   3.544   5.362   4.205 -0.3781 -0.4826 -0.1605
15223TIP3    H267161   3.660   5.320   4.293 -0.5401  0.0029  0.2874
15224TIP3   OH267162   2.184   4.507  11.342  0.4144 -0.0402  0.6806
15224TIP3    H167163   2.184   4.565  11.266  1.2879 -1.5128 -0.4948
15224TIP3    H267164   2.277   4.493  11.361  0.2401 -1.4010  0.6257
15225TIP3   OH267165   2.418   3.808  14.451 -0.4567 -0.7838 -0.6562
15225TIP3    H167166   2.357   3.875  14.420  0.1462  1.5050  2.8343
15225TIP3    H267167   2.500   3.828  14.405 -0.8273 -0.3780 -1.1501
15226TIP3   OH267168   3.181   4.871   1.412  0.6337  0.6435 -0.0789
15226TIP3    H167169   3.239   4.807   1.372 -0.5251 -0.5053  0.0385
15226TIP3    H267170   3.155   4.928   1.340  1.1478  0.5765 -0.3174
15227TIP3   OH267171   0.438   1.307   1.646 -0.1457  0.2896 -0.1685
15227TIP3    H167172   0.511   1.368   1.640  0.6893 -0.5382  1.1818
15227TIP3    H267173   0.404   1.320   1.735  0.3724 -1.5730  0.3120
15228TIP3   OH267174   4.560   2.189  13.159 -0.1064 -0.1437  0.2458
15228TIP3    H167175   4.465   2.189  13.151 -0.0401 -0.6414 -0.5753
15228TIP3    H267176   4.589   2.261  13.104  0.0107 -0.1605  0.2852
15229TIP3   OH267177   3.129   5.689  14.610  0.7862  0.2520  0.0096
15229TIP3    H167178   3.180   5.623  14.657  1.1146  0.4357 -0.0881
15229TIP3    H267179   3.039   5.677  14.641  1.0791  0.6699  1.0066
15230TIP3   OH267180   4.619   4.824   3.148 -0.0372 -0.4719  0.1203
15230TIP3    H167181   4.637   4.892   3.213  2.5818  0.1700 -1.2112
15230TIP3    H267182   4.530   4.843   3.117  0.2058  1.6202  0.6438
15231TIP3   OH267183   5.681   6.643  10.781 -0.0081  0.3163 -0.4645
15231TIP3    H167184   5.741   6.598  10.841  1.4158  1.8751 -0.6719
15231TIP3    H267185   5.689   6.736  10.804 -1.6420  0.6484 -1.1440
15232TIP3   OH267186   3.799   3.727  16.064  0.1296 -0.2892 -0.1640
15232TIP3    H167187   3.709   3.710  16.037 -0.0523 -0.9647  0.8580
15232TIP3    H267188   3.853   3.679  16.001 -0.1543  1.3740 -1.7288
15233TIP3   OH267189   2.970   3.735  16.555  0.5576  0.5853 -0.1304
15233TIP3    H167190   2.930   3.699  16.634  0.7502  2.9639  1.1012
15233TIP3    H267191   2.902   3.727  16.488  0.0451 -0.5532  0.5194
15234TIP3   OH267192   1.125   3.854   0.934  0.3608  0.3156  0.0621
15234TIP3    H167193   1.077   3.804   0.868 -0.1674 -0.5790  1.1191
15234TIP3    H267194   1.151   3.934   0.888 -2.7226  1.1404 -0.3266
15235TIP3   OH267195   1.332   6.527   4.050 -0.0810  0.7429 -0.2906
15235TIP3    H167196   1.359   6.506   3.961 -0.6957  0.7316 -0.4723
15235TIP3    H267197   1.268   6.597   4.040  0.9943  1.8111  0.2359
15236TIP3   OH267198   3.048   2.506  14.811 -0.0750  0.8669 -0.0126
15236TIP3    H167199   3.041   2.412  14.796  2.3854  0.5402  0.6020
15236TIP3    H267200   3.112   2.536  14.747 -0.0810  1.9313  0.4664
15237TIP3   OH267201   5.294   4.549  13.120 -0.5419  0.3478  0.8181
15237TIP3    H167202   5.322   4.516  13.205 -0.7441  0.6697  1.0049
15237TIP3    H267203   5.240   4.625  13.139 -1.0609  0.0790  0.4276
15238TIP3   OH267204   5.777   4.446   2.292  0.1625 -0.0979 -0.4466
15238TIP3    H167205   5.830   4.383   2.341 -0.7294 -1.2633 -0.9763
15238TIP3    H267206   5.774   4.523   2.349  1.8749 -0.2519 -0.1264
15239TIP3   OH267207   6.391   1.857  15.702 -0.3313  0.4216 -0.0661
15239TIP3    H167208   6.321   1.922  15.692  0.6392  1.4288 -0.4235
15239TIP3    H267209   6.392   1.838  15.796 -0.5346  1.0160  0.0597
15240TIP3   OH267210   4.556   6.625  14.669 -0.1918 -0.1614  0.0682
15240TIP3    H167211   4.648   6.607  14.654 -0.1974  1.2514 -1.7173
15240TIP3    H267212   4.553   6.716  14.699 -0.9407 -0.4403  0.8761
15241TIP3   OH267213   3.219   0.523   0.706  0.5849 -0.6764  0.5385
15241TIP3    H167214   3.286   0.547   0.770 -0.8545  0.3678  1.6803
15241TIP3    H267215   3.160   0.465   0.754  0.4765 -1.3185 -0.3605
15242TIP3   OH267216   0.933   5.610   5.275 -0.3935 -0.1803 -0.1603
15242TIP3    H167217   0.942   5.676   5.207  0.9688 -0.3690 -0.1787
15242TIP3    H267218   0.968   5.651   5.353  0.7649 -0.9946 -0.2470
15243TIP3   OH267219   3.064   4.688   2.159 -0.6691 -0.0562  1.0940
15243TIP3    H167220   3.047   4.625   2.229 -0.0892 -1.0674  0.3256
15243TIP3    H267221   3.084   4.770   2.206 -0.9678 -0.5471  2.0955
15244TIP3   OH267222   6.776   4.782   0.873 -0.4926 -0.1777 -0.1037
15244TIP3    H167223   6.682   4.799   0.879 -0.1785  1.2743  1.1274
15244TIP3    H267224   6.805   4.780   0.964  1.0723  1.8703 -0.5373
15245TIP3   OH267225   5.698   0.813  16.048  0.5685  0.1119 -0.1209
15245TIP3    H167226   5.626   0.762  16.009 -0.1320 -0.2559  1.6253
15245TIP3    H267227   5.689   0.900  16.009  0.4437 -0.4761 -1.4723
15246TIP3   OH267228   3.037   4.391  14.459  0.6158  0.4906  0.1306
15246TIP3    H167229   2.944   4.396  14.479  0.3855 -0.4054 -0.7192
15246TIP3    H267230   3.044   4.422  14.369  1.0842  0.1760  0.0572
15247TIP3   OH267231   5.979   1.233   4.676 -0.0169 -0.2894 -0.2044
15247TIP3    H167232   6.008   1.309   4.625  1.3778  0.5490  1.7350
15247TIP3    H267233   5.948   1.271   4.759  3.5468 -1.9856  2.0193
15248TIP3   OH267234   6.607   3.541   0.740  0.1585 -0.4265 -0.2513
15248TIP3    H167235   6.543   3.489   0.691 -1.1869  1.0293 -0.1046
15248TIP3    H267236   6.564   3.626   0.751  1.2922 -0.0804  1.6743
15249TIP3   OH267237   2.983   3.876   5.710 -0.1590  0.1402 -0.2160
15249TIP3    H167238   2.935   3.923   5.779 -1.6319 -1.6224 -0.0173
15249TIP3    H267239   2.929   3.887   5.632  1.0877  1.4211 -0.9233
15250TIP3   OH267240   0.000   1.249  16.563  0.4923 -0.7367  0.1598
15250TIP3    H167241  -0.070   1.204  16.516  0.0930 -2.9190  2.7346
15250TIP3    H267242   0.048   1.297  16.495 -1.7740 -1.4965 -2.0274
15251TIP3   OH267243   4.645   6.720  15.621 -0.0842 -0.0987 -0.2858
15251TIP3    H167244   4.622   6.788  15.683 -2.1512 -1.1774  0.1738
15251TIP3    H267245   4.707   6.664  15.668  0.5537  0.6823 -0.1937
15252TIP3   OH267246   5.888   3.057  14.843 -0.1341 -0.2276 -0.3180
15252TIP3    H167247   5.838   3.069  14.762  0.9803 -0.5429 -1.0618
15252TIP3    H267248   5.966   3.010  14.816  0.0003 -0.8064  1.0430
15253TIP3   OH267249   4.155   6.178   3.163 -0.2216  0.4068  0.4902
15253TIP3    H167250   4.097   6.254   3.151 -0.3569  0.7934  3.1623
15253TIP3    H267251   4.103   6.103   3.133 -1.0576  1.0894  0.2158
15254TIP3   OH267252   2.797   2.533  12.578  0.3093  0.2396 -0.2163
15254TIP3    H167253   2.774   2.493  12.494  0.1357 -0.9358  0.3678
15254TIP3    H267254   2.887   2.504  12.594  0.3541  0.4911 -0.0197
15255TIP3   OH267255   3.090   4.007  12.341 -0.2939 -0.4753  0.2025
15255TIP3    H167256   3.044   4.079  12.299 -0.2722 -1.6811 -1.9576
15255TIP3    H267257   3.021   3.954  12.381 -0.6301 -1.1690 -1.2707
15256TIP3   OH267258   3.677   3.523   4.245 -0.1073  0.2629 -0.3859
15256TIP3    H167259   3.739   3.592   4.268  0.2168 -0.1076 -0.1390
15256TIP3    H267260   3.592   3.559   4.269 -0.1279  1.2983 -1.9758
15257TIP3   OH267261   2.291   0.804  13.659  0.3950 -0.0294  0.6600
15257TIP3    H167262   2.376   0.764  13.643  0.6380  0.6365  0.2612
15257TIP3    H267263   2.253   0.818  13.572  0.5894  1.1811  0.7552
15258TIP3   OH267264   4.858   2.924   2.682  0.7382 -0.0818  0.4339
15258TIP3    H167265   4.838   2.852   2.742  0.8131  2.3373  3.4436
15258TIP3    H267266   4.951   2.941   2.695  0.7267  0.5813 -0.2980
15259TIP3   OH267267   5.697   3.376  11.033  0.0378 -0.2387 -0.2827
15259TIP3    H167268   5.730   3.449  10.981  1.7105 -0.2409  0.7443
15259TIP3    H267269   5.677   3.308  10.969 -1.9185  1.2175 -1.2901
15260TIP3   OH267270   2.491   2.259  12.550  0.1589  0.2631  0.0115
15260TIP3    H167271   2.398   2.254  12.530 -0.0579  1.5683  0.6501
15260TIP3    H267272   2.519   2.168  12.561 -1.3070 -0.0687  1.0552
15261TIP3   OH267273   3.234   2.508   0.531  0.4602  0.4606  0.4820
15261TIP3    H167274   3.168   2.442   0.512  0.2711  0.7285  0.2048
15261TIP3    H267275   3.231   2.568   0.456 -0.1909  1.4463  1.2793
15262TIP3   OH267276   3.967   2.595  12.227 -0.2620 -0.1835  0.5877
15262TIP3    H167277   3.887   2.558  12.265  0.0422 -0.3288  1.0937
15262TIP3    H267278   4.001   2.653  12.295 -1.4560  2.0897 -0.7151
15263TIP3   OH267279   0.212   5.823   0.497  0.5249  0.1659 -0.2621
15263TIP3    H167280   0.220   5.731   0.521  3.0100  0.7143  1.1957
15263TIP3    H267281   0.224   5.824   0.403  1.2638 -0.9411 -0.1937
15264TIP3   OH267282   6.452   0.401  14.406 -0.0173 -0.6012 -0.3153
15264TIP3    H167283   6.450   0.370  14.496 -0.8628 -1.3418 -0.5781
15264TIP3    H267284   6.542   0.386  14.377  0.1102 -0.8843  0.2249
15265TIP3   OH267285   2.265   1.422   0.400  0.1602  0.0674  0.0990
15265TIP3    H167286   2.190   1.365   0.386  0.8476 -0.7668 -0.2003
15265TIP3    H267287   2.237   1.507   0.363 -1.2975  0.2838  1.6300
15266TIP3   OH267288   1.350   3.043   1.532  0.1697 -0.0693 -0.7792
15266TIP3    H167289   1.377   2.957   1.565  0.2389 -0.1861 -1.1458
15266TIP3    H267290   1.432   3.083   1.501 -0.0218 -0.2865 -1.5752
15267TIP3   OH267291   4.577   3.896   1.646 -0.7559  0.8726 -0.0992
15267TIP3    H167292   4.618   3.848   1.717 -0.5436  0.7736 -0.2886
15267TIP3    H267293   4.606   3.986   1.658  1.4861  0.3783 -1.6498
15268TIP3   OH267294   5.055   5.549   4.392 -0.5820 -0.3779  0.5481
15268TIP3    H167295   5.068   5.619   4.456  0.0503  0.1407 -0.1385
15268TIP3    H267296   5.092   5.583   4.310 -1.3219 -1.0560 -0.0837
15269TIP3   OH267297   4.632   3.334   3.091 -0.5517 -0.2752  0.0066
15269TIP3    H167298   4.656   3.384   3.013  0.2051 -1.5763 -0.6075
15269TIP3    H267299   4.676   3.379   3.163 -0.2594  0.2217 -0.4817
15270TIP3   OH267300   5.167   2.076   3.522 -0.3988  0.8373  0.4701
15270TIP3    H167301   5.246   2.076   3.576  0.9554 -0.6471 -1.4658
15270TIP3    H267302   5.111   2.010   3.564  0.1659  0.5216  0.7440
15271TIP3   OH267303   2.793   5.406  11.005  0.4654 -0.2766 -0.5035
15271TIP3    H167304   2.789   5.311  11.006  0.2337 -0.2661 -0.4378
15271TIP3    H267305   2.702   5.435  11.007  0.5309 -0.0546 -0.6421
15272TIP3   OH267306   0.643   2.763  13.702 -0.2371  0.4127 -0.5760
15272TIP3    H167307   0.586   2.775  13.627 -0.0639  1.1944 -0.5928
15272TIP3    H267308   0.668   2.852  13.727  0.3947  0.1156 -0.1314
15273TIP3   OH267309   4.885   0.875  15.482  0.2810 -0.0894  0.1134
15273TIP3    H167310   4.821   0.858  15.551  0.8928  2.4217  1.3504
15273TIP3    H267311   4.936   0.794  15.475 -1.4696 -1.2584  0.7818
15274TIP3   OH267312   2.344   0.989  14.511 -0.8065  0.0075  0.1404
15274TIP3    H167313   2.354   0.923  14.580 -0.0286  0.3687  0.3798
15274TIP3    H267314   2.272   1.044  14.542 -0.2251  0.3855  0.8541
15275TIP3   OH267315   6.294   0.471  10.902 -0.6457 -0.6113 -0.5093
15275TIP3    H167316   6.224   0.517  10.857 -0.7410 -0.4908 -0.2413
15275TIP3    H267317   6.321   0.531  10.972 -0.2563 -0.6437 -0.6286
15276TIP3   OH267318   5.357   1.153   1.555  0.1823 -0.0895  0.2464
15276TIP3    H167319   5.442   1.128   1.593  0.4800  1.0006  0.3161
15276TIP3    H267320   5.292   1.121   1.618  0.5633 -0.4661  0.4546
15277TIP3   OH267321   3.201   5.801  13.315  0.0012  0.6462 -0.6065
15277TIP3    H167322   3.287   5.780  13.281 -0.7194  2.3866 -3.6823
15277TIP3    H267323   3.147   5.725  13.293  1.0831 -1.2755  2.9881
15278TIP3   OH267324   3.911   4.247  11.147  0.5282 -0.0269 -0.4820
15278TIP3    H167325   3.900   4.182  11.077 -0.8413 -0.1337 -0.1820
15278TIP3    H267326   3.847   4.316  11.125 -1.1782 -0.8905  1.5962
15279TIP3   OH267327   3.614   6.184  12.714  0.0646  0.2614  0.4599
15279TIP3    H167328   3.576   6.239  12.782  0.1749 -0.7292  1.3324
15279TIP3    H267329   3.616   6.096  12.752  0.0680 -0.3188 -0.8379
15280TIP3   OH267330   4.064   4.562   5.993 -0.6880 -0.5419  0.4652
15280TIP3    H167331   4.097   4.534   6.078 -1.5210 -0.8807  0.6838
15280TIP3    H267332   4.007   4.637   6.014 -2.8806 -2.1797  0.4906
15281TIP3   OH267333   4.553   4.387   6.217 -0.3559  0.0263 -0.5608
15281TIP3    H167334   4.521   4.347   6.298  0.3396  1.3783  0.4025
15281TIP3    H267335   4.482   4.374   6.154 -0.8637 -1.1142  0.2426
15282TIP3   OH267336   5.408   5.693   1.666 -0.1612 -0.2493 -0.0062
15282TIP3    H167337   5.500   5.667   1.664 -0.1659 -0.2329 -0.7279
15282TIP3    H267338   5.376   5.664   1.751  0.7119  0.4517  0.5577
15283TIP3   OH267339   2.771   0.273   2.088 -0.4114  0.0427 -0.6597
15283TIP3    H167340   2.720   0.315   2.020 -0.6351 -2.9310 -2.4108
15283TIP3    H267341   2.784   0.184   2.057  3.9628  0.0677  0.7391
15284TIP3   OH267342   0.737   1.407  17.022 -0.2855  0.0214  0.1322
15284TIP3    H167343   0.742   1.391  17.116 -1.8358 -0.1462  0.1949
15284TIP3    H267344   0.696   1.493  17.014  1.1574  0.6791 -0.3638
15285TIP3   OH267345   5.869   2.070  13.342 -0.0252 -0.6542 -0.1069
15285TIP3    H167346   5.806   2.136  13.375  1.6983  1.4608 -0.9323
15285TIP3    H267347   5.928   2.120  13.286  1.8937 -2.7776 -0.0134
15286TIP3   OH267348   5.746   4.252   4.026  0.3127 -0.3672  0.0427
15286TIP3    H167349   5.676   4.249   4.092  0.4794 -0.4131  0.2186
15286TIP3    H267350   5.824   4.221   4.073  0.3622 -0.7106 -0.2633
15287TIP3   OH267351   5.164   6.260  16.023 -0.5724 -0.1641 -0.1754
15287TIP3    H167352   5.112   6.306  15.957 -0.1754  0.5201 -0.0215
15287TIP3    H267353   5.154   6.167  16.002  1.0353  0.1125 -2.3353
15288TIP3   OH267354   6.134   0.970   1.381 -0.2203  0.0938  0.6662
15288TIP3    H167355   6.073   1.001   1.447  0.6751 -0.9209  2.0015
15288TIP3    H267356   6.166   0.886   1.415 -1.6750 -1.7350 -2.2551
15289TIP3   OH267357   3.994   0.866   0.557  0.2267  0.2395  0.4729
15289TIP3    H167358   4.065   0.804   0.575  0.3374 -0.0032 -0.7461
15289TIP3    H267359   4.026   0.949   0.590  0.8092 -0.0058  0.5298
15290TIP3   OH267360   3.217   3.820   1.664  0.2864  0.3715 -0.0753
15290TIP3    H167361   3.311   3.839   1.659  0.2572  0.1304 -2.6433
15290TIP3    H267362   3.191   3.850   1.751  2.6878  0.6720  0.5950
15291TIP3   OH267363   4.449   4.324   5.694 -0.3140 -0.1868  0.1382
15291TIP3    H167364   4.376   4.370   5.735 -0.6145 -1.6765  1.3044
15291TIP3    H267365   4.523   4.384   5.702 -1.1411  0.8865 -0.0938
15292TIP3   OH267366   0.822   6.705   2.571  0.3383 -0.0332  0.1525
15292TIP3    H167367   0.856   6.793   2.585  1.4103 -0.7451  2.3254
15292TIP3    H267368   0.734   6.717   2.535  0.8451  1.8983 -0.4481
15293TIP3   OH267369   6.330   1.058   3.346  0.5567 -0.6221 -0.4693
15293TIP3    H167370   6.395   1.128   3.337  1.6993 -1.9773 -3.8230
15293TIP3    H267371   6.381   0.981   3.370 -0.3136 -0.9068  0.4797
15294TIP3   OH267372   3.510   6.449   5.019 -0.1605  0.0234  0.3789
15294TIP3    H167373   3.498   6.375   5.079  1.6589  0.7029  1.6403
15294TIP3    H267374   3.528   6.524   5.077  0.4473  0.9348 -0.9603
15295TIP3   OH267375   5.804   6.245   5.668 -0.3019  0.2306 -0.2983
15295TIP3    H167376   5.877   6.183   5.672  0.0648  0.6435 -0.4808
15295TIP3    H267377   5.741   6.213   5.733  0.2089  0.0876  0.1272
15296TIP3   OH267378   0.573   0.661  16.259 -0.5786  0.3911 -0.0597
15296TIP3    H167379   0.490   0.626  16.228 -1.1814  1.1879  0.6282
15296TIP3    H267380   0.633   0.586  16.258 -0.7464  0.2440 -2.4668
15297TIP3   OH267381   1.318   5.401   1.734 -0.0884 -0.2992  0.0489
15297TIP3    H167382   1.389   5.442   1.684  0.5649 -1.4360  0.0160
15297TIP3    H267383   1.252   5.470   1.742  0.0952  0.1303 -1.7610
15298TIP3   OH267384   2.536   3.366  12.770 -0.0627 -0.0517 -0.0630
15298TIP3    H167385   2.624   3.329  12.762 -0.6378 -1.6539  0.7014
15298TIP3    H267386   2.519   3.407  12.685  0.8356 -1.0665 -0.7445
15299TIP3   OH267387   4.988   1.722   2.756 -0.6833  0.5901  0.1295
15299TIP3    H167388   5.000   1.629   2.734  1.8141  0.6818  0.9662
15299TIP3    H267389   5.040   1.769   2.691 -1.3340  1.3799  0.1733
15300TIP3   OH267390   4.042   2.039   2.829 -0.1837  0.4449 -0.1257
15300TIP3    H167391   4.011   2.045   2.919 -2.0734  2.1081 -0.8407
15300TIP3    H267392   3.964   2.055   2.776  0.4925 -2.4459 -2.0929
15301TIP3   OH267393   5.048   2.605  15.758 -0.2396  0.6874 -0.0612
15301TIP3    H167394   4.968   2.645  15.724 -0.9807 -0.1279  0.6727
15301TIP3    H267395   5.072   2.539  15.692 -1.6717 -0.8894  0.9459
15302TIP3   OH267396   0.673   1.816  16.162  0.3208  0.3247 -0.2169
15302TIP3    H167397   0.623   1.764  16.098  2.0736 -2.2474  0.4410
15302TIP3    H267398   0.759   1.826  16.122  0.1353  2.3873 -0.1263
15303TIP3   OH267399   1.866   4.738   5.017  0.6571  0.8955 -0.0709
15303TIP3    H167400   1.861   4.692   5.101 -1.5325  0.3376 -0.4680
15303TIP3    H267401   1.953   4.715   4.983  0.4601 -1.2247  0.7327
15304TIP3   OH267402   4.956   4.675  12.284 -0.4475  0.2207 -0.4511
15304TIP3    H167403   5.025   4.621  12.246 -0.3319 -0.2820  0.4400
15304TIP3    H267404   4.928   4.625  12.361 -0.3734  1.4150  0.3540
15305TIP3   OH267405   4.990   5.132  11.895 -0.6670 -0.1152  0.1172
15305TIP3    H167406   4.958   5.042  11.905  0.2704 -0.5252 -0.4917
15305TIP3    H267407   5.060   5.125  11.831 -0.2284  0.9750  0.4751
15306TIP3   OH267408   0.060   1.207  11.139 -0.4909 -0.0684 -0.2310
15306TIP3    H167409  -0.000   1.148  11.095 -0.2071  0.0660 -0.7945
15306TIP3    H267410   0.065   1.284  11.083 -0.6659  0.3877  0.3769
15307TIP3   OH267411   4.174   1.354   5.473 -0.6909  0.0872  0.3633
15307TIP3    H167412   4.107   1.289   5.495 -2.0822  1.4565  0.2210
15307TIP3    H267413   4.202   1.390   5.557  0.5261 -1.1076  0.4883
15308TIP3   OH267414   1.916   1.234  15.617  0.8292 -0.3299  0.2514
15308TIP3    H167415   1.872   1.282  15.547 -0.1355 -0.8379  0.4989
15308TIP3    H267416   1.986   1.186  15.574 -0.4524 -1.5157 -0.5498
15309TIP3   OH267417   5.512   6.603  17.272 -0.8451  0.4701 -0.0191
15309TIP3    H167418   5.435   6.595  17.217 -1.0320  0.5347  0.2328
15309TIP3    H267419   5.549   6.688  17.250 -1.1360  0.6621  0.2329
15310TIP3   OH267420   6.398   0.729  15.850  0.2830  0.0071  0.0480
15310TIP3    H167421   6.464   0.796  15.867  0.8405 -0.6113  0.3671
15310TIP3    H267422   6.377   0.694  15.937  0.8634 -1.0314 -0.2160
15311TIP3   OH267423   0.238   2.998   5.711 -0.1923 -0.8703  0.1222
15311TIP3    H167424   0.250   2.940   5.786  0.5420 -0.2532  0.4920
15311TIP3    H267425   0.270   2.948   5.636  1.3280 -0.5954  0.5753
15312TIP3   OH267426   6.322   6.313  16.732  0.0633 -0.0924  0.2911
15312TIP3    H167427   6.400   6.352  16.770  0.6395 -0.7122 -0.2474
15312TIP3    H267428   6.257   6.384  16.733  1.7038  1.5423 -2.5047
15313TIP3   OH267429   3.462   0.055  16.461 -0.4972 -0.3612 -0.0650
15313TIP3    H167430   3.380   0.064  16.509 -0.2792 -1.5949  0.5375
15313TIP3    H267431   3.445  -0.012  16.396  0.7567 -2.4553  1.6869
15314TIP3   OH267432   6.159   5.408   3.054 -0.3822 -0.1746 -0.2514
15314TIP3    H167433   6.103   5.485   3.063 -0.7963 -0.4351 -0.5685
15314TIP3    H267434   6.116   5.356   2.986  1.9492  1.1584 -2.8591
15315TIP3   OH267435   2.579   0.649   1.854 -0.7397  0.1880 -0.3108
15315TIP3    H167436   2.525   0.572   1.831  1.4521 -1.3932 -0.2841
15315TIP3    H267437   2.574   0.705   1.776 -1.0771 -0.7142 -0.9537
15316TIP3   OH267438   4.194   1.835  16.973  0.4334 -0.1015  0.2108
15316TIP3    H167439   4.227   1.755  17.013  0.5375 -0.5421 -0.7292
15316TIP3    H267440   4.145   1.879  17.042  2.5215  0.3064  1.4862
15317TIP3   OH267441   2.974   5.536   1.912 -0.1482 -0.1817  0.4110
15317TIP3    H167442   2.994   5.600   1.980 -0.4743  0.6790 -0.2952
15317TIP3    H267443   3.045   5.546   1.848 -1.6167  1.3346 -1.0058
15318TIP3   OH267444   2.261   2.965   4.336 -0.5100 -0.2444 -0.4302
15318TIP3    H167445   2.278   3.056   4.312  2.2598 -0.8115 -0.7925
15318TIP3    H267446   2.311   2.950   4.415 -0.8474 -1.4946 -0.4277
15319TIP3   OH267447   3.945   4.117  16.960 -0.5948 -0.9137 -0.5267
15319TIP3    H167448   3.907   4.087  17.042 -2.5027 -1.8424 -1.7066
15319TIP3    H267449   4.033   4.080  16.959  0.5702  1.6629  2.4807
15320TIP3   OH267450   3.865   2.563   3.235 -0.9510  0.1138  0.1967
15320TIP3    H167451   3.920   2.532   3.307 -0.0092 -1.0781 -1.0259
15320TIP3    H267452   3.776   2.540   3.262 -0.6950  0.5210  1.4053
15321TIP3   OH267453   3.314   1.909   5.716 -0.0906 -0.1037  0.8982
15321TIP3    H167454   3.246   1.967   5.681  0.2968 -0.6624 -0.8292
15321TIP3    H267455   3.268   1.827   5.735  0.2052 -0.7282 -0.9631
15322TIP3   OH267456   2.292   2.294  14.895 -0.1802 -0.0550 -0.0395
15322TIP3    H167457   2.286   2.217  14.838 -0.9356 -1.7382  2.2519
15322TIP3    H267458   2.383   2.321  14.890 -0.0781 -0.6219 -1.4603
15323TIP3   OH267459   6.469   6.116   5.734  0.5225 -0.0684  0.5542
15323TIP3    H167460   6.523   6.192   5.714 -0.2196  0.5174  0.7721
15323TIP3    H267461   6.488   6.054   5.664  1.7164  0.0068  0.8013
15324TIP3   OH267462   1.790   6.379  14.068 -0.0881 -0.1094  0.2890
15324TIP3    H167463   1.806   6.294  14.110 -0.4563 -0.1739  0.3010
15324TIP3    H267464   1.868   6.430  14.088  0.3256 -0.5914 -0.0831
15325TIP3   OH267465   1.003   3.827  15.333 -0.2515 -0.2826  0.5399
15325TIP3    H167466   0.942   3.876  15.388 -0.9562 -0.8825  0.3066
15325TIP3    H267467   1.037   3.891  15.271 -3.5742 -0.6863 -1.8147
15326TIP3   OH267468   1.807   5.009  13.288  0.0612 -0.7103 -0.6051
15326TIP3    H167469   1.716   5.007  13.318 -0.1194 -1.0200 -1.1766
15326TIP3    H267470   1.804   4.982  13.197  1.0996 -4.1740  0.2930
15327TIP3   OH267471   5.528   6.428  13.973 -0.4070  0.3562 -0.4914
15327TIP3    H167472   5.534   6.445  13.879  0.4761 -0.5617 -0.6116
15327TIP3    H267473   5.582   6.496  14.013 -0.2363  0.3374 -0.6910
15328TIP3   OH267474   6.095   6.360  12.497 -0.1481 -0.0457 -0.4400
15328TIP3    H167475   6.047   6.356  12.415  0.0180 -2.3384 -0.4462
15328TIP3    H267476   6.183   6.331  12.475  0.5456  1.5831  0.1025
15329TIP3   OH267477   5.166   5.300  14.984  0.3648  0.2385 -0.7613
15329TIP3    H167478   5.144   5.220  15.031  0.6622  0.3820 -0.3760
15329TIP3    H267479   5.092   5.315  14.926 -0.1452  0.2416 -0.1055
15330TIP3   OH267480   5.592   2.200  13.354  0.3061 -0.8521  0.2641
15330TIP3    H167481   5.529   2.132  13.374  1.2893 -2.0206 -0.5233
15330TIP3    H267482   5.565   2.275  13.407 -1.7096 -1.3355 -0.0646
15331TIP3   OH267483   4.154   6.619  14.502  0.0966 -0.1347  0.1447
15331TIP3    H167484   4.197   6.544  14.544  0.9790  1.0283  1.3784
15331TIP3    H267485   4.205   6.633  14.422  0.0611 -0.7034  0.0135
15332TIP3   OH267486   6.743   5.201   1.178 -0.0580  0.4064 -0.0044
15332TIP3    H167487   6.675   5.260   1.144  1.4003  3.1504  1.6466
15332TIP3    H267488   6.825   5.240   1.149  0.9196 -1.7008 -0.1681
15333TIP3   OH267489   2.945   5.392  16.134 -0.0461 -0.2649 -0.2433
15333TIP3    H167490   3.008   5.419  16.068  0.0301  0.8595  0.2893
15333TIP3    H267491   2.968   5.301  16.154 -0.4776 -0.8429 -2.2292
15334TIP3   OH267492   6.555   0.962  17.266 -0.0970 -0.0374  0.1745
15334TIP3    H167493   6.528   0.872  17.252  0.4730  0.1372 -2.2314
15334TIP3    H267494   6.639   0.956  17.311 -0.6111 -0.6681  1.0715
15335TIP3   OH267495   4.463   1.195   4.290 -0.0708  0.3827 -0.0917
15335TIP3    H167496   4.411   1.124   4.252  1.9032 -0.0617 -2.0254
15335TIP3    H267497   4.400   1.245   4.343 -2.8045  0.6518 -3.4546
15336TIP3   OH267498   0.414   4.242   4.171  0.0834  0.1568 -0.4038
15336TIP3    H167499   0.493   4.283   4.134 -0.2541  0.7697 -0.4517
15336TIP3    H267500   0.346   4.307   4.159 -0.5853 -0.6400 -0.9544
15337TIP3   OH267501   6.102   2.177   4.388  0.0287 -0.0101 -0.2769
15337TIP3    H167502   6.089   2.141   4.300  1.3651  0.9009 -0.8592
15337TIP3    H267503   6.036   2.246   4.395 -0.0985 -0.1004 -0.5578
15338TIP3   OH267504   4.042   3.899  15.408  0.7688 -0.0578  0.2076
15338TIP3    H167505   3.961   3.903  15.458 -0.0898  1.1379 -1.2515
15338TIP3    H267506   4.101   3.960  15.453 -0.8253  2.9499 -1.6319
15339TIP3   OH267507   1.465   0.658   5.595 -0.3446  0.4181  0.1537
15339TIP3    H167508   1.412   0.737   5.602 -0.5208  0.2026  1.3949
15339TIP3    H267509   1.420   0.604   5.530 -0.8852  0.8106  0.2014
15340TIP3   OH267510   5.168   0.391   4.275  0.2105 -0.1923  0.2310
15340TIP3    H167511   5.246   0.339   4.294  1.0478 -0.3167 -3.1844
15340TIP3    H267512   5.121   0.341   4.209 -1.2306  1.3295  0.0637
15341TIP3   OH267513   3.751   4.363  14.435 -0.7398 -0.0909 -0.2657
15341TIP3    H167514   3.783   4.426  14.370 -0.5466  0.4236  0.3254
15341TIP3    H267515   3.656   4.370  14.431 -0.6939  1.3487  0.8770
15342TIP3   OH267516   5.740   5.927  16.588  0.3456 -0.1062  0.3920
15342TIP3    H167517   5.664   5.961  16.635  0.6886  0.1370  0.7759
15342TIP3    H267518   5.736   5.832  16.601  0.4663 -0.0356  0.9546
15343TIP3   OH267519   1.104   3.052   5.661 -1.0131  0.4210  0.0230
15343TIP3    H167520   1.054   3.068   5.580 -0.7723  0.0598 -0.2019
15343TIP3    H267521   1.195   3.044   5.631 -1.1781 -1.9241  0.0289
15344TIP3   OH267522   5.800   6.616   0.078 -0.6543 -0.5669 -0.0040
15344TIP3    H167523   5.821   6.522   0.081 -0.2879 -0.5883 -2.2502
15344TIP3    H267524   5.713   6.620   0.038 -0.7668  0.0359  0.3016
15345TIP3   OH267525   6.106   0.975  15.056  0.2810  0.5660 -0.2763
15345TIP3    H167526   6.022   1.000  15.095  0.5927  0.7103  0.3243
15345TIP3    H267527   6.162   0.957  15.131  1.1127  1.5623 -0.6396
15346TIP3   OH267528   0.539   4.457   5.900  0.0096  0.2595 -0.3701
15346TIP3    H167529   0.545   4.517   5.975 -0.9344 -0.7551  0.5312
15346TIP3    H267530   0.630   4.445   5.872  0.6058 -1.0209  1.9753
15347TIP3   OH267531   0.670   4.237   0.079 -0.2529  0.2271  0.5799
15347TIP3    H167532   0.665   4.266   0.170  0.5258  1.0734  0.3514
15347TIP3    H267533   0.679   4.142   0.085  0.6188  0.3595  1.4043
15348TIP3   OH267534   1.183   0.734  15.175  0.6126  0.4737 -0.1854
15348TIP3    H167535   1.238   0.746  15.252 -0.4017  3.1443  0.2043
15348TIP3    H267536   1.180   0.821  15.135 -0.7763 -0.3440 -1.9275
15349TIP3   OH267537   5.632   3.578   4.547 -0.4686 -0.2100  0.4479
15349TIP3    H167538   5.706   3.535   4.590 -0.9053  0.6315  2.0732
15349TIP3    H267539   5.574   3.506   4.521  0.4219 -0.8050  0.0750
15350TIP3   OH267540   0.030   0.090   1.018  0.0074 -0.3310  0.2794
15350TIP3    H167541   0.055  -0.001   1.010  0.6909 -0.3865  2.7035
15350TIP3    H267542   0.113   0.138   1.024 -0.3681  0.2735  0.7228
15351TIP3   OH267543   0.237   2.436   3.053 -0.1210 -0.0063 -0.1678
15351TIP3    H167544   0.298   2.509   3.052  0.6625 -0.5795  1.8508
15351TIP3    H267545   0.151   2.476   3.060  0.2228  0.7432 -0.2294
15352TIP3   OH267546   3.390   3.265  15.171  0.5984 -0.5105 -0.7064
15352TIP3    H167547   3.326   3.213  15.122 -0.6744  0.9426 -0.6419
15352TIP3    H267548   3.453   3.295  15.106  1.4200 -2.2135 -0.7244
15353TIP3   OH267549   5.014   6.740  13.737 -0.7989 -0.3604  0.2936
15353TIP3    H167550   5.008   6.676  13.666  2.0528  1.1509 -1.4558
15353TIP3    H267551   5.101   6.726  13.775 -0.3057  2.0825  0.1740
15354TIP3   OH267552   6.421   4.306  11.800 -1.0883 -0.1091  0.0177
15354TIP3    H167553   6.414   4.382  11.742 -2.7654 -0.1602  0.1205
15354TIP3    H267554   6.394   4.232  11.745  1.5359 -0.8040 -0.3851
15355TIP3   OH267555   3.675   6.416  15.847 -0.0462  0.3134  0.1254
15355TIP3    H167556   3.698   6.444  15.758  0.9047 -1.0159 -0.0613
15355TIP3    H267557   3.579   6.412  15.846 -0.0595  0.6241 -0.7428
15356TIP3   OH267558   0.863   3.628  17.089  0.1457  0.1270 -0.3406
15356TIP3    H167559   0.958   3.637  17.091  0.2072 -0.2736 -1.1716
15356TIP3    H267560   0.842   3.615  16.996 -0.4824 -2.1574  0.0997
15357TIP3   OH267561   6.588   1.458  16.837  1.0379 -0.3450 -0.3466
15357TIP3    H167562   6.668   1.469  16.888  1.1084  1.1307 -0.7319
15357TIP3    H267563   6.606   1.504  16.755 -0.3917  0.5080 -0.2092
15358TIP3   OH267564   6.524   1.568   2.366  0.6227  0.3732 -0.1369
15358TIP3    H167565   6.620   1.559   2.371  0.4919 -1.1289 -0.1536
15358TIP3    H267566   6.499   1.512   2.294 -0.3155  0.5788  0.0304
15359TIP3   OH267567   3.199   0.973  11.659  0.0753  1.0465 -0.4392
15359TIP3    H167568   3.162   1.040  11.601  0.3020  0.7157 -0.9742
15359TIP3    H267569   3.159   0.891  11.629 -2.4160  1.2929  2.0687
15360TIP3   OH267570   5.656   3.667   3.506 -0.6720 -0.1782  0.3354
15360TIP3    H167571   5.742   3.629   3.489 -0.6342 -0.0103  0.1512
15360TIP3    H267572   5.641   3.650   3.599  0.2195  1.1034  0.7432
15361TIP3   OH267573   3.341   0.572  12.278 -0.2278  0.1684  0.6054
15361TIP3    H167574   3.304   0.613  12.357 -0.1914  0.8240  0.2895
15361TIP3    H267575   3.435   0.567  12.296  0.2852  3.5409 -0.7815
15362TIP3   OH267576   1.100   4.292   5.597 -0.0155  0.5233 -0.5972
15362TIP3    H167577   1.005   4.297   5.609 -0.1301  0.4850 -1.4811
15362TIP3    H267578   1.112   4.279   5.503  0.8868  1.1968 -0.5831
15363TIP3   OH267579   1.370   5.992   0.185  0.0736 -0.0438 -0.4580
15363TIP3    H167580   1.324   5.940   0.119  2.7230  1.7855 -3.8931
15363TIP3    H267581   1.398   5.928   0.250 -0.7054 -2.2664 -2.2484
15364TIP3   OH267582   5.635   0.714  14.755  0.0680 -0.6533 -0.0749
15364TIP3    H167583   5.621   0.724  14.661  0.1888  0.3204  0.0087
15364TIP3    H267584   5.676   0.628  14.763  1.3711 -0.1407 -1.0493
15365TIP3   OH267585   5.359   5.587  12.228  0.6399 -0.5087  0.3110
15365TIP3    H167586   5.365   5.669  12.178  0.4437 -1.0445 -0.6195
15365TIP3    H267587   5.424   5.530  12.187 -0.0720 -1.2160  0.1506
15366TIP3   OH267588   0.977   3.601  13.839  0.1670  0.6560 -0.0609
15366TIP3    H167589   0.908   3.612  13.774  0.4300 -0.3492 -0.5231
15366TIP3    H267590   0.932   3.601  13.923 -0.5924 -1.5728 -0.4357
15367TIP3   OH267591   2.884   0.805  11.656  0.6371  0.0562  0.3564
15367TIP3    H167592   2.820   0.735  11.640 -0.6557  1.1067  0.8364
15367TIP3    H267593   2.934   0.810  11.574  0.5036 -1.1712  0.1871
15368TIP3   OH267594   3.111   1.681  12.325 -0.3241 -0.2671 -0.1339
15368TIP3    H167595   3.045   1.719  12.267 -1.6001  0.2291  1.6080
15368TIP3    H267596   3.090   1.588  12.328 -0.2241 -0.3024 -0.4967
15369TIP3   OH267597   6.314   3.537   4.205 -0.6265  0.4936  0.2440
15369TIP3    H167598   6.273   3.491   4.131 -2.0495  0.2680  1.1598
15369TIP3    H267599   6.346   3.468   4.262 -0.4062  0.6667  0.3331
15370TIP3   OH267600   0.275   6.002   5.509  0.0968  0.3365  0.0482
15370TIP3    H167601   0.311   6.027   5.424 -0.1805 -1.1958 -0.5272
15370TIP3    H267602   0.352   5.983   5.563  0.2116 -1.4752 -0.7323
15371TIP3   OH267603   6.495   2.490   3.053 -0.6199 -0.6583 -0.6253
15371TIP3    H167604   6.494   2.509   2.959 -1.1753 -1.1856 -0.7295
15371TIP3    H267605   6.550   2.413   3.061  0.4441  0.1154 -0.3688
15372TIP3   OH267606   1.738   4.606  11.283  1.1003 -0.0435  0.7964
15372TIP3    H167607   1.792   4.603  11.362  1.9567  1.0109  0.2699
15372TIP3    H267608   1.666   4.664  11.306  1.7091  0.8069  0.6026
15373TIP3   OH267609   1.649   2.921  13.212 -0.1141  0.0393 -0.5158
15373TIP3    H167610   1.564   2.888  13.182  0.2360 -0.8025 -0.6159
15373TIP3    H267611   1.629   2.976  13.287 -0.8622  0.8989 -1.3319
15374TIP3   OH267612   4.789   5.840  17.290 -0.1433 -0.0600  0.6323
15374TIP3    H167613   4.790   5.922  17.339  0.8763  0.5176 -0.3449
15374TIP3    H267614   4.735   5.859  17.213  0.1522 -0.2881  0.3704
15375TIP3   OH267615   0.703   5.319   6.406 -0.7060 -0.4472  0.6738
15375TIP3    H167616   0.788   5.355   6.432 -0.8464  0.4836 -0.1250
15375TIP3    H267617   0.659   5.299   6.489 -0.5458  1.0332  1.1314
15376TIP3   OH267618   0.014   1.012   0.461 -0.2821 -0.7571  0.0195
15376TIP3    H167619   0.028   1.086   0.403 -0.1268 -0.9948 -0.2502
15376TIP3    H267620   0.100   0.971   0.469  0.0251  0.1657  1.6580
15377TIP3   OH267621   6.658   3.172   0.521 -0.4959 -0.3300  0.1454
15377TIP3    H167622   6.623   3.087   0.495 -2.9168  0.9107 -0.7850
15377TIP3    H267623   6.619   3.234   0.459  2.3396  1.3027 -0.0840
15378TIP3   OH267624   5.356   3.570   0.677  0.3057 -0.2232  0.0474
15378TIP3    H167625   5.348   3.663   0.700  0.9601  0.0935 -0.9704
15378TIP3    H267626   5.274   3.549   0.632  0.8297  0.3041 -1.1847
15379TIP3   OH267627   3.077   4.850  11.055 -0.3205  0.6243  0.4777
15379TIP3    H167628   3.167   4.872  11.032 -0.1141 -0.4440  0.2407
15379TIP3    H267629   3.083   4.766  11.100 -1.0354  1.3032  1.8813
15380TIP3   OH267630   2.346   2.589   3.023  0.1378  0.5502  0.1911
15380TIP3    H167631   2.437   2.580   3.052  0.9014  1.3590 -1.8728
15380TIP3    H267632   2.298   2.527   3.078  1.2568  3.1046  4.2630
15381TIP3   OH267633   2.129   5.446   2.247  0.0754 -0.6071 -0.3320
15381TIP3    H167634   2.194   5.405   2.190  0.0559 -0.4889 -0.4389
15381TIP3    H267635   2.167   5.438   2.335  0.1804 -0.6432 -0.3805
15382TIP3   OH267636   1.930   4.295   6.238 -0.4617 -0.2056 -0.1203
15382TIP3    H167637   1.881   4.216   6.261 -0.9557  0.1643  0.1090
15382TIP3    H267638   2.019   4.277   6.268 -0.7602 -0.3334  0.7055
15383TIP3   OH267639   6.629   4.331   6.526  0.2603 -0.2094  0.2322
15383TIP3    H167640   6.663   4.390   6.459  2.1350  1.6227  2.6796
15383TIP3    H267641   6.699   4.325   6.591 -2.7733  1.1159  3.9014
15384TIP3   OH267642   5.627   1.342   4.552 -0.1767  0.0145 -0.1879
15384TIP3    H167643   5.593   1.298   4.630 -1.1022 -0.4830 -0.8592
15384TIP3    H267644   5.659   1.426   4.584  1.1515 -0.9331  1.0250
15385TIP3   OH267645   3.568   2.449  12.878  0.0696 -0.0920 -0.1184
15385TIP3    H167646   3.511   2.377  12.905  1.1571 -0.3452  1.6046
15385TIP3    H267647   3.656   2.411  12.881  0.4419  0.6030 -1.6688
15386TIP3   OH267648   0.467   1.073   5.607 -0.2326 -0.1674  0.4790
15386TIP3    H167649   0.503   1.104   5.690  1.1641  0.1213 -0.2284
15386TIP3    H267650   0.525   1.110   5.541 -1.9774  0.5204 -0.6938
15387TIP3   OH267651   0.399   5.691  11.211 -0.2452 -0.0493 -0.1663
15387TIP3    H167652   0.457   5.615  11.206 -2.5815 -1.9430  0.5860
15387TIP3    H267653   0.392   5.722  11.121  0.2531 -1.0820 -0.5712
15388TIP3   OH267654   3.154   4.141  11.819  0.2304 -0.3807 -0.1939
15388TIP3    H167655   3.203   4.059  11.814 -0.8796 -1.1046  0.4292
15388TIP3    H267656   3.174   4.176  11.905 -1.9979 -1.7876  0.9621
15389TIP3   OH267657   2.228   3.897   1.318 -0.3479  0.3248  0.4479
15389TIP3    H167658   2.230   3.889   1.223 -2.5058 -1.1792  0.5033
15389TIP3    H267659   2.192   3.984   1.334  0.2000  0.6575 -0.0891
15390TIP3   OH267660   2.368   3.710   4.148  0.1458  0.1990  0.0025
15390TIP3    H167661   2.432   3.763   4.195  0.6235 -0.8009  0.5060
15390TIP3    H267662   2.303   3.772   4.116  0.2352  0.9712  1.3225
15391TIP3   OH267663   3.139   6.377   0.198  0.3812 -0.6799  0.2478
15391TIP3    H167664   3.177   6.464   0.185  2.2773 -1.4726  0.4203
15391TIP3    H267665   3.107   6.352   0.111 -0.8084  0.4595  0.3365
15392TIP3   OH267666   1.874   0.120   4.675  0.3672  0.3268  0.0320
15392TIP3    H167667   1.906   0.047   4.622 -1.4150 -0.1847 -0.3841
15392TIP3    H267668   1.826   0.077   4.746 -2.7121  1.1103 -1.5187
15393TIP3   OH267669   2.975   3.585   5.529 -0.1071 -0.1942 -0.6164
15393TIP3    H167670   2.944   3.558   5.616 -0.8839  1.1765 -0.4552
15393TIP3    H267671   3.065   3.615   5.544  0.6453 -2.2806 -0.7371
15394TIP3   OH267672   4.173   1.771   2.942 -0.4703 -0.1991 -0.4058
15394TIP3    H167673   4.151   1.746   3.031  2.1408  1.1346  0.6829
15394TIP3    H267674   4.096   1.818   2.910 -1.4923 -0.8288  1.0853
15395TIP3   OH267675   1.825   2.731  12.247 -0.4679 -0.0355  0.4890
15395TIP3    H167676   1.773   2.695  12.319 -1.9083  0.5115 -0.2589
15395TIP3    H267677   1.761   2.776  12.192  0.6029 -0.5140 -1.1757
15396TIP3   OH267678   0.316   5.851  10.993  0.3410 -0.0085 -0.1951
15396TIP3    H167679   0.331   5.936  11.035  0.8278 -0.1226 -0.1288
15396TIP3    H267680   0.308   5.871  10.900  1.5061  0.0026 -0.3076
15397TIP3   OH267681   3.991   4.102   3.497 -0.0118 -0.7280 -0.0900
15397TIP3    H167682   4.016   4.041   3.427  0.1988 -0.6446 -0.0866
15397TIP3    H267683   4.054   4.173   3.491  0.6534 -1.2170  0.8451
15398TIP3   OH267684   0.675   2.178  16.768  0.5754  1.0230 -0.5309
15398TIP3    H167685   0.609   2.213  16.709 -1.2998 -1.6960 -0.1340
15398TIP3    H267686   0.699   2.093  16.730  2.3578  1.0617  0.4264
15399TIP3   OH267687   6.003   5.620   5.001 -0.7508  0.3032  0.2170
15399TIP3    H167688   6.061   5.638   4.927 -0.3964 -0.2596  0.3559
15399TIP3    H267689   5.963   5.705   5.021 -0.6947  0.5018 -0.4863
15400TIP3   OH267690   3.879   4.333  13.557 -0.0404 -0.4182 -0.0131
15400TIP3    H167691   3.939   4.267  13.590 -0.7307 -1.3776 -0.6634
15400TIP3    H267692   3.798   4.286  13.539  0.3055  0.0804 -3.0652
15401TIP3   OH267693   2.120   2.666   2.553  0.1138 -0.5925 -0.3909
15401TIP3    H167694   2.132   2.606   2.627  0.5037  0.2177  0.2071
15401TIP3    H267695   2.170   2.744   2.577 -1.5074  0.5014 -0.5696
15402TIP3   OH267696   0.381   1.005   3.770  0.8897 -0.3827 -0.4441
15402TIP3    H167697   0.351   0.946   3.701 -0.7622 -0.0609 -0.0286
15402TIP3    H267698   0.476   1.009   3.759  0.5974  0.1041 -3.0355
15403TIP3   OH267699   0.032   3.004  13.064  0.0923  0.2728  0.3077
15403TIP3    H167700   0.067   3.063  13.131  1.3025 -0.3876  0.2632
15403TIP3    H267701  -0.032   3.057  13.017  0.2797  1.1751  1.0546
15404TIP3   OH267702   0.494   0.410  15.968  0.1707 -0.0297 -0.5044
15404TIP3    H167703   0.557   0.466  15.922  0.0989  0.1863 -0.3369
15404TIP3    H267704   0.463   0.349  15.900 -0.2773  0.5798 -0.8528
15405TIP3   OH267705   0.555   1.902  15.420 -0.0963 -0.3308 -0.0248
15405TIP3    H167706   0.623   1.922  15.356  0.7458 -0.1123  0.9297
15405TIP3    H267707   0.481   1.873  15.368  1.1623 -1.8335 -1.0102
15406TIP3   OH267708   2.697   4.347   3.346 -0.0465  0.0277 -0.3687
15406TIP3    H167709   2.721   4.258   3.371  1.9760  1.4427  3.0073
15406TIP3    H267710   2.711   4.399   3.425 -1.3444  3.3280 -2.2209
15407TIP3   OH267711   4.006   5.368   6.349  0.4846  0.0269 -0.5499
15407TIP3    H167712   4.096   5.379   6.378  0.8079  0.7013 -1.7765
15407TIP3    H267713   3.987   5.275   6.364  0.1367  0.5945  3.1181
15408TIP3   OH267714   4.247   4.770  16.610 -0.5240  0.7914  0.1251
15408TIP3    H167715   4.330   4.794  16.650 -0.3169 -1.2703  1.0069
15408TIP3    H267716   4.197   4.728  16.681  0.0570 -3.4190 -1.7947
15409TIP3   OH267717   4.489   2.923  12.852  0.2749 -0.5617 -0.0849
15409TIP3    H167718   4.447   3.004  12.880  1.2770 -0.3331  0.7998
15409TIP3    H267719   4.541   2.949  12.775  0.0952 -0.5024 -0.1869
15410TIP3   OH267720   5.788   5.958  17.017  0.9263  0.2468  0.3523
15410TIP3    H167721   5.871   5.984  17.055  0.1690 -0.5308  2.5781
15410TIP3    H267722   5.809   5.884  16.960  1.5954 -0.7148  1.8230
15411TIP3   OH267723   3.656   4.678   5.188 -0.1535  0.2593 -0.2929
15411TIP3    H167724   3.683   4.586   5.182  0.6116  0.4805 -0.3030
15411TIP3    H267725   3.656   4.708   5.097 -0.5907  0.2198 -0.3073
15412TIP3   OH267726   4.369   4.499   3.492  0.3043  0.3822  0.0998
15412TIP3    H167727   4.331   4.584   3.469  0.0719 -0.3928 -2.6001
15412TIP3    H267728   4.453   4.497   3.445  2.2124  0.7152  3.3417
15413TIP3   OH267729   0.064   5.503  15.324  0.4215  0.4012 -0.3720
15413TIP3    H167730   0.075   5.537  15.413  2.9691 -0.6567 -0.2565
15413TIP3    H267731   0.052   5.409  15.336  0.4581  0.2975 -1.1393
15414TIP3   OH267732   3.668   3.097   1.009 -0.3004  0.5063  0.2475
15414TIP3    H167733   3.598   3.119   1.070 -0.2287 -0.6857  0.7704
15414TIP3    H267734   3.649   3.007   0.982  0.0565  0.7850 -0.9555
15415TIP3   OH267735   5.983   0.686   5.119 -0.3158 -0.5685 -0.0392
15415TIP3    H167736   6.051   0.682   5.052 -0.6005 -1.7677 -0.2835
15415TIP3    H267737   5.968   0.594   5.143 -0.9861 -0.2285  0.8809
15416TIP3   OH267738   4.969   6.414   3.407 -0.5597 -0.1985  0.2098
15416TIP3    H167739   5.022   6.472   3.461  1.6269 -2.6773  0.8188
15416TIP3    H267740   4.940   6.468   3.333  0.4786  1.9219  1.3422
15417TIP3   OH267741   0.522   6.541   1.571  0.1172  0.0952 -0.5691
15417TIP3    H167742   0.441   6.563   1.617 -0.3223  0.3979 -1.4619
15417TIP3    H267743   0.540   6.451   1.595 -0.5455 -0.0043 -0.4339
15418TIP3   OH267744   2.408   5.605   5.584 -0.2565  0.2786 -0.0163
15418TIP3    H167745   2.455   5.655   5.650  0.9825 -0.2765 -0.4575
15418TIP3    H267746   2.348   5.668   5.544 -1.3512  0.5079  1.9280
15419TIP3   OH267747   1.843   4.317   2.570 -0.4160  0.2159  0.0995
15419TIP3    H167748   1.835   4.263   2.649  1.4158  0.3890  0.4190
15419TIP3    H267749   1.802   4.401   2.593  0.5398  0.4280  1.0284
15420TIP3   OH267750   4.554   4.399  15.148  0.1944  0.0686 -0.0966
15420TIP3    H167751   4.551   4.437  15.061 -1.1841  1.1055  0.3974
15420TIP3    H267752   4.560   4.304  15.133 -0.6327  0.2091 -1.3057
15421TIP3   OH267753   6.356   1.668  13.177 -0.2027  0.3473 -0.3902
15421TIP3    H167754   6.294   1.716  13.232  0.4369  1.3764 -0.5549
15421TIP3    H267755   6.303   1.602  13.133 -0.9123  0.2278  0.6354
15422TIP3   OH267756   1.703   3.448   5.712 -0.5888  0.1414  0.1266
15422TIP3    H167757   1.743   3.516   5.766 -0.2183  0.4945 -0.5742
15422TIP3    H267758   1.640   3.495   5.657  0.2006  0.0454 -0.8863
15423TIP3   OH267759   6.734   6.609   4.414 -0.3103 -0.2476 -0.3311
15423TIP3    H167760   6.661   6.643   4.362  0.4609  0.5763 -0.8951
15423TIP3    H267761   6.740   6.517   4.390 -2.1361 -0.7166  0.8716
15424TIP3   OH267762   6.702   0.843   5.360  0.1804  0.4096  0.2111
15424TIP3    H167763   6.798   0.848   5.363  0.1777  0.9513 -0.4655
15424TIP3    H267764   6.677   0.908   5.295 -0.6012 -0.3386 -0.2426
15425TIP3   OH267765   1.275   0.469   4.785  0.1089 -0.0331  0.0769
15425TIP3    H167766   1.250   0.413   4.858  1.4322  0.1542  0.6868
15425TIP3    H267767   1.253   0.558   4.814  0.6148  0.0392  0.2485
15426TIP3   OH267768   4.668   3.062  13.004 -0.7565 -0.5917 -0.2699
15426TIP3    H167769   4.622   2.987  12.968 -0.4992 -1.1965  0.6469
15426TIP3    H267770   4.752   3.065  12.957  0.1308 -2.1587  1.1626
15427TIP3   OH267771   0.733   4.470  16.460  0.4607  0.1343  0.2981
15427TIP3    H167772   0.792   4.465  16.385  0.0189 -0.4137 -0.0224
15427TIP3    H267773   0.654   4.511  16.426 -0.4654 -1.8342 -0.0253
15428TIP3   OH267774   5.813   5.681  13.127  0.2651  0.5559 -0.0116
15428TIP3    H167775   5.901   5.698  13.159  0.1164 -0.8160  1.2112
15428TIP3    H267776   5.772   5.629  13.197 -1.6381  1.5066 -0.3725
15429TIP3   OH267777   0.280   4.604  14.102  0.0633  0.0104 -0.1513
15429TIP3    H167778   0.193   4.576  14.072 -0.0813  0.9044 -0.5890
15429TIP3    H267779   0.332   4.523  14.103 -0.2828 -0.2473 -1.6278
15430TIP3   OH267780   0.326   5.405  11.647 -0.1773 -0.1653 -0.0347
15430TIP3    H167781   0.324   5.412  11.743  1.1412 -0.4178  0.0215
15430TIP3    H267782   0.308   5.494  11.616  2.4179  0.5809  0.5025
15431TIP3   OH267783   5.390   6.186  11.307  0.2167 -0.0143 -0.0600
15431TIP3    H167784   5.309   6.200  11.355  0.3327 -1.1405  0.4843
15431TIP3    H267785   5.364   6.142  11.226  0.0452  1.6963 -0.9580
15432TIP3   OH267786   0.627   4.722  11.988 -0.1065  0.2737 -0.5463
15432TIP3    H167787   0.628   4.781  11.912  0.7346  1.8949  0.6911
15432TIP3    H267788   0.540   4.681  11.984 -0.7170  1.5918 -1.4551
15433TIP3   OH267789   4.987   2.652   1.294 -0.2893 -0.2568 -0.2070
15433TIP3    H167790   5.033   2.730   1.262 -0.4172  0.3680  1.1280
15433TIP3    H267791   4.977   2.598   1.216 -0.6130  1.2682 -1.2673
15434TIP3   OH267792   3.542   5.407  13.401 -0.2529  0.2593 -0.3179
15434TIP3    H167793   3.605   5.349  13.445 -0.2808  0.9483  0.6510
15434TIP3    H267794   3.533   5.481  13.461  0.5906  1.7717 -2.0411
15435TIP3   OH267795   5.558   3.279  12.258 -0.2021  0.4169  0.5465
15435TIP3    H167796   5.576   3.316  12.344 -0.3408  0.4730  0.5514
15435TIP3    H267797   5.481   3.223  12.272 -0.7128  1.0428  0.2957
15436TIP3   OH267798   5.460   0.916  15.937  0.1974 -0.1074  0.1926
15436TIP3    H167799   5.397   0.870  15.992 -0.3356  0.5391  0.1281
15436TIP3    H267800   5.450   1.008  15.961  1.5307 -0.0625  0.5976
15437TIP3   OH267801   5.305   1.769  13.148  0.2798 -0.1573  0.3455
15437TIP3    H167802   5.213   1.743  13.141 -0.1941  1.1595  1.4257
15437TIP3    H267803   5.302   1.865  13.150  1.7526 -0.0847 -0.4891
15438TIP3   OH267804   1.942   3.754  11.712 -1.1043  0.4353  0.0707
15438TIP3    H167805   1.846   3.752  11.707 -1.1293  0.5213  0.4787
15438TIP3    H267806   1.963   3.847  11.721 -1.0279  0.3505  0.7995
15439TIP3   OH267807   3.111   0.176   4.739  0.0275 -0.1369 -0.2616
15439TIP3    H167808   3.136   0.122   4.664  0.4550 -0.9244  0.4333
15439TIP3    H267809   3.162   0.139   4.812 -0.5465  0.4799  0.4494
15440TIP3   OH267810   5.407   0.393  16.252 -0.0980  0.4235  0.2370
15440TIP3    H167811   5.328   0.365  16.206 -0.8218 -2.6459  3.1302
15440TIP3    H267812   5.464   0.316  16.250  1.9763  1.9111  0.0652
15441TIP3   OH267813   1.435   0.964  15.073  0.7700 -0.0245  0.1914
15441TIP3    H167814   1.525   0.996  15.063  1.8142 -2.3657  1.4143
15441TIP3    H267815   1.432   0.931  15.163 -1.0997 -0.6541 -0.0782
15442TIP3   OH267816   5.790   2.030   4.394  0.5462  0.1667 -0.3869
15442TIP3    H167817   5.782   2.115   4.437  2.6708 -0.0425  0.4515
15442TIP3    H267818   5.745   2.042   4.310 -0.1060  1.7894  0.1787
15443TIP3   OH267819   5.438   2.342  17.121  0.1436  0.8950 -0.0291
15443TIP3    H167820   5.491   2.302  17.053 -1.9233  1.1052 -1.8317
15443TIP3    H267821   5.432   2.434  17.096 -1.1291  0.8587  0.0866
15444TIP3   OH267822   2.046   3.009  10.973  0.3016  0.8320 -0.1126
15444TIP3    H167823   1.989   3.050  10.909  2.6763  3.3280 -0.7169
15444TIP3    H267824   2.111   2.961  10.922  2.7627  3.5795  0.2580
15445TIP3   OH267825   5.795   3.160  16.638  0.2226  0.0430 -0.2112
15445TIP3    H167826   5.862   3.226  16.621 -1.3998  1.6310 -0.6695
15445TIP3    H267827   5.787   3.159  16.734  0.0425  0.7453 -0.2145
15446TIP3   OH267828   5.890   3.916  11.918 -0.2320 -0.2725  0.0628
15446TIP3    H167829   5.967   3.972  11.910  0.3346 -1.2107 -1.3721
15446TIP3    H267830   5.845   3.925  11.834 -0.5869 -1.2756  0.1343
15447TIP3   OH267831   3.468   4.352  15.976 -0.0084 -0.0806  0.2331
15447TIP3    H167832   3.373   4.351  15.991 -0.2441  0.3727 -1.1588
15447TIP3    H267833   3.492   4.260  15.971  0.2408 -0.3015  4.1885
15448TIP3   OH267834   4.895   1.080  14.855  0.3780 -0.1906 -0.1769
15448TIP3    H167835   4.970   1.049  14.906 -0.4146 -0.4873  0.8407
15448TIP3    H267836   4.877   1.010  14.792  2.0061  0.6282 -1.5521
15449TIP3   OH267837   2.159   1.001   4.757 -0.0508  0.1515  0.0968
15449TIP3    H167838   2.092   1.017   4.823 -0.7389 -0.3545 -0.4733
15449TIP3    H267839   2.127   1.046   4.679  0.8363  0.8863  0.1379
15450TIP3   OH267840   1.370   2.335  15.633  0.3826 -0.4502 -0.0496
15450TIP3    H167841   1.306   2.326  15.703  0.4393  0.1118  0.0785
15450TIP3    H267842   1.328   2.392  15.569  0.3317 -0.9627 -0.4778
15451TIP3   OH267843   5.841   5.849   5.064  0.0223 -0.0424 -0.2698
15451TIP3    H167844   5.828   5.910   5.136  2.1611 -0.9474  0.9402
15451TIP3    H267845   5.770   5.785   5.074 -1.1388  1.1949 -0.4552
15452TIP3   OH267846   4.449   0.931  15.014 -0.0368 -0.2280 -0.2311
15452TIP3    H167847   4.452   0.846  14.971  0.8638  0.1924 -1.0201
15452TIP3    H267848   4.520   0.981  14.973 -0.9122  1.0820 -0.1579
15453TIP3   OH267849   1.205   4.389  15.580 -0.1972  0.3440  0.0743
15453TIP3    H167850   1.286   4.381  15.629 -0.6216 -0.3637  0.6650
15453TIP3    H267851   1.203   4.312  15.523  0.5199  1.3910 -1.4130
15454TIP3   OH267852   4.954   3.706   2.489  0.4442  0.8517  0.4985
15454TIP3    H167853   4.869   3.750   2.478 -0.0773  0.0398  1.2248
15454TIP3    H267854   4.942   3.622   2.444  0.1104 -0.2047  2.5044
15455TIP3   OH267855   5.524   3.072   6.327  0.8024  0.2157 -0.2879
15455TIP3    H167856   5.564   3.052   6.243  1.7064  0.3333  0.1078
15455TIP3    H267857   5.573   3.148   6.360 -0.0657  0.6721 -0.0165
15456TIP3   OH267858   0.557   2.192   3.638  0.4580  0.2600 -0.2187
15456TIP3    H167859   0.539   2.104   3.671  1.5304 -0.5740 -1.8005
15456TIP3    H267860   0.652   2.196   3.630  0.3829  1.4038 -0.6142
15457TIP3   OH267861   6.228   0.082  16.915  0.1852 -0.4824 -0.8131
15457TIP3    H167862   6.319   0.079  16.884  0.7183  0.2923  0.6101
15457TIP3    H267863   6.177   0.104  16.838  1.4363  1.0305 -1.2276
15458TIP3   OH267864   4.714   1.903  16.541  0.8803  0.0607  0.5358
15458TIP3    H167865   4.742   1.862  16.459 -0.1981 -1.6247  0.9750
15458TIP3    H267866   4.752   1.847  16.609  0.5317  0.5954  1.1699
15459TIP3   OH267867   2.701   5.482  12.627 -0.2382 -0.1471  0.0499
15459TIP3    H167868   2.658   5.550  12.680 -0.1494  0.7196 -0.9805
15459TIP3    H267869   2.790   5.514  12.616 -1.1306  1.3449 -3.4254
15460TIP3   OH267870   6.068   6.017   0.576 -0.8908  0.4788 -0.1836
15460TIP3    H167871   6.152   6.056   0.555 -1.1386  0.7621 -0.6582
15460TIP3    H267872   6.008   6.091   0.585 -1.3190  0.2253 -0.8987
15461TIP3   OH267873   1.494   3.834  16.836 -0.2971 -0.1819 -0.4141
15461TIP3    H167874   1.462   3.812  16.749 -1.8738 -2.3567  0.6730
15461TIP3    H267875   1.482   3.754  16.888  2.4312  0.4437  1.3063
15462TIP3   OH267876   6.083   1.613  15.304 -0.1739  0.6531 -0.4334
15462TIP3    H167877   6.068   1.612  15.210  1.8427 -1.7023 -0.7500
15462TIP3    H267878   6.025   1.544  15.339  0.9305 -0.1908 -0.2526
15463TIP3   OH267879   5.185   0.213  16.548 -0.3021  0.0875  0.8352
15463TIP3    H167880   5.177   0.174  16.461  0.8357 -2.0187  1.6201
15463TIP3    H267881   5.260   0.272  16.541  1.0223 -1.5504  0.8646
15464TIP3   OH267882   3.205   6.279  12.740 -0.1488 -0.2600  0.3301
15464TIP3    H167883   3.156   6.359  12.755  0.5137 -0.6265  4.9634
15464TIP3    H267884   3.282   6.286  12.796  0.6027 -3.5630 -0.1581
15465TIP3   OH267885   3.442   6.187  11.554 -0.8390  0.1597 -0.1177
15465TIP3    H167886   3.480   6.255  11.610  0.9985 -0.7077 -0.3009
15465TIP3    H267887   3.502   6.181  11.480 -1.7940 -0.6430 -0.8336
15466TIP3   OH267888   0.546   4.127  12.536 -0.1825  0.6958  0.1072
15466TIP3    H167889   0.494   4.194  12.580 -0.3417 -0.5483  1.8940
15466TIP3    H267890   0.637   4.157  12.545 -0.4535  2.1347 -1.7229
15467TIP3   OH267891   2.487   5.330  11.847  0.0122 -0.2482  0.4954
15467TIP3    H167892   2.524   5.416  11.827 -1.2634 -0.1591 -1.5985
15467TIP3    H267893   2.412   5.350  11.904 -0.9885  0.1296 -0.9431
15468TIP3   OH267894   4.288   6.018   5.195 -0.5429 -0.1800 -0.4207
15468TIP3    H167895   4.327   5.939   5.232  0.6250 -0.3352 -1.9368
15468TIP3    H267896   4.197   5.995   5.178 -0.8474 -0.4012  1.4320
15469TIP3   OH267897   6.132   1.323  14.840  0.0924  0.8739  0.6443
15469TIP3    H167898   6.110   1.251  14.781  0.4351  0.1089  1.4379
15469TIP3    H267899   6.082   1.397  14.806 -1.1374 -0.0122  0.4703
15470TIP3   OH267900   0.368   1.474   0.172 -0.0949  0.0280  0.3932
15470TIP3    H167901   0.292   1.417   0.158 -0.0502  0.3001 -1.1102
15470TIP3    H267902   0.437   1.414   0.202 -0.0419 -0.7320 -1.1808
15471TIP3   OH267903   3.398   4.806   4.375  0.1578 -0.3283  0.1812
15471TIP3    H167904   3.375   4.825   4.284  0.2489  0.1726  0.2615
15471TIP3    H267905   3.413   4.892   4.414 -2.6151 -0.3699  1.4137
15472TIP3   OH267906   6.810   1.148  14.004 -0.1572  0.1181 -0.1119
15472TIP3    H167907   6.752   1.085  13.961 -0.3726 -0.0748  0.4495
15472TIP3    H267908   6.847   1.099  14.078 -1.5479  1.1108  1.2799
15473TIP3   OH267909   0.519   1.411  11.343  0.2725 -0.3023 -0.3800
15473TIP3    H167910   0.487   1.499  11.323 -1.0124 -0.5826  0.3485
15473TIP3    H267911   0.488   1.357  11.271  1.2228 -0.1346 -0.9239
15474TIP3   OH267912   5.218   0.287   5.362 -0.2493  0.2800  0.2837
15474TIP3    H167913   5.244   0.195   5.351 -1.3882  0.0440 -0.5215
15474TIP3    H267914   5.290   0.327   5.410  0.8841 -0.7227 -0.5608
15475TIP3   OH267915   2.286   3.947   5.351  0.3892  0.3889 -0.3732
15475TIP3    H167916   2.370   3.905   5.330 -0.6303 -1.6629 -0.4425
15475TIP3    H267917   2.301   3.986   5.437  1.2622 -0.4233 -0.1389
15476TIP3   OH267918   5.349   5.464  14.509  0.8324  0.5263 -0.5090
15476TIP3    H167919   5.398   5.510  14.441  1.4285 -0.1680 -0.5501
15476TIP3    H267920   5.403   5.388  14.532  0.1527  0.1812 -0.0019
15477TIP3   OH267921   6.068   4.521  15.690  0.2910  0.1385  0.2455
15477TIP3    H167922   6.153   4.478  15.683  0.3324  0.2545  0.0530
15477TIP3    H267923   6.012   4.475  15.627  0.0832 -0.2521  0.7140
15478TIP3   OH267924   0.030   3.814   2.906 -0.0855  0.0064 -0.0156
15478TIP3    H167925  -0.028   3.774   2.840 -1.5957 -0.0135  1.2787
15478TIP3    H267926   0.020   3.908   2.893  0.0291 -0.0022 -0.1660
15479TIP3   OH267927   5.297   4.925   2.401 -0.3657 -0.2749 -0.2461
15479TIP3    H167928   5.351   5.003   2.395  0.8249 -0.8593  2.0785
15479TIP3    H267929   5.334   4.864   2.337  0.9914 -0.2178  0.4623
15480TIP3   OH267930   3.414   3.881   5.768  0.2147 -0.3566 -0.5829
15480TIP3    H167931   3.498   3.870   5.813 -0.7059 -1.2890  0.9436
15480TIP3    H267932   3.368   3.948   5.818  0.5093  1.0782 -2.1584
15481TIP3   OH267933   2.635   6.549  14.238  0.0752  0.0318  0.3208
15481TIP3    H167934   2.572   6.556  14.166  0.8263 -1.5199 -0.5146
15481TIP3    H267935   2.581   6.534  14.316 -0.6545  0.0060 -0.1844
15482TIP3   OH267936   6.583   0.335   3.498  0.4810  0.3108  0.2272
15482TIP3    H167937   6.635   0.274   3.549 -1.6814 -1.3343  0.5543
15482TIP3    H267938   6.596   0.420   3.541  1.1381 -0.4720  1.6053
15483TIP3   OH267939   1.458   3.011  13.851 -0.3367 -0.3743 -0.0521
15483TIP3    H167940   1.467   3.066  13.929 -2.6031  1.3210 -0.9320
15483TIP3    H267941   1.536   2.955  13.852  0.3090  0.4980  2.7209
15484TIP3   OH267942   6.506   1.254   3.313 -0.3726  0.1662 -0.0880
15484TIP3    H167943   6.563   1.329   3.327  1.9771 -1.6974  0.7868
15484TIP3    H267944   6.452   1.278   3.239 -0.0674  2.9366  0.5305
15485TIP3   OH267945   4.359   3.152  16.553 -0.2068 -0.6345  0.1627
15485TIP3    H167946   4.322   3.224  16.502 -0.6665 -0.0559  1.2914
15485TIP3    H267947   4.403   3.196  16.627  1.8831 -1.3478 -0.6098
15486TIP3   OH267948   2.034   5.487  11.734 -0.3900  0.1094 -0.1818
15486TIP3    H167949   1.981   5.565  11.754 -0.5844 -0.4546  1.6487
15486TIP3    H267950   1.970   5.420  11.709 -0.2804  0.3486 -1.0915
15487TIP3   OH267951   1.324   4.901   5.801 -0.2505  0.1900 -0.0428
15487TIP3    H167952   1.414   4.908   5.769 -0.8071  0.3124 -1.6324
15487TIP3    H267953   1.332   4.903   5.896  1.4083  0.4432 -0.1744
15488TIP3   OH267954   0.471   4.050  16.234  0.7879  0.3538  0.8709
15488TIP3    H167955   0.471   4.145  16.224  0.1550  0.3260  0.5556
15488TIP3    H267956   0.461   4.036  16.329  0.1773  0.6008  0.8479
15489TIP3   OH267957   5.467   0.390   2.296 -0.4835 -0.4124  0.0383
15489TIP3    H167958   5.511   0.309   2.273 -1.8482 -1.2675  0.3954
15489TIP3    H267959   5.526   0.459   2.266  0.7113 -1.5337 -0.1995
15490TIP3   OH267960   5.048   6.151   0.694 -0.2225  0.3518 -0.0320
15490TIP3    H167961   5.143   6.152   0.709 -0.0933 -0.1830 -0.8348
15490TIP3    H267962   5.017   6.228   0.742  0.2951 -0.8123  2.2760
15491TIP3   OH267963   1.059   5.850  12.967 -0.4945 -0.2692 -0.6212
15491TIP3    H167964   1.131   5.808  12.920 -1.2209 -2.3750  0.1199
15491TIP3    H267965   1.061   5.941  12.937  1.3923 -0.7095 -1.8978
15492TIP3   OH267966   6.211   3.312  12.800 -0.6614  0.3148  0.1290
15492TIP3    H167967   6.252   3.349  12.722 -1.6719 -0.6234 -0.8568
15492TIP3    H267968   6.154   3.243  12.767 -1.9411  0.6351  1.6123
15493TIP3   OH267969   4.011   1.740  14.187  0.6306  0.6805  0.0001
15493TIP3    H167970   4.092   1.711  14.229 -0.6263 -0.5004  1.6973
15493TIP3    H267971   4.012   1.835  14.198  1.1490  0.5516  1.2647
15494TIP3   OH267972   0.863   3.619  14.074  0.0147 -0.2842 -0.3215
15494TIP3    H167973   0.783   3.582  14.110  0.3602  0.8717  1.6773
15494TIP3    H267974   0.931   3.555  14.096  0.1501  0.2072  0.6963
15495TIP3   OH267975   5.236   5.938  12.444 -0.5949 -0.3122 -0.2954
15495TIP3    H167976   5.300   5.902  12.506  1.4718 -0.3120 -2.3793
15495TIP3    H267977   5.218   6.026  12.477 -0.1026 -0.5938  0.7496
15496TIP3   OH267978   5.767   4.561   6.542  0.1864  0.2657  0.2712
15496TIP3    H167979   5.726   4.637   6.500  0.3107 -0.1280 -0.5724
15496TIP3    H267980   5.722   4.553   6.626 -1.1225  0.1414 -0.4315
15497TIP3   OH267981   5.008   1.342  15.319  0.0002 -0.3489 -0.1875
15497TIP3    H167982   4.921   1.316  15.288 -0.5986  1.0190  0.3348
15497TIP3    H267983   5.066   1.322  15.245 -1.0247  0.3948 -1.2134
15498TIP3   OH267984   1.443   2.141   0.750  0.3839 -0.1766 -0.1469
15498TIP3    H167985   1.505   2.163   0.819  0.4558  2.8954 -1.1185
15498TIP3    H267986   1.360   2.129   0.795  0.3679  2.1035  0.4764
15499TIP3   OH267987   6.657   6.108   4.650  0.2831 -0.2526  0.1375
15499TIP3    H167988   6.565   6.132   4.637 -0.0079 -1.1931  0.4369
15499TIP3    H267989   6.689   6.087   4.563 -0.1425 -1.1636  0.1931
15500TIP3   OH267990   2.842   3.714   2.774  1.5207  0.4343 -0.2132
15500TIP3    H167991   2.801   3.628   2.771 -0.2905  1.3302 -1.9421
15500TIP3    H267992   2.806   3.755   2.853  0.8281  0.3632 -0.4908
15501TIP3   OH267993   6.064   3.011   2.111  0.5619 -1.2613  0.4737
15501TIP3    H167994   5.985   3.030   2.060  0.9800  1.1423  0.6493
15501TIP3    H267995   6.031   2.977   2.194 -0.2386 -1.7122 -0.0239
15502TIP3   OH267996   3.042   2.193  12.972  0.1908  0.0623 -0.0088
15502TIP3    H167997   2.953   2.159  12.967 -0.1545  0.8345  0.7209
15502TIP3    H267998   3.099   2.116  12.964 -0.5791 -0.8205  2.7968
15503TIP3   OH267999   2.327   3.998   5.634  0.2634 -0.1026  0.6255
15503TIP3    H168000   2.278   4.029   5.710  2.7742 -0.8907  2.6557
15503TIP3    H268001   2.409   4.049   5.636 -0.0960  0.6759 -2.2440
15504TIP3   OH268002   1.601   1.502  11.919  0.4104  0.4497 -0.1946
15504TIP3    H168003   1.533   1.566  11.941  0.6798  0.7092 -0.1143
15504TIP3    H268004   1.555   1.434  11.870 -0.0682  0.1898  0.6095
15505TIP3   OH268005   0.871   4.214  15.655 -0.3938 -0.3526  0.1832
15505TIP3    H168006   0.884   4.249  15.567  2.9954  0.3172  0.8551
15505TIP3    H268007   0.931   4.139  15.660  1.8062  1.4468  2.8319
15506TIP3   OH268008   5.777   5.907  12.319  0.7407 -0.3658  0.2887
15506TIP3    H168009   5.744   5.915  12.230  1.1164  0.6762  0.2377
15506TIP3    H268010   5.712   5.953  12.373  0.2179 -1.4796  0.6304
15507TIP3   OH268011   0.962   5.590   1.413 -0.4623 -0.1118 -0.3727
15507TIP3    H168012   0.988   5.498   1.401  0.4177  0.0951 -0.0803
15507TIP3    H268013   1.044   5.636   1.429 -0.8391  0.8163 -1.0553
15508TIP3   OH268014   3.339   0.585   1.825  0.0194  0.1098 -0.1262
15508TIP3    H168015   3.378   0.571   1.739 -0.2095  1.8366 -0.5248
15508TIP3    H268016   3.278   0.513   1.836 -0.5770  0.3433 -1.7728
15509TIP3   OH268017   0.007   6.494   1.216  0.5694  0.7460  0.2571
15509TIP3    H168018   0.036   6.509   1.306  0.0386 -0.1234  0.5800
15509TIP3    H268019  -0.058   6.425   1.224  1.4277 -0.2067 -0.9548
15510TIP3   OH268020   6.644   4.712  15.360  0.0292  0.0225 -0.1112
15510TIP3    H168021   6.716   4.650  15.352 -1.2062 -1.3738 -0.4588
15510TIP3    H268022   6.680   4.794  15.326  1.2567 -0.8202 -0.9004
15511TIP3   OH268023   2.879   1.787   2.354  0.4197 -0.3816 -0.7951
15511TIP3    H168024   2.792   1.788   2.395  0.4544  0.4272 -0.7212
15511TIP3    H268025   2.935   1.830   2.419  0.6151  0.2706 -1.3924
15512TIP3   OH268026   1.850   0.171   2.253 -0.4385 -0.3313  0.4003
15512TIP3    H168027   1.755   0.172   2.245 -0.4921 -1.1601  0.8919
15512TIP3    H268028   1.871   0.081   2.280  0.4288  0.0224  0.9092
15513TIP3   OH268029   1.098   1.744  11.625 -0.4232 -0.4270 -0.3108
15513TIP3    H168030   1.070   1.806  11.558 -0.6859 -1.1822 -0.9103
15513TIP3    H268031   1.177   1.704  11.589 -1.6090 -2.1801 -1.0026
15514TIP3   OH268032   3.340   0.837   1.926  0.1339  0.6999  0.1607
15514TIP3    H168033   3.339   0.765   1.864 -2.3167  1.1613 -0.3861
15514TIP3    H268034   3.403   0.899   1.890 -0.3806  0.4235 -1.2405
15515TIP3   OH268035   5.730   1.272  12.530 -0.0305  0.4358 -0.3352
15515TIP3    H168036   5.791   1.224  12.586 -1.0946 -0.5502  0.0254
15515TIP3    H268037   5.765   1.262  12.442  1.3902  1.5728  0.0887
15516TIP3   OH268038   2.231   0.013  13.112 -0.0158  0.0194  0.8531
15516TIP3    H168039   2.273   0.005  13.027  0.2634 -0.3031  1.0188
15516TIP3    H268040   2.275   0.087  13.154 -0.2308  0.2495  0.6736
15517TIP3   OH268041   3.810   5.439  16.883  0.1635 -0.7799  0.3591
15517TIP3    H168042   3.829   5.493  16.959 -2.2329  1.1050 -0.3540
15517TIP3    H268043   3.796   5.351  16.919  2.2132 -0.5970  1.7048
15518TIP3   OH268044   1.145   0.733   2.381 -0.1537  0.2648 -0.5705
15518TIP3    H168045   1.123   0.800   2.446  1.2244  1.1979 -1.0380
15518TIP3    H268046   1.187   0.782   2.310  0.1802 -1.0029 -1.2608
15519TIP3   OH268047   5.751   6.143  13.741 -0.1138 -0.6376  0.0317
15519TIP3    H168048   5.826   6.152  13.682  0.5739  0.8330  1.0999
15519TIP3    H268049   5.675   6.149  13.684  0.5657 -0.9044 -0.9155
15520TIP3   OH268050   5.944   5.070   4.233  0.1442  0.4892 -0.1661
15520TIP3    H168051   5.946   5.042   4.324  0.9485  1.6007  0.1613
15520TIP3    H268052   6.013   5.135   4.225  1.3596 -0.9442 -2.0352
15521TIP3   OH268053   2.792   6.189   1.357 -0.0796  0.1372 -0.0331
15521TIP3    H168054   2.768   6.160   1.269  0.1303 -0.4651  0.1093
15521TIP3    H268055   2.720   6.162   1.413  0.3771 -0.6219  0.1946
15522TIP3   OH268056   1.171   2.445   2.458  0.3619 -0.2945  0.5523
15522TIP3    H168057   1.262   2.423   2.477  1.0238  1.4511 -0.4797
15522TIP3    H268058   1.160   2.424   2.365 -0.1551 -0.0938  0.5654
15523TIP3   OH268059   3.590   6.797   4.329  0.0119  0.0104  0.1524
15523TIP3    H168060   3.549   6.883   4.341 -1.6643 -0.6640 -0.6667
15523TIP3    H268061   3.535   6.752   4.265  2.2982 -0.7626 -1.3220
15524TIP3   OH268062   4.248   0.364  13.205 -0.1739 -0.0101 -0.2844
15524TIP3    H168063   4.162   0.405  13.193 -0.1953 -0.1418 -0.5860
15524TIP3    H268064   4.238   0.311  13.284 -0.7620 -1.0487 -1.0384
15525TIP3   OH268065   3.011   5.709   0.109 -0.4885 -0.0044  0.3550
15525TIP3    H168066   2.976   5.794   0.135  0.7446  0.6974 -0.2068
15525TIP3    H268067   2.958   5.646   0.156 -1.3325  1.0880  0.8945
15526TIP3   OH268068   4.701   3.986   0.347 -0.7332 -0.1551  0.1736
15526TIP3    H168069   4.723   3.950   0.433 -0.8675 -1.5961 -0.3789
15526TIP3    H268070   4.770   3.952   0.289 -0.3894  1.1704 -0.2048
15527TIP3   OH268071   1.687   5.446  17.259  0.4245  0.0689  0.0927
15527TIP3    H168072   1.642   5.385  17.199  2.0526 -0.0185 -1.1019
15527TIP3    H268073   1.777   5.412  17.263  0.9697  1.5497  0.5956
15528TIP3   OH268074   2.071   0.352  15.481  0.3269 -0.2397  0.0921
15528TIP3    H168075   2.142   0.288  15.489 -0.3916 -0.9954  0.5287
15528TIP3    H268076   2.021   0.341  15.562 -0.4785  0.0574 -0.3704
15529TIP3   OH268077   2.181   5.871  14.443  0.0851 -0.2062  0.0388
15529TIP3    H168078   2.223   5.947  14.403  0.3942 -0.1086  0.5366
15529TIP3    H268079   2.234   5.796  14.416  1.2956  0.0387  1.6049
15530TIP3   OH268080   2.893   5.209   2.823  0.8519 -0.0862 -0.3603
15530TIP3    H168081   2.811   5.258   2.826  0.7636 -0.2788  0.4332
15530TIP3    H268082   2.892   5.166   2.737  0.3464  0.2941 -0.5455
15531TIP3   OH268083   4.222   1.458   0.625 -0.1895 -0.1692  0.0117
15531TIP3    H168084   4.288   1.401   0.585  0.4060  0.0837  0.6051
15531TIP3    H268085   4.158   1.474   0.556  0.1040 -0.8409 -0.4187
15532TIP3   OH268086   1.466   5.031   1.365  0.4809 -0.3383  0.4017
15532TIP3    H168087   1.425   5.117   1.379 -0.4990 -0.8144  0.4945
15532TIP3    H268088   1.447   5.011   1.273 -0.7407 -1.2111  0.8383
15533TIP3   OH268089   5.359   1.950  16.092 -0.3839  0.1086  0.3690
15533TIP3    H168090   5.340   2.044  16.100 -1.9490 -0.1883  0.2200
15533TIP3    H268091   5.286   1.906  16.135 -0.3200 -1.0748 -0.6776
15534TIP3   OH268092   4.274   3.921   4.953 -0.5229  0.1008  0.3318
15534TIP3    H168093   4.203   3.908   5.016  1.9032 -1.1930  2.9189
15534TIP3    H268094   4.255   3.858   4.883 -2.4490  0.4842  0.4790
15535TIP3   OH268095   1.428   3.889  16.232  0.2733  0.4272 -0.5771
15535TIP3    H168096   1.414   3.930  16.318  0.1814 -3.9016  1.6254
15535TIP3    H268097   1.345   3.900  16.187 -1.0933 -0.8411  1.5416
15536TIP3   OH268098   1.129   6.744  11.850 -0.2204 -0.0423  0.5302
15536TIP3    H168099   1.070   6.801  11.799  0.4053  2.0611  2.0830
15536TIP3    H268100   1.217   6.768  11.820 -0.0075 -1.0979  0.3029
15537TIP3   OH268101   4.794   2.833   2.407 -0.3282 -0.8161 -0.2894
15537TIP3    H168102   4.707   2.860   2.377  0.7408  1.1032 -1.7788
15537TIP3    H268103   4.807   2.882   2.489 -2.3144 -4.3217  2.2421
15538TIP3   OH268104   0.239   3.275  16.674  0.3949 -0.0278  0.1056
15538TIP3    H168105   0.312   3.265  16.735  0.5908  0.0697 -0.1087
15538TIP3    H268106   0.214   3.367  16.682  0.5940  0.0498 -0.1531
15539TIP3   OH268107   4.098   0.785   1.154  0.4766  0.2140  0.1830
15539TIP3    H168108   4.072   0.858   1.210  0.3860  0.6503 -0.4234
15539TIP3    H268109   4.103   0.710   1.213  0.4012  0.6748  0.7772
15540TIP3   OH268110   4.036   3.715   5.597 -0.3854 -0.1662  0.0305
15540TIP3    H168111   4.025   3.711   5.502 -0.3684 -0.8070  0.0508
15540TIP3    H268112   3.953   3.750   5.629 -0.3453  0.1732 -0.2309
15541TIP3   OH268113   6.236   5.731  11.187  0.5188 -0.4725 -0.0535
15541TIP3    H168114   6.161   5.775  11.145 -0.1969 -2.8018 -1.2735
15541TIP3    H268115   6.311   5.755  11.133  0.3508  0.2842  0.0393
15542TIP3   OH268116   1.225   2.844   5.378  0.1384 -0.5384  0.1011
15542TIP3    H168117   1.148   2.806   5.420  1.2524  0.1647  2.9606
15542TIP3    H268118   1.285   2.770   5.368  0.0212 -0.6383  0.1297
15543TIP3   OH268119   3.458   4.296   5.708 -0.6115 -1.1967  0.0938
15543TIP3    H168120   3.441   4.217   5.760 -2.4718 -0.7912  0.1651
15543TIP3    H268121   3.370   4.326   5.682 -0.0454  1.6199  1.2136
15544TIP3   OH268122   0.147   6.639  13.235 -0.4338  0.0339 -0.0536
15544TIP3    H168123   0.104   6.587  13.303  0.4223 -0.5004  0.0970
15544TIP3    H268124   0.235   6.602  13.230 -0.4621  0.1194 -1.3993
15545TIP3   OH268125   1.060   1.818  13.577 -0.0167 -0.4454 -0.4572
15545TIP3    H168126   1.044   1.904  13.616  3.9110  0.8058 -1.4501
15545TIP3    H268127   1.052   1.832  13.483  0.0165 -1.3193 -0.5947
15546TIP3   OH268128   2.152   5.035   0.607 -0.2499  0.4181  0.2480
15546TIP3    H168129   2.179   5.127   0.604  0.4680  0.2899  2.1839
15546TIP3    H268130   2.090   5.030   0.680 -0.4514 -0.5983  0.0231
15547TIP3   OH268131   2.957   1.905  14.930 -0.1883 -0.0299  0.4468
15547TIP3    H168132   2.870   1.913  14.892  0.1750  1.4125 -0.1026
15547TIP3    H268133   3.011   1.866  14.860  0.0708  0.9634  0.0919
15548TIP3   OH268134   6.513   6.718   3.851 -0.2745  0.5084 -1.0585
15548TIP3    H168135   6.583   6.671   3.806  0.2771 -0.9502  1.2297
15548TIP3    H268136   6.558   6.772   3.915 -1.1194  1.5146 -1.3005
15549TIP3   OH268137   5.523   1.465   1.048 -0.3983  0.3352 -0.5003
15549TIP3    H168138   5.488   1.542   1.092  2.0323  1.6942 -0.8494
15549TIP3    H268139   5.553   1.409   1.120 -0.1816  0.7002 -0.3035
15550TIP3   OH268140   3.173   4.179   6.247  0.0511  0.1633 -0.2677
15550TIP3    H168141   3.131   4.094   6.259  0.8910 -0.0390  1.3832
15550TIP3    H268142   3.253   4.159   6.197 -1.3086  0.4259 -2.5993
15551TIP3   OH268143   6.058   2.038   5.412  0.6295 -0.3386 -0.1107
15551TIP3    H168144   6.128   2.080   5.462 -1.2431  1.2415  1.2766
15551TIP3    H268145   6.037   1.959   5.462 -2.1490  1.9128  2.4931
15552TIP3   OH268146   2.045   5.320   4.498  0.0750 -0.5336 -0.0984
15552TIP3    H168147   2.073   5.229   4.482 -0.3740 -1.3355  3.2530
15552TIP3    H268148   2.092   5.371   4.432  0.7387 -3.1456 -1.7323
15553TIP3   OH268149   0.141   0.242  14.369 -0.4951  0.0769 -0.5071
15553TIP3    H168150   0.182   0.317  14.413  0.1026 -0.0472 -0.8415
15553TIP3    H268151   0.171   0.249  14.278 -0.0354 -0.8466 -0.4288
15554TIP3   OH268152   0.372   5.066   2.319 -0.5885 -0.3041  0.2919
15554TIP3    H168153   0.320   5.129   2.369 -0.3961 -0.6493  0.9439
15554TIP3    H268154   0.327   4.983   2.332 -0.0739 -0.5408  0.5751
15555TIP3   OH268155   2.303   0.601   5.575 -0.0057 -0.1906 -0.3811
15555TIP3    H168156   2.293   0.567   5.486  1.2665  1.4965 -1.2034
15555TIP3    H268157   2.218   0.638   5.597  0.8816  3.5675 -2.7454
15556TIP3   OH268158   1.336   3.273  15.651 -0.4136  0.1680  0.2589
15556TIP3    H168159   1.292   3.256  15.568  1.5954 -1.5844 -0.4943
15556TIP3    H268160   1.314   3.197  15.705  2.5676 -1.3329 -0.5375
15557TIP3   OH268161   3.791   3.833   2.496 -0.0826 -0.4399 -0.1560
15557TIP3    H168162   3.741   3.910   2.522  0.2661  0.2151 -1.3602
15557TIP3    H268163   3.829   3.800   2.577 -1.5989 -0.3317  0.6086
15558TIP3   OH268164   5.198   3.821   1.718 -0.1782 -0.4296  0.4703
15558TIP3    H168165   5.266   3.877   1.681 -1.5007  1.0776  0.2310
15558TIP3    H268166   5.185   3.752   1.654  0.1441  0.0770 -0.1416
15559TIP3   OH268167   4.799   1.904   2.577 -0.1014 -0.2246 -0.1330
15559TIP3    H168168   4.770   1.991   2.606  0.0518 -0.3929  0.5290
15559TIP3    H268169   4.732   1.844   2.609  0.4537 -0.4981  0.5211
15560TIP3   OH268170   1.307   4.985  16.384  0.0851 -0.0559  0.0117
15560TIP3    H168171   1.307   4.892  16.403  1.9531 -0.2285 -0.6748
15560TIP3    H268172   1.327   4.991  16.290  1.0761  1.0292  0.2665
15561TIP3   OH268173   6.276   4.389  11.479 -0.0446 -0.1724  0.2045
15561TIP3    H168174   6.291   4.483  11.480  0.6338 -0.2439  3.3905
15561TIP3    H268175   6.364   4.351  11.477 -0.1692 -0.6857  2.8364
15562TIP3   OH268176   4.543   5.043   5.912 -0.3250  0.1416  0.4843
15562TIP3    H168177   4.480   5.084   5.971  0.5455  0.8592  0.9389
15562TIP3    H268178   4.615   5.106   5.906 -0.7445  0.4058 -1.9675
15563TIP3   OH268179   2.759   4.840   4.741  0.0055  0.2811 -0.3586
15563TIP3    H168180   2.668   4.819   4.720 -0.2031  0.9019 -0.0958
15563TIP3    H268181   2.753   4.908   4.809  0.6674 -0.4509  0.4406
15564TIP3   OH268182   2.504   6.428  15.674 -0.4612 -0.5201  0.8803
15564TIP3    H168183   2.462   6.350  15.639 -1.8137  0.4913  0.1899
15564TIP3    H268184   2.570   6.452  15.608 -0.0691 -1.0535  1.0782
15565TIP3   OH268185   4.162   2.095  15.742 -0.0214 -0.0593  0.0732
15565TIP3    H168186   4.158   2.140  15.827 -2.6636  0.1137 -0.1012
15565TIP3    H268187   4.226   2.025  15.755 -0.7365 -0.3335  2.3509
15566TIP3   OH268188   5.179   6.322  13.093 -0.0945  0.2536  0.4823
15566TIP3    H168189   5.241   6.274  13.037 -1.4599  0.2170 -1.0270
15566TIP3    H268190   5.109   6.349  13.034 -0.9673  1.2972  1.9543
15567TIP3   OH268191   0.257   6.591   2.071  0.1518 -0.3209  0.0601
15567TIP3    H168192   0.185   6.536   2.042  0.0575 -0.7499  1.0819
15567TIP3    H268193   0.329   6.570   2.012 -0.0693 -1.0893  0.0676
15568TIP3   OH268194   5.560   6.666   3.424 -0.1282  0.2181 -0.6176
15568TIP3    H168195   5.504   6.621   3.360  1.2523  1.5232 -2.7965
15568TIP3    H268196   5.536   6.627   3.508 -2.8088 -0.7195 -1.7738
15569TIP3   OH268197   1.359   1.434  16.526  0.1618  0.3176  0.6687
15569TIP3    H168198   1.325   1.365  16.469  0.5737  0.0576  0.7332
15569TIP3    H268199   1.406   1.493  16.468  1.6617 -0.6171  0.8829
15570TIP3   OH268200   1.779   0.629   2.097 -0.0706  0.4388 -0.0079
15570TIP3    H168201   1.756   0.684   2.172 -1.0079  0.9538 -0.6561
15570TIP3    H268202   1.814   0.548   2.135 -3.2674 -0.5150  1.0658
15571TIP3   OH268203   3.950   1.456  15.361 -0.3634 -0.3606  0.5046
15571TIP3    H168204   4.028   1.423  15.317 -1.1523 -0.9721 -0.4650
15571TIP3    H268205   3.961   1.551  15.363 -0.5736 -0.2679 -1.5429
15572TIP3   OH268206   5.096   0.254  12.516 -0.0969 -0.2993  0.4849
15572TIP3    H168207   5.012   0.275  12.477 -0.9725 -0.8217  2.0301
15572TIP3    H268208   5.096   0.159  12.525  0.6941 -0.3147  0.4039
15573TIP3   OH268209   1.114   5.301   0.165  0.5253  0.0953 -0.1162
15573TIP3    H168210   1.174   5.349   0.223  1.6772  0.9945 -1.9857
15573TIP3    H268211   1.047   5.365   0.143 -0.8446 -0.7472  1.5268
15574TIP3   OH268212   6.043   0.684  16.952  0.5001 -0.0527  0.6123
15574TIP3    H168213   6.050   0.739  17.030 -0.0845  0.0473  0.5938
15574TIP3    H268214   5.959   0.639  16.961  1.1242 -1.2166  0.8049
15575TIP3   OH268215   6.782   3.630  11.313  0.1961  0.1100 -0.0920
15575TIP3    H168216   6.765   3.541  11.285 -0.5815 -0.0720  0.9119
15575TIP3    H268217   6.730   3.685  11.254  0.4886 -0.1104 -0.5566
15576TIP3   OH268218   3.358   6.536   6.144 -0.1916 -0.0831  0.2603
15576TIP3    H168219   3.302   6.568   6.073  0.7017 -2.1936 -1.4428
15576TIP3    H268220   3.429   6.599   6.149 -1.0054  0.8447  0.2321
15577TIP3   OH268221   5.350   5.862   0.054  0.1644 -0.0817 -0.2956
15577TIP3    H168222   5.262   5.825   0.042 -0.1247  1.2982 -2.9113
15577TIP3    H268223   5.405   5.813  -0.007  0.6937  0.7636 -0.4964
15578TIP3   OH268224   1.236   0.713   0.459  0.2060  0.3934 -0.6496
15578TIP3    H168225   1.225   0.802   0.493  0.4757  0.3299 -0.3933
15578TIP3    H268226   1.326   0.691   0.480 -0.5142 -0.7806  1.3011
15579TIP3   OH268227   4.035   6.418   3.062  0.2675 -0.0357  0.0635
15579TIP3    H168228   4.034   6.513   3.047  0.3023 -0.0454  0.0014
15579TIP3    H268229   3.947   6.389   3.041  0.2527 -0.0151  0.0954
15580TIP3   OH268230   6.688   6.736   3.592  0.2292 -0.9872 -0.7656
15580TIP3    H168231   6.708   6.830   3.595  1.8262 -1.2822 -1.6774
15580TIP3    H268232   6.744   6.698   3.660 -1.1892 -1.1619  0.3259
15581TIP3   OH268233   1.534   0.778  12.789  0.1399  0.3321 -0.5633
15581TIP3    H168234   1.617   0.732  12.799 -0.7337 -1.1161  0.2776
15581TIP3    H268235   1.492   0.736  12.714 -0.1695  0.5364 -0.5058
15582TIP3   OH268236   0.963   1.136  11.822  0.6608 -0.1748 -0.8584
15582TIP3    H168237   0.932   1.050  11.848 -0.9357  0.5977 -0.1441
15582TIP3    H268238   0.912   1.158  11.745 -1.2342  1.4659  0.8174
15583TIP3   OH268239   5.623   2.275  12.114 -0.1285  0.4137 -0.3286
15583TIP3    H168240   5.575   2.314  12.041  0.7126 -2.7340 -2.6774
15583TIP3    H268241   5.583   2.189  12.125  2.0906 -0.5277  0.5507
15584TIP3   OH268242   0.919   5.285  10.807 -0.0948 -0.4149 -0.4404
15584TIP3    H168243   0.876   5.339  10.740 -0.5662 -0.1576  0.0588
15584TIP3    H268244   1.010   5.279  10.778 -0.1244  0.3260 -0.7056
15585TIP3   OH268245   6.569   0.860   4.418  0.3048 -0.3183 -0.1520
15585TIP3    H168246   6.588   0.784   4.472 -1.0943 -0.3875  0.2831
15585TIP3    H268247   6.496   0.833   4.362 -1.0490  1.0458  0.8744
15586TIP3   OH268248   4.553   0.016  13.247 -0.2837 -0.1835  0.0797
15586TIP3    H168249   4.528   0.082  13.183  0.8266 -0.6801 -0.9045
15586TIP3    H268250   4.599   0.065  13.316 -1.0027  0.2853  0.2264
15587TIP3   OH268251   3.407   5.490   4.744 -0.1025  0.0231 -0.0857
15587TIP3    H168252   3.314   5.491   4.722 -0.0165 -3.5355 -0.8609
15587TIP3    H268253   3.452   5.492   4.660  0.4995 -0.3105  0.2291
15588TIP3   OH268254   0.547   2.658  17.093 -0.6651  0.1819  0.1045
15588TIP3    H168255   0.509   2.727  17.039 -0.4660 -2.0148 -2.9554
15588TIP3    H268256   0.618   2.622  17.040 -0.1815 -1.7957  2.0107
15589TIP3   OH268257   0.506   6.585  11.647  0.1578  0.0794  0.4610
15589TIP3    H168258   0.571   6.615  11.584 -1.0133  2.3854  0.3032
15589TIP3    H268259   0.558   6.549  11.719  1.5904  0.8812 -0.1441
15590TIP3   OH268260   4.451   4.510   3.084 -0.3826  0.2053 -0.7734
15590TIP3    H168261   4.357   4.494   3.078 -0.1839 -0.5950 -1.7736
15590TIP3    H268262   4.490   4.423   3.091  0.1139  0.6046  2.5306
15591TIP3   OH268263   1.671   2.860  13.929 -0.2334 -0.1155 -0.6964
15591TIP3    H168264   1.733   2.875  13.857 -0.4700 -0.2771 -0.9353
15591TIP3    H268265   1.720   2.882  14.008  0.4967 -1.3001 -0.8028
15592TIP3   OH268266   6.129   4.823  14.847 -0.3927 -0.0562 -0.2592
15592TIP3    H168267   6.058   4.819  14.783 -1.1460  3.6270  0.2524
15592TIP3    H268268   6.209   4.831  14.794 -1.0001  2.8775 -0.8230
15593TIP3   OH268269   2.945   4.525   4.565 -0.8463  0.4863 -0.3265
15593TIP3    H168270   2.916   4.565   4.647  0.8304  1.8174 -0.3523
15593TIP3    H268271   3.003   4.590   4.526  1.2139 -1.5544 -0.8235
15594TIP3   OH268272   0.557   3.644   6.032 -0.2560  0.6694 -0.1154
15594TIP3    H168273   0.650   3.663   6.028  0.1736 -1.4998 -0.7543
15594TIP3    H268274   0.551   3.552   6.056 -2.1873  0.2553 -1.9486
15595TIP3   OH268275   2.567   3.309  14.187  0.2681  1.0113 -0.6323
15595TIP3    H168276   2.554   3.391  14.139 -0.8598  1.7234  0.8670
15595TIP3    H268277   2.479   3.282  14.213  0.7789  0.0823  0.1485
15596TIP3   OH268278   6.047   5.666  15.201  0.4244  0.1831 -0.1791
15596TIP3    H168279   5.964   5.658  15.155  0.5151 -0.3164 -0.2539
15596TIP3    H268280   6.110   5.690  15.132  0.1019  1.8510  0.0900
15597TIP3   OH268281   1.071   3.303  15.186 -0.6188  0.3109  0.1553
15597TIP3    H168282   1.048   3.262  15.103  1.1493  0.0590 -0.2392
15597TIP3    H268283   1.060   3.397  15.170 -3.1843  0.1098  0.5845
15598TIP3   OH268284   0.876   2.803  15.553  0.0406  0.3319  0.5573
15598TIP3    H168285   0.791   2.837  15.582  0.3871  0.4516  1.4522
15598TIP3    H268286   0.936   2.823  15.625  0.5924 -0.7614  0.4151
15599TIP3   OH268287   1.888   2.781  13.617  0.1174 -0.4619 -0.8853
15599TIP3    H168288   1.871   2.849  13.682 -0.6040 -1.7543  0.3223
15599TIP3    H268289   1.970   2.807  13.575 -0.4094  1.3890 -0.7827
15600TIP3   OH268290   1.119   6.654  13.868 -0.2434  0.0744  0.3204
15600TIP3    H168291   1.083   6.565  13.866 -0.4793  0.1032  2.0392
15600TIP3    H268292   1.180   6.657  13.795 -0.6710 -1.3137 -0.1153
15601TIP3   OH268293   0.935   2.060  11.601  0.3651 -0.2080 -0.1126
15601TIP3    H168294   1.010   2.020  11.556  0.2142 -1.5786  0.8128
15601TIP3    H268295   0.892   1.987  11.645 -1.9213  0.4598 -1.1729
15602TIP3   OH268296   4.801   4.244   5.449 -0.2111 -0.1689  0.8030
15602TIP3    H168297   4.781   4.234   5.542 -2.2512 -1.7798  0.2217
15602TIP3    H268298   4.716   4.259   5.407  0.6538  0.2739 -0.8423
15603TIP3   OH268299   1.802   5.899   3.997 -0.2371 -0.5036  0.2448
15603TIP3    H168300   1.783   5.810   4.027 -2.1467  0.0736  0.8410
15603TIP3    H268301   1.807   5.951   4.077 -1.7334  0.3928 -0.2279
15604TIP3   OH268302   1.186   4.332   0.942 -0.5567 -0.4073  0.0495
15604TIP3    H168303   1.184   4.370   0.854 -1.3432 -1.0728 -0.2266
15604TIP3    H268304   1.259   4.270   0.940  0.2839  0.5609  0.2872
15605TIP3   OH268305   4.177   0.027   3.755 -0.1999 -0.4971  0.2329
15605TIP3    H168306   4.139   0.114   3.752 -0.5985 -0.6542  0.5982
15605TIP3    H268307   4.258   0.038   3.804  0.1007 -0.2024 -0.3377
15606TIP3   OH268308   0.718   1.701   2.852  0.2198 -0.1303  0.0033
15606TIP3    H168309   0.779   1.758   2.806 -1.6028  0.8640 -1.2591
15606TIP3    H268310   0.682   1.755   2.922  0.2483 -0.4860  0.2927
15607TIP3   OH268311   1.785   5.792  15.905  0.0888  0.0489 -0.0269
15607TIP3    H168312   1.856   5.856  15.917  0.7671 -0.6206 -0.4530
15607TIP3    H268313   1.785   5.742  15.987 -1.5105  1.6208  0.9860
15608TIP3   OH268314   2.073   0.396  13.067 -0.2820  0.5858  0.4817
15608TIP3    H168315   2.051   0.424  13.156 -0.7604  1.9760 -0.0627
15608TIP3    H268316   2.001   0.339  13.042  1.3032 -2.2063  2.0462
15609TIP3   OH268317   3.906   5.898  14.611 -0.5624 -0.2484 -0.2757
15609TIP3    H168318   3.856   5.821  14.583  1.4008 -1.2299 -1.1205
15609TIP3    H268319   3.980   5.862  14.659 -0.7682  1.2241  1.1836
15610TIP3   OH268320   1.544   4.938   2.871  0.5025  0.2221  0.2914
15610TIP3    H168321   1.532   5.033   2.871 -0.3258  0.1285 -0.2592
15610TIP3    H268322   1.639   4.926   2.873  0.5977  1.0445  1.2432
15611TIP3   OH268323   5.478   0.397   5.155  0.1366 -0.0454  0.3980
15611TIP3    H168324   5.473   0.309   5.118  1.5661 -0.4804  1.2004
15611TIP3    H268325   5.467   0.385   5.249  2.8987  0.2997  0.8244
15612TIP3   OH268326   2.622   3.210  15.730 -0.3911  0.3675 -0.5142
15612TIP3    H168327   2.640   3.118  15.751 -0.9058  0.2478 -0.5872
15612TIP3    H268328   2.686   3.259  15.781  1.1972 -0.1162 -1.9477
15613TIP3   OH268329   4.767   1.782  12.539 -0.0707 -0.4468  0.2872
15613TIP3    H168330   4.729   1.799  12.626  0.7143  1.6287  0.2507
15613TIP3    H268331   4.725   1.701  12.510 -2.1999  0.1645  1.5502
15614TIP3   OH268332   0.798   0.386  12.440 -0.1499 -0.0600  0.6521
15614TIP3    H168333   0.802   0.353  12.350  0.6101 -0.4319  0.8181
15614TIP3    H268334   0.885   0.368  12.476 -0.8865 -1.2015  1.9104
15615TIP3   OH268335   1.513   2.091  15.428  0.0553 -0.8806  0.2704
15615TIP3    H168336   1.436   2.075  15.372  0.4792 -0.6734 -0.3786
15615TIP3    H268337   1.559   2.007  15.429  0.1142 -0.8495  0.1986
15616TIP3   OH268338   0.929   5.283  11.325 -0.4043  0.5044 -0.4701
15616TIP3    H168339   0.911   5.258  11.234  0.2424 -0.3376 -0.3735
15616TIP3    H268340   0.873   5.226  11.377 -0.2876  0.5315 -0.3156
15617TIP3   OH268341   5.792   3.193   3.588  0.4519 -0.2940  0.3375
15617TIP3    H168342   5.812   3.180   3.496  2.3021  0.0133  0.6634
15617TIP3    H268343   5.779   3.105   3.623  1.2752 -0.5181  0.0910
15618TIP3   OH268344   5.843   6.296   2.142 -0.4476 -0.1265  0.1127
15618TIP3    H168345   5.890   6.346   2.209 -2.3232  1.5298  0.2386
15618TIP3    H268346   5.888   6.317   2.060 -0.7133  1.1278  0.2856
15619TIP3   OH268347   1.607   6.458  16.062 -0.2451 -0.1244 -0.1260
15619TIP3    H168348   1.602   6.408  15.980 -0.1598 -0.8039  0.2832
15619TIP3    H268349   1.517   6.485  16.078 -0.7944 -2.5528  1.1355
15620TIP3   OH268350   3.844   5.579  17.141  0.6447 -0.2884  0.9191
15620TIP3    H168351   3.916   5.536  17.188  2.3547  1.4265 -0.0569
15620TIP3    H268352   3.881   5.662  17.111 -0.0365 -1.6249 -4.1822
15621TIP3   OH268353   6.133   6.662   1.329  0.4895 -0.5904  0.2237
15621TIP3    H168354   6.173   6.594   1.276 -1.2205 -1.0656 -0.4924
15621TIP3    H268355   6.145   6.742   1.279 -0.1022 -0.8502 -0.3403
15622TIP3   OH268356   1.055   2.545   1.703 -0.3819 -0.3255 -0.6289
15622TIP3    H168357   1.086   2.604   1.634 -1.7189 -0.3898 -1.2917
15622TIP3    H268358   1.123   2.478   1.709 -0.7731 -0.9598 -2.6982
15623TIP3   OH268359   0.308   2.777  14.629 -0.7767 -0.1412  0.0366
15623TIP3    H168360   0.306   2.872  14.643 -1.0150 -0.1145 -0.1624
15623TIP3    H268361   0.280   2.766  14.538  1.7176 -0.2458 -0.7463
15624TIP3   OH268362   5.811   2.675   4.048  0.4259  0.0566 -0.5252
15624TIP3    H168363   5.852   2.735   3.986  3.3659 -0.0175  1.2053
15624TIP3    H268364   5.878   2.607   4.061 -1.1140 -1.2157  0.8455
15625TIP3   OH268365   6.050   2.875  11.942  0.2884 -0.0771 -0.2510
15625TIP3    H168366   5.955   2.867  11.950  0.2683  1.4696  1.3244
15625TIP3    H268367   6.069   2.851  11.851 -1.6232 -0.1976 -0.6233
15626TIP3   OH268368   0.556   4.273  13.117 -0.5786  0.5573 -0.8959
15626TIP3    H168369   0.614   4.248  13.045  0.7303  0.0709  0.2882
15626TIP3    H268370   0.487   4.326  13.076 -1.7518 -2.4971 -3.0017
15627TIP3   OH268371   0.631   1.271  16.793  0.1035  0.1579  0.5148
15627TIP3    H168372   0.722   1.282  16.820  0.7412 -0.4949 -1.3042
15627TIP3    H268373   0.599   1.360  16.778  0.3248  0.4059  1.4600
15628TIP3   OH268374   1.308   3.491  14.217  0.5720  0.2132  0.5065
15628TIP3    H168375   1.356   3.522  14.140  0.3483  1.4265  0.8433
15628TIP3    H268376   1.342   3.544  14.289  1.2578 -1.3769  1.3660
15629TIP3   OH268377   5.006   2.782  12.335  0.2225  0.3605 -0.1021
15629TIP3    H168378   4.938   2.736  12.383 -0.3097  0.5700 -0.6523
15629TIP3    H268379   4.962   2.816  12.257  1.1151 -0.1695 -0.8542
15630TIP3   OH268380   0.280   6.749   2.811  0.0566 -0.1023  0.4849
15630TIP3    H168381   0.211   6.799   2.767  2.0324  2.0757 -0.2561
15630TIP3    H268382   0.326   6.814   2.864  2.4349 -1.2136 -0.1689
15631TIP3   OH268383   3.263   5.271  11.662  0.3883 -0.1431 -0.1106
15631TIP3    H168384   3.207   5.227  11.598 -0.8545  0.3653  0.5948
15631TIP3    H268385   3.286   5.203  11.725  2.3442 -0.8461 -1.5659
15632TIP3   OH268386   0.135   0.903   3.608  0.2359  0.6553  0.0225
15632TIP3    H168387   0.163   0.993   3.626 -0.9110  0.8249  1.0096
15632TIP3    H268388   0.053   0.893   3.657 -0.2054 -0.5797 -0.9458
15633TIP3   OH268389   3.866   6.756   5.863  0.1953  0.0533 -0.6889
15633TIP3    H168390   3.880   6.834   5.917 -1.0555  0.4578 -0.9450
15633TIP3    H268391   3.857   6.790   5.774  1.0179 -0.5091 -0.9969
15634TIP3   OH268392   5.385   5.431  16.124  0.2930  0.1658 -0.0831
15634TIP3    H168393   5.403   5.339  16.106 -1.2743  0.0708 -1.3056
15634TIP3    H268394   5.311   5.453  16.067 -0.4476  1.7152  1.4108
15635TIP3   OH268395   5.941   3.616  12.753 -0.0579 -0.0348  0.0105
15635TIP3    H168396   5.884   3.559  12.804 -0.2643 -2.5258 -2.8607
15635TIP3    H268397   5.881   3.662  12.694  0.6359 -0.8461 -1.3414
15636TIP3   OH268398   0.427   3.338   1.450 -0.0801 -0.5118 -0.7868
15636TIP3    H168399   0.515   3.309   1.475 -1.2008 -1.9216  1.6411
15636TIP3    H268400   0.415   3.420   1.498 -0.2723 -0.5828 -0.7126
15637TIP3   OH268401   1.509   1.953   0.090 -0.4864  0.2921  0.7310
15637TIP3    H168402   1.471   1.947   0.002  2.5495  0.8215 -0.6654
15637TIP3    H268403   1.437   1.987   0.144 -2.3775  0.0477 -1.5246
15638TIP3   OH268404   4.993   2.671  16.921 -0.4067  0.2713 -0.1347
15638TIP3    H168405   5.014   2.578  16.913 -2.0397 -0.1817  0.5679
15638TIP3    H268406   4.994   2.688  17.015  1.8951  1.4848 -0.3292
15639TIP3   OH268407   2.153   0.542  11.900 -0.2426 -0.0534  0.4894
15639TIP3    H168408   2.103   0.623  11.900 -2.7551 -1.5193  2.2873
15639TIP3    H268409   2.136   0.502  11.814 -0.1628  0.6286  0.1581
15640TIP3   OH268410   3.302   3.486  11.583 -0.0003 -0.7109 -0.5191
15640TIP3    H168411   3.373   3.503  11.645 -1.2813  0.7617  0.5972
15640TIP3    H268412   3.260   3.406  11.615  2.3429 -2.7312 -2.3269
15641TIP3   OH268413   0.412   2.847  13.173  0.3324  0.4924 -0.4282
15641TIP3    H168414   0.321   2.821  13.164  0.9839 -1.4807 -1.7522
15641TIP3    H268415   0.434   2.831  13.265 -0.8527  1.7486  0.0886
15642TIP3   OH268416   4.817   2.708   0.504 -1.0710  0.2103  0.0168
15642TIP3    H168417   4.818   2.631   0.562 -2.3544 -1.4743 -2.1496
15642TIP3    H268418   4.896   2.698   0.450  0.3430  1.9937  1.6813
15643TIP3   OH268419   4.103   5.347  11.312 -0.2853  0.7384 -0.1388
15643TIP3    H168420   4.088   5.428  11.262  1.1166  0.5044 -0.9647
15643TIP3    H268421   4.052   5.359  11.392 -0.5031  2.2287 -0.4793
15644TIP3   OH268422   2.577   1.130  14.584  0.1733  0.2962 -0.0345
15644TIP3    H168423   2.497   1.080  14.567  0.2870  0.5291 -1.2949
15644TIP3    H268424   2.619   1.083  14.656 -0.2879 -0.7712 -0.4450
15645TIP3   OH268425   3.781   2.966   6.465  0.2073 -0.0911 -0.0066
15645TIP3    H168426   3.744   3.054   6.473 -0.4683 -0.7013  4.6182
15645TIP3    H268427   3.866   2.980   6.422 -0.1642  2.7264  0.0746
15646TIP3   OH268428   2.550   3.470   4.206 -0.6412  0.6372  0.3455
15646TIP3    H168429   2.538   3.436   4.118  3.0926 -0.3531  0.1446
15646TIP3    H268430   2.519   3.561   4.201  1.9128  1.4395 -2.7490
15647TIP3   OH268431   0.094   5.534  15.589  0.1090  0.1517  0.9240
15647TIP3    H168432   0.164   5.595  15.615  1.4852 -1.1260  0.2750
15647TIP3    H268433   0.106   5.459  15.647 -3.1572  1.4397  3.4991
15648TIP3   OH268434   4.994   2.340  10.782 -0.0523  0.4200 -0.0703
15648TIP3    H168435   5.010   2.247  10.798 -0.1887  0.0760 -1.7846
15648TIP3    H268436   5.080   2.376  10.763 -0.1117  0.4561 -0.2744
15649TIP3   OH268437   0.482   3.147  15.574  0.0157  0.2082  0.1222
15649TIP3    H168438   0.496   3.214  15.642  0.6995 -0.1628  0.3523
15649TIP3    H268439   0.391   3.120  15.586  0.0369  0.3716  0.6865
15650TIP3   OH268440   5.294   3.061  15.591 -0.2572 -0.2401  0.0259
15650TIP3    H168441   5.318   3.024  15.506 -1.7353  0.2811 -0.6356
15650TIP3    H268442   5.268   2.985  15.644 -2.8419 -0.2483 -1.1790
15651TIP3   OH268443   4.264   2.582  15.093 -1.1014 -0.0444 -0.5457
15651TIP3    H168444   4.189   2.642  15.099 -1.9016 -1.0599 -0.2333
15651TIP3    H268445   4.334   2.635  15.056 -0.9130  1.9077  2.5220
15652TIP3   OH268446   1.759   6.308  11.104 -0.1221  0.5063 -0.7220
15652TIP3    H168447   1.778   6.274  11.017  3.2697  1.3673 -0.3915
15652TIP3    H268448   1.830   6.275  11.159 -1.6837  0.7685  1.5322
15653TIP3   OH268449   3.689   2.963  11.747  0.2980  0.7908  0.4679
15653TIP3    H168450   3.651   2.911  11.676 -0.3027 -0.0707  1.4001
15653TIP3    H268451   3.694   3.051  11.711 -0.5812  0.4927 -0.4393
15654TIP3   OH268452   6.752   4.460   0.928 -0.4970 -0.7300 -0.1412
15654TIP3    H168453   6.822   4.414   0.881 -0.8331 -0.8353 -0.5405
15654TIP3    H268454   6.776   4.553   0.921  0.2367 -0.8384  0.7523
15655TIP3   OH268455   5.697   5.047   4.484 -0.3419  0.0644 -0.4509
15655TIP3    H168456   5.614   5.037   4.529 -1.2867  1.3536 -1.8761
15655TIP3    H268457   5.676   5.096   4.404  1.8350  0.7519 -0.6391
15656TIP3   OH268458   1.605   2.958   5.045  0.3140 -0.2822  0.1644
15656TIP3    H168459   1.684   2.927   5.000  1.5484 -0.2001  2.2038
15656TIP3    H268460   1.638   3.017   5.113 -1.5370 -0.0088  0.8389
15657TIP3   OH268461   2.410   0.878   2.314  0.3860  0.4942  0.5306
15657TIP3    H168462   2.475   0.844   2.253 -0.5217  0.7263 -0.5820
15657TIP3    H268463   2.391   0.805   2.372  0.8876  0.1111  0.2204
15658TIP3   OH268464   1.623   2.148  11.846  0.6875 -0.1490  0.0085
15658TIP3    H168465   1.599   2.062  11.879  0.0567  0.2456  0.6042
15658TIP3    H268466   1.549   2.173  11.790  0.3988  0.4329  0.6429
15659TIP3   OH268467   0.125   5.316   3.543 -0.2067 -0.0971  0.3406
15659TIP3    H168468   0.177   5.305   3.622  0.5703  1.0784 -0.0021
15659TIP3    H268469   0.097   5.407   3.544  0.7517  0.2276 -1.3058
15660TIP3   OH268470   6.254   2.672  11.249 -0.5171 -0.3315 -0.2238
15660TIP3    H168471   6.312   2.726  11.196 -0.8043 -0.3901 -0.5981
15660TIP3    H268472   6.194   2.734  11.290  0.9957 -0.0573  1.7013
15661TIP3   OH268473   3.719   4.034   2.719 -0.2889 -0.7631  0.1912
15661TIP3    H168474   3.629   4.066   2.712 -0.2983 -0.6993  0.6240
15661TIP3    H268475   3.726   4.000   2.808 -0.3159 -2.0857 -0.3062
15662TIP3   OH268476   2.055   6.098  15.395 -0.0313 -0.1578  0.4045
15662TIP3    H168477   2.025   6.175  15.444  0.5182  0.1981  0.1949
15662TIP3    H268478   2.034   6.117  15.304 -0.8708 -0.7333  0.4686
15663TIP3   OH268479   1.030   5.465   1.089 -0.0253 -0.0948  0.5450
15663TIP3    H168480   0.967   5.485   1.158  1.9481 -0.1125  2.4108
15663TIP3    H268481   1.064   5.551   1.062  1.4118 -0.2442  1.7781
15664TIP3   OH268482   0.754   5.934  16.030 -0.0172  0.3533 -0.4002
15664TIP3    H168483   0.763   5.840  16.012  0.6886 -0.1121  2.1963
15664TIP3    H268484   0.833   5.957  16.079 -0.9695  1.9207  0.4448
15665TIP3   OH268485   6.591   5.777   0.632 -0.5456 -0.5585  0.0735
15665TIP3    H168486   6.649   5.816   0.697 -1.7858  1.3838  0.0473
15665TIP3    H268487   6.538   5.850   0.600 -1.3150 -1.8514 -1.6816
15666TIP3   OH268488   0.105   6.365  12.899  0.1618  0.2385  0.5550
15666TIP3    H168489   0.151   6.345  12.981  1.9378 -0.3515 -0.5601
15666TIP3    H268490   0.170   6.408  12.845 -1.2460  1.3903 -0.2571
15667TIP3   OH268491   2.712   6.025   5.075  0.5914 -0.1424 -0.0219
15667TIP3    H168492   2.765   6.069   5.009 -1.9244  2.6865 -0.2633
15667TIP3    H268493   2.731   6.073   5.156 -0.0530 -0.4023  0.2874
15668TIP3   OH268494   0.968   0.056  14.202 -0.1820  0.4369 -0.2891
15668TIP3    H168495   1.006  -0.031  14.192  0.4146  0.7239 -0.4906
15668TIP3    H268496   0.905   0.063  14.129 -1.3406 -0.4068  0.6055
15669TIP3   OH268497   5.858   2.247  13.728  0.7397 -0.2540  0.1159
15669TIP3    H168498   5.869   2.322  13.669  2.3673 -0.4166  0.1813
15669TIP3    H268499   5.912   2.178  13.689 -0.1435 -1.1462  0.4715
15670TIP3   OH268500   2.561   1.969  13.487  0.0337  0.4059  0.5118
15670TIP3    H168501   2.522   2.018  13.414  0.3546  0.0499  0.0983
15670TIP3    H268502   2.486   1.931  13.533 -0.0579 -1.4399 -1.1024
15671TIP3   OH268503   5.728   4.877   2.187 -0.1605 -0.1761  0.1733
15671TIP3    H168504   5.768   4.801   2.144  0.2360 -0.2984  0.7453
15671TIP3    H268505   5.754   4.952   2.134 -1.4660 -0.5531 -1.0273
15672TIP3   OH268506   4.417   0.060   3.852 -0.1427  0.1959 -0.1011
15672TIP3    H168507   4.460   0.003   3.916 -1.2948 -1.2583 -0.5753
15672TIP3    H268508   4.452   0.147   3.869  1.1781 -0.5476  1.0780
15673TIP3   OH268509   6.643   2.380  12.016 -0.5561  0.0421  0.4414
15673TIP3    H168510   6.636   2.449  12.082 -0.1585  0.4972  0.0075
15673TIP3    H268511   6.706   2.414  11.952 -2.5892  0.5726 -1.3549
15674TIP3   OH268512   4.276   0.707   0.332 -0.1281 -0.0750  0.1517
15674TIP3    H168513   4.372   0.709   0.324 -0.2171  0.7680 -0.9379
15674TIP3    H268514   4.254   0.791   0.374 -0.4152 -0.0846  0.0212
15675TIP3   OH268515   1.794   4.938  15.771  0.0003 -0.2510  0.3727
15675TIP3    H168516   1.772   4.879  15.700 -0.3034 -0.0841  0.3255
15675TIP3    H268517   1.890   4.939  15.773  0.1156  2.6022 -2.4555
15676TIP3   OH268518   2.946   0.547   1.010  0.1243 -0.0155 -0.2683
15676TIP3    H168519   2.975   0.637   0.998  0.0674  0.2436  1.3418
15676TIP3    H268520   2.983   0.499   0.936 -1.3126  1.6476 -2.1008
15677TIP3   OH268521   3.031   1.569  15.730 -0.2414  0.4225 -0.1693
15677TIP3    H168522   3.032   1.536  15.641 -0.3498 -0.9941  0.3402
15677TIP3    H268523   3.123   1.581  15.753 -0.2416  1.4678 -0.7168
15678TIP3   OH268524   0.058   0.918  16.840 -0.2249 -0.5307 -0.1516
15678TIP3    H168525  -0.015   0.891  16.784 -0.7799  1.2749 -0.3053
15678TIP3    H268526   0.136   0.896  16.790 -0.6347 -2.2560 -0.0848
15679TIP3   OH268527   6.473   4.171   3.288  0.1588  0.0827 -0.0357
15679TIP3    H168528   6.458   4.260   3.319  1.0861  0.5501 -0.8842
15679TIP3    H268529   6.529   4.132   3.355 -0.8264 -0.0939  0.6909
15680TIP3   OH268530   4.625   2.862   2.014  0.1240 -0.0297 -0.2994
15680TIP3    H168531   4.565   2.936   2.006 -0.6353 -0.7045 -0.9229
15680TIP3    H268532   4.674   2.862   1.931 -0.5529 -0.8117 -0.6959
15681TIP3   OH268533   1.846   6.691  13.706  0.0469 -0.3892  0.3536
15681TIP3    H168534   1.930   6.735  13.721  1.2981 -2.2972 -0.8725
15681TIP3    H268535   1.850   6.613  13.761 -1.4583  0.1233  1.2149
15682TIP3   OH268536   4.210   1.279  12.789  0.0546  0.3922 -0.0727
15682TIP3    H168537   4.120   1.253  12.808 -0.0543  0.7501 -0.0965
15682TIP3    H268538   4.225   1.355  12.845 -0.2755  1.4825 -1.4340
15683TIP3   OH268539   2.407   0.401  15.741 -0.5342  0.4227 -0.1430
15683TIP3    H168540   2.446   0.381  15.827 -0.3853  0.9720 -0.0821
15683TIP3    H268541   2.313   0.406  15.759 -0.7627 -2.1037 -0.5171
15684TIP3   OH268542   1.904   4.757   4.475 -0.1890  0.4390 -0.2231
15684TIP3    H168543   1.909   4.736   4.381  0.8965  1.9103 -0.5052
15684TIP3    H268544   1.816   4.727   4.501  0.0349 -1.2694 -1.3742
15685TIP3   OH268545   4.430   2.656   2.801  0.1433 -0.5320  0.6857
15685TIP3    H168546   4.417   2.679   2.709  0.5594 -1.2400  0.4468
15685TIP3    H268547   4.346   2.675   2.843  0.2617  0.7945  0.3717
15686TIP3   OH268548   0.519   3.802  14.824 -0.5565  0.2480  0.9622
15686TIP3    H168549   0.493   3.829  14.736  0.6301  1.0217  0.8353
15686TIP3    H268550   0.526   3.707  14.818 -1.4920  0.2011  0.5022
15687TIP3   OH268551   4.765   3.665   5.496 -0.1867 -0.1134  0.3689
15687TIP3    H168552   4.739   3.602   5.429  0.8990  1.1250 -1.2224
15687TIP3    H268553   4.828   3.618   5.550 -1.8518 -1.4638  1.2172
15688TIP3   OH268554   3.749   6.465  14.525 -0.8134  0.6585  0.6024
15688TIP3    H168555   3.716   6.391  14.576 -2.7981  0.4742 -0.9172
15688TIP3    H268556   3.765   6.533  14.591  1.1419 -1.1078  2.0235
15689TIP3   OH268557   4.627   5.294  11.370  0.1575 -0.1946 -0.2136
15689TIP3    H168558   4.539   5.263  11.347 -0.3106 -1.0387  2.5295
15689TIP3    H268559   4.686   5.229  11.333 -0.3223  0.4837 -2.2585
15690TIP3   OH268560   1.549   4.445   1.444  0.0134  0.4989  0.2471
15690TIP3    H168561   1.616   4.377   1.451 -0.5783 -0.0245  0.8229
15690TIP3    H268562   1.578   4.514   1.503  0.3347  0.5199  0.0673
15691TIP3   OH268563   3.038   3.262  16.131  0.2230  0.0531 -0.3640
15691TIP3    H168564   3.117   3.315  16.124 -0.3645  0.8361 -1.1136
15691TIP3    H268565   2.969   3.324  16.151 -0.8935 -0.0466 -3.5788
15692TIP3   OH268566   3.022   0.476   4.217  0.2265 -0.1697 -0.3402
15692TIP3    H168567   3.003   0.501   4.308 -0.8929 -0.0923 -0.5970
15692TIP3    H268568   3.092   0.536   4.190  0.0813  0.2629  0.2421
15693TIP3   OH268569   2.267   0.444   1.864  0.1232  0.3129  0.2818
15693TIP3    H168570   2.211   0.492   1.925  0.1234 -0.7013  1.0800
15693TIP3    H268571   2.302   0.371   1.915  2.0674  0.8441 -0.2360
15694TIP3   OH268572   0.714   1.047   5.077 -0.5568 -0.2308  0.6033
15694TIP3    H168573   0.767   1.027   4.999  1.8071 -0.7348  2.2659
15694TIP3    H268574   0.700   1.142   5.072 -0.2029 -0.2213 -0.3122
15695TIP3   OH268575   2.583   1.688   1.097 -0.0354 -0.0350  0.4825
15695TIP3    H168576   2.637   1.650   1.028 -0.9743 -0.4360 -0.0426
15695TIP3    H268577   2.580   1.620   1.165 -0.2715 -0.2031  0.3041
15696TIP3   OH268578   2.206   1.303   3.486 -0.2659  0.2108  0.3228
15696TIP3    H168579   2.200   1.231   3.548 -0.0894 -0.5350 -0.5153
15696TIP3    H268580   2.206   1.261   3.400  0.6684  1.1587 -0.1488
15697TIP3   OH268581   5.768   0.538   1.562  0.2250 -0.5396  0.0540
15697TIP3    H168582   5.693   0.489   1.595  2.0832 -2.3903  1.6470
15697TIP3    H268583   5.742   0.563   1.473 -2.6437 -0.2804  0.9023
15698TIP3   OH268584   5.751   2.218   1.372  0.4001  0.2259 -1.0976
15698TIP3    H168585   5.822   2.242   1.431 -1.2012  0.7134  0.6598
15698TIP3    H268586   5.750   2.122   1.374  0.0367  0.2504  0.0386
15699TIP3   OH268587   1.868   4.882  11.547 -0.6362  0.6613  0.1379
15699TIP3    H168588   1.822   4.945  11.491  2.2549  2.8469  0.1495
15699TIP3    H268589   1.853   4.912  11.636 -1.9521 -0.5743  0.3578
15700TIP3   OH268590   2.752   2.095  11.613  0.1451 -0.7137  0.1241
15700TIP3    H168591   2.665   2.060  11.631 -1.7032  2.1348 -2.6965
15700TIP3    H268592   2.738   2.189  11.602  4.0714  0.2377  2.2900
15701TIP3   OH268593   1.866   5.064  16.493 -0.2521  0.7184 -0.2191
15701TIP3    H168594   1.810   5.140  16.480  0.0410  1.1665  1.0311
15701TIP3    H268595   1.805   4.992  16.509 -0.4898  1.2524  1.3838
15702TIP3   OH268596   1.306   4.116   3.093 -0.6016 -0.0731 -0.0676
15702TIP3    H168597   1.288   4.191   3.150  3.2816  0.8150  0.1091
15702TIP3    H268598   1.325   4.044   3.153 -0.9665 -0.3064 -0.2332
15703TIP3   OH268599   3.856   2.172   5.813 -0.3802  0.0926 -0.1407
15703TIP3    H168600   3.767   2.182   5.780 -0.4778 -1.1600 -0.2921
15703TIP3    H268601   3.849   2.185   5.907 -0.7604 -0.1776 -0.1315
15704TIP3   OH268602   4.452   3.706  15.201 -0.0232  0.1117  0.0632
15704TIP3    H168603   4.439   3.629  15.145  0.9164 -0.8681  1.1621
15704TIP3    H268604   4.379   3.764  15.178  0.4982 -0.1150 -2.3763
15705TIP3   OH268605   4.799   2.930   1.713  0.8064  0.3145 -0.0710
15705TIP3    H168606   4.799   2.838   1.686 -0.0604  0.2402  0.1694
15705TIP3    H268607   4.766   2.977   1.636  1.5875  0.4657 -0.3178
15706TIP3   OH268608   4.459   2.560   1.842  0.4569  0.1345  0.0650
15706TIP3    H168609   4.481   2.546   1.750  1.4316  0.1563  0.2857
15706TIP3    H268610   4.481   2.477   1.884 -0.9636 -0.2332  0.1160
15707TIP3   OH268611   3.549   1.212   3.217  0.0804 -0.4987 -0.3462
15707TIP3    H168612   3.575   1.286   3.272 -1.6627  2.1144 -2.9000
15707TIP3    H268613   3.631   1.177   3.182  0.8629  0.8685  0.1281
15708TIP3   OH268614   2.154   4.260   4.321  0.8544 -0.1954 -0.0530
15708TIP3    H168615   2.112   4.339   4.355  0.3880 -0.0190 -0.9996
15708TIP3    H268616   2.133   4.192   4.385  1.0003  0.3886  0.6117
15709TIP3   OH268617   1.832   1.776  13.031  0.1629  0.1066 -0.2620
15709TIP3    H168618   1.880   1.858  13.035  1.1683 -0.4040 -1.4472
15709TIP3    H268619   1.890   1.717  12.982 -1.3234 -0.7694 -0.9998
15710TIP3   OH268620   5.523   3.457  13.416 -0.2800  0.0765  0.3643
15710TIP3    H168621   5.487   3.516  13.351 -2.9078 -0.0045  1.6972
15710TIP3    H268622   5.589   3.508  13.462 -2.6070  2.0548  1.5895
15711TIP3   OH268623   5.346   6.255   1.470 -0.3313  0.3550  0.3282
15711TIP3    H168624   5.419   6.246   1.531 -0.9623  1.1858  1.2373
15711TIP3    H268625   5.381   6.227   1.386  0.8199  0.0522  0.8951
15712TIP3   OH268626   4.257   0.992   4.620  1.0842 -0.3861  0.4166
15712TIP3    H168627   4.342   0.975   4.581  0.9236 -0.7230  0.2084
15712TIP3    H268628   4.202   0.919   4.590  1.0072 -0.7401  1.3995
15713TIP3   OH268629   2.603   0.697   1.291 -0.9736  0.1185  0.5923
15713TIP3    H168630   2.556   0.780   1.289 -1.1353 -0.0011 -0.7759
15713TIP3    H268631   2.627   0.680   1.200  2.6434  0.6875  1.3679
15714TIP3   OH268632   0.493   3.239   0.082  0.4891 -0.2168  0.0243
15714TIP3    H168633   0.422   3.198   0.132 -1.9215  2.2154 -1.2715
15714TIP3    H268634   0.510   3.179   0.010 -0.6785 -0.5527  0.0193
15715TIP3   OH268635   1.697   4.033   4.346 -0.0599  0.4747 -0.1157
15715TIP3    H168636   1.693   3.952   4.398  1.5987 -0.6583 -1.7120
15715TIP3    H268637   1.631   4.020   4.278 -2.5448  2.1451  1.8849
15716TIP3   OH268638   2.929   4.892   4.219 -0.8529 -0.5496 -0.5881
15716TIP3    H168639   3.005   4.849   4.180 -0.5122 -2.0168  1.6443
15716TIP3    H268640   2.879   4.821   4.259 -1.4398  0.8547  1.2367
15717TIP3   OH268641   5.414   6.564  10.610  0.0062  0.0445 -0.0292
15717TIP3    H168642   5.392   6.473  10.633  0.4833  0.1254  0.7704
15717TIP3    H268643   5.504   6.575  10.639 -0.1237  0.8486  0.0848
15718TIP3   OH268644   5.903   6.727   4.172 -0.1875 -0.1338  0.3304
15718TIP3    H168645   5.837   6.660   4.188  1.6151 -2.5829 -2.0900
15718TIP3    H268646   5.857   6.795   4.122 -0.9294 -1.7051 -1.1472
15719TIP3   OH268647   4.916   1.892  12.156  0.2189 -0.2315 -0.7630
15719TIP3    H168648   4.940   1.807  12.193 -1.1787 -0.6489 -0.7703
15719TIP3    H268649   4.842   1.873  12.099 -0.6159  1.0989 -0.1628
15720TIP3   OH268650   3.431   5.621  12.652  0.1071  1.0428  0.3623
15720TIP3    H168651   3.520   5.600  12.680 -0.4419 -2.2932 -0.1982
15720TIP3    H268652   3.377   5.608  12.731 -0.3841 -0.6708 -0.2485
15721TIP3   OH268653   4.577   4.955   5.658 -0.2065  0.0818  0.2749
15721TIP3    H168654   4.568   4.860   5.668  0.3386 -0.0968 -0.8984
15721TIP3    H268655   4.531   4.991   5.734 -1.3897 -1.0933  0.1356
15722TIP3   OH268656   6.089   6.553   3.621  0.4696  0.0511 -0.5871
15722TIP3    H168657   5.994   6.546   3.633  0.4140  2.2874  0.6470
15722TIP3    H268658   6.106   6.511   3.537 -1.8014  0.7123 -1.4177
15723TIP3   OH268659   1.145   6.243  11.579  0.5827 -0.2994  0.2492
15723TIP3    H168660   1.088   6.166  11.573  2.1062 -1.5737  1.4397
15723TIP3    H268661   1.087   6.314  11.606 -0.5986 -1.3691  0.6068
15724TIP3   OH268662   3.225   1.359  11.613  0.0890 -0.2984  0.2543
15724TIP3    H168663   3.307   1.409  11.610  0.8048 -1.3610  1.5861
15724TIP3    H268664   3.229   1.312  11.697 -0.1257 -3.3163 -1.3768
15725TIP3   OH268665   5.650   3.523   0.248  0.4570 -0.0790  0.1421
15725TIP3    H168666   5.661   3.520   0.343 -0.3133  2.4257  0.3349
15725TIP3    H268667   5.639   3.616   0.227  0.9386 -0.5486 -2.4425
15726TIP3   OH268668   3.656   0.543   3.010  0.2802  0.1632 -0.6091
15726TIP3    H168669   3.734   0.570   2.961  0.1179  0.7415 -0.5510
15726TIP3    H268670   3.613   0.479   2.953  0.6963 -0.0114 -0.7251
15727TIP3   OH268671   3.692   1.171   5.534  0.4304  0.0461  0.3354
15727TIP3    H168672   3.699   1.085   5.492  0.4613 -0.1836  0.8057
15727TIP3    H268673   3.623   1.161   5.599  0.2148  0.4705  0.1762
15728TIP3   OH268674   2.247   2.558  16.837  0.5683 -0.3363  0.2257
15728TIP3    H168675   2.188   2.484  16.851  1.1622 -1.2128 -1.6990
15728TIP3    H268676   2.228   2.588  16.748  0.3974  1.7791  0.9511
15729TIP3   OH268677   0.719   3.148   5.307 -0.2517  0.3440  0.2319
15729TIP3    H168678   0.652   3.084   5.333  0.5388  0.6294  3.1807
15729TIP3    H268679   0.674   3.232   5.311 -0.2751  0.3343  0.1750
15730TIP3   OH268680   3.735   1.408   1.231 -0.1751 -0.4279 -0.2116
15730TIP3    H168681   3.787   1.417   1.151  1.1003  0.0092  0.6600
15730TIP3    H268682   3.798   1.384   1.299 -0.6549  2.6157  1.4029
15731TIP3   OH268683   1.758   0.524   0.763  0.4238 -0.0531  0.1276
15731TIP3    H168684   1.711   0.604   0.737  0.5050  0.3896  1.3137
15731TIP3    H268685   1.689   0.460   0.779  0.2753  0.2545  0.7349
15732TIP3   OH268686   4.283   2.566  12.471 -0.3540  0.1879  0.2169
15732TIP3    H168687   4.195   2.532  12.485 -0.8273  1.2980  0.0040
15732TIP3    H268688   4.315   2.586  12.558 -0.5424  0.3376  0.2520
15733TIP3   OH268689   2.665   3.121   3.560 -0.5578  0.0173  0.3511
15733TIP3    H168690   2.715   3.043   3.584  2.7907  1.5974 -1.1812
15733TIP3    H268691   2.688   3.186   3.627 -0.9669  0.6155 -0.0865
15734TIP3   OH268692   4.957   1.308   5.734  0.1319 -0.6278 -0.1637
15734TIP3    H168693   4.869   1.282   5.757 -0.0922  0.2239 -0.0351
15734TIP3    H268694   5.013   1.238   5.767 -0.3434 -0.3352  1.2819
15735TIP3   OH268695   3.956   1.116   5.100 -0.0808  0.1271  0.1950
15735TIP3    H168696   3.964   1.029   5.061  0.7077  0.4482 -0.3685
15735TIP3    H268697   4.027   1.121   5.165 -1.3705 -0.3973  1.6768
15736TIP3   OH268698   4.313   4.786   5.606  0.0716  0.4623  0.5263
15736TIP3    H168699   4.395   4.756   5.644 -0.0250 -0.2463  0.1901
15736TIP3    H268700   4.258   4.708   5.602 -0.0839  0.6149 -0.6239
15737TIP3   OH268701   3.514   3.108  11.486 -0.0497  0.1114 -0.0727
15737TIP3    H168702   3.487   3.159  11.409 -1.5804 -0.6948 -0.0947
15737TIP3    H268703   3.573   3.167  11.534  0.0323  1.0379 -1.2798
15738TIP3   OH268704   6.388   5.491   2.885 -0.0163  0.2433 -0.0959
15738TIP3    H168705   6.412   5.424   2.820  0.1256  0.1607  0.0424
15738TIP3    H268706   6.330   5.445   2.946  1.1129 -0.1011  0.7356
15739TIP3   OH268707   1.937   6.462  13.162  0.5417 -0.1949 -0.0889
15739TIP3    H168708   1.865   6.448  13.224  1.4271  1.0939  1.2531
15739TIP3    H268709   1.966   6.552  13.178  0.1244  0.5536 -3.0976
15740TIP3   OH268710   5.687   1.155   3.017 -0.1170 -0.1695  0.4938
15740TIP3    H168711   5.608   1.151   2.963 -0.4374  1.2872  0.8308
15740TIP3    H268712   5.662   1.110   3.098  0.6637 -3.2022 -0.8832
15741TIP3   OH268713   2.771   6.818  14.074 -0.1727 -0.2763 -0.3403
15741TIP3    H168714   2.737   6.756  14.139  0.2493  1.9512  2.1070
15741TIP3    H268715   2.694   6.867  14.046  0.1839  1.2569  1.2954
15742TIP3   OH268716   1.609   3.914  17.088 -0.1354 -0.1712 -0.5087
15742TIP3    H168717   1.564   3.847  17.138 -2.2270  1.8728  0.4564
15742TIP3    H268718   1.589   3.895  16.997 -2.1508  0.0993 -0.1469
15743TIP3   OH268719   1.090   4.236  13.919  0.2657  0.2155 -0.1900
15743TIP3    H168720   1.025   4.281  13.973 -0.1325  1.2809 -1.5064
15743TIP3    H268721   1.064   4.256  13.829  0.6025 -1.9554 -0.8032
15744TIP3   OH268722   5.064   4.301   2.030  0.1057  0.1329  0.2652
15744TIP3    H168723   5.072   4.224   1.973 -0.6529  0.5044 -0.3483
15744TIP3    H268724   4.970   4.319   2.034  0.1511  0.0869  1.6769
15745TIP3   OH268725   1.385   4.537   4.065  0.5102  0.0171  0.3550
15745TIP3    H168726   1.418   4.451   4.041  1.0825 -0.1633  1.7629
15745TIP3    H268727   1.378   4.535   4.160 -2.4699  0.4548  0.2189
15746TIP3   OH268728   6.670   0.663   6.666  0.0915  0.0219  0.3146
15746TIP3    H168729   6.760   0.691   6.686  0.4549 -0.1969 -0.9745
15746TIP3    H268730   6.677   0.568   6.654 -0.4543 -0.1002  0.9426
15747TIP3   OH268731   0.111   3.487   2.005 -0.5585 -0.1220 -0.6329
15747TIP3    H168732   0.203   3.458   2.003 -0.8079 -1.1129  1.3955
15747TIP3    H268733   0.089   3.500   1.913  1.8110  0.7730 -1.1263
15748TIP3   OH268734   3.134   1.224  13.614  0.4378  0.0465 -0.0122
15748TIP3    H168735   3.123   1.129  13.622  0.9715 -0.0126  0.0201
15748TIP3    H268736   3.224   1.235  13.581 -0.1183  0.4803 -1.4289
15749TIP3   OH268737   6.430   0.731  13.886 -0.4186 -0.2743  0.1839
15749TIP3    H168738   6.364   0.666  13.911 -0.2257 -0.1957  0.9243
15749TIP3    H268739   6.498   0.679  13.842 -1.5164 -0.1833 -1.6483
15750TIP3   OH268740   6.817   3.569  11.011  0.4609  0.3265 -0.1552
15750TIP3    H168741   6.753   3.518  11.060  0.7675 -0.1998 -0.2887
15750TIP3    H268742   6.771   3.598  10.933 -0.7209  3.1220  1.5211
15751TIP3   OH268743   4.407   1.738  12.024 -0.2851  0.2988  0.3155
15751TIP3    H168744   4.451   1.770  12.102 -1.0016  1.1055  0.3883
15751TIP3    H268745   4.322   1.782  12.024 -0.6322 -0.3565 -0.4507
15752TIP3   OH268746   0.837   5.649  15.991  0.2781 -0.2648  0.4775
15752TIP3    H168747   0.807   5.606  16.071  0.0692  0.0675  0.5796
15752TIP3    H268748   0.809   5.590  15.921  0.5050 -0.5799  0.6508
15753TIP3   OH268749   0.753   4.847  12.190 -0.1350  0.6893  0.1711
15753TIP3    H168750   0.726   4.797  12.112  1.2585  2.0034 -1.1914
15753TIP3    H268751   0.671   4.884  12.224 -0.7626  0.1576 -0.7208
15754TIP3   OH268752   0.106   2.581   0.220  0.4813  0.3126  0.0326
15754TIP3    H168753   0.153   2.611   0.297  0.2974  0.5637  0.0487
15754TIP3    H268754   0.061   2.660   0.187  0.9849  0.3264 -0.6311
15755TIP3   OH268755   4.580   5.740  12.467 -0.0329  0.0034 -0.1583
15755TIP3    H168756   4.515   5.676  12.439  1.3989 -1.2279 -0.7912
15755TIP3    H268757   4.565   5.750  12.561 -1.7750  0.5163 -0.4754
15756TIP3   OH268758   3.712   3.855  16.377  0.4245 -0.4143  0.1897
15756TIP3    H168759   3.768   3.791  16.421  1.5988  1.7032  1.9113
15756TIP3    H268760   3.661   3.804  16.315  1.8124 -2.9055  1.0207
15757TIP3   OH268761   4.876   6.208  14.464 -0.0864  0.3572  0.1524
15757TIP3    H168762   4.894   6.229  14.555 -0.0320  0.0003  0.2251
15757TIP3    H268763   4.960   6.174  14.430 -0.0485  0.6873 -0.0862
15758TIP3   OH268764   1.920   6.373   3.495  0.3592 -0.1034 -0.0020
15758TIP3    H168765   1.829   6.403   3.495 -0.3694 -2.2399 -0.5483
15758TIP3    H268766   1.969   6.447   3.459 -1.5175  0.1583 -2.1905
15759TIP3   OH268767   6.196   4.683  11.380 -0.1436  0.5579  0.7756
15759TIP3    H168768   6.121   4.715  11.330  0.7993  2.0844  0.2922
15759TIP3    H268769   6.264   4.668  11.313 -0.1594 -1.2636  1.1475
15760TIP3   OH268770   0.475   5.155   3.817  0.4690 -0.3457  0.2676
15760TIP3    H168771   0.458   5.061   3.823 -1.6379 -0.0853 -1.0929
15760TIP3    H268772   0.388   5.195   3.820  1.3422  1.5566  0.6831
15761TIP3   OH268773   4.970   0.139  14.635 -0.3792  0.3346  0.5853
15761TIP3    H168774   4.991   0.190  14.713  0.7852 -1.8527  1.7449
15761TIP3    H268775   4.969   0.048  14.665 -1.3623 -0.4181 -1.6494
15762TIP3   OH268776   1.227   1.317   1.843  0.4607 -0.1699  0.0775
15762TIP3    H168777   1.167   1.306   1.769  0.4746 -0.4408  0.1041
15762TIP3    H268778   1.202   1.400   1.882 -0.3951 -0.6303  0.5307
15763TIP3   OH268779   4.669   5.798   6.109 -0.8469  0.0320  0.9482
15763TIP3    H168780   4.606   5.754   6.167 -0.7678 -0.4240  0.6856
15763TIP3    H268781   4.687   5.881   6.153 -1.2220 -0.0674  1.2964
15764TIP3   OH268782   2.695   2.379  11.566 -0.0208  0.1862 -0.9104
15764TIP3    H168783   2.777   2.383  11.616 -0.6909 -3.0127  0.6037
15764TIP3    H268784   2.644   2.453  11.596  1.9445  1.7100 -1.2213
15765TIP3   OH268785   5.557   3.254  16.267  0.0790  0.8020 -0.5967
15765TIP3    H168786   5.652   3.242  16.257 -0.1633  0.0741 -2.1652
15765TIP3    H268787   5.539   3.228  16.357  1.3343  0.7583 -0.3462
15766TIP3   OH268788   1.063   0.314  11.461  0.1715  0.0104 -0.1333
15766TIP3    H168789   1.044   0.393  11.410 -0.7485 -0.1596 -0.0611
15766TIP3    H268790   1.071   0.245  11.395  0.1076 -0.0021 -0.1270
15767TIP3   OH268791   1.454   5.463   3.200 -0.6370 -0.3920  0.8888
15767TIP3    H168792   1.541   5.447   3.165 -1.6458 -0.3356 -1.7226
15767TIP3    H268793   1.469   5.518   3.277  1.4988  1.2480 -0.6256
15768TIP3   OH268794   4.270   6.609   0.858 -0.0281  0.2587  0.1502
15768TIP3    H168795   4.276   6.691   0.906 -2.4601  0.7145 -0.2546
15768TIP3    H268796   4.261   6.635   0.766  0.5255 -0.4906 -0.1200
15769TIP3   OH268797   3.458   5.076  12.116 -0.3757  0.0871  0.0226
15769TIP3    H168798   3.404   5.150  12.143 -0.3374 -0.4663  1.6434
15769TIP3    H268799   3.395   5.005  12.100 -0.2039 -0.2919  1.0259
15770TIP3   OH268800   6.089   6.038  16.209 -0.8183 -0.2055  0.0207
15770TIP3    H168801   6.026   6.103  16.178  0.9806  1.7846  0.4536
15770TIP3    H268802   6.059   6.015  16.297  0.0135  2.0575  0.9276
15771TIP3   OH268803   2.887   2.071   0.643  0.4307 -0.5754 -0.2335
15771TIP3    H168804   2.802   2.105   0.673  0.7397 -1.4254  1.6636
15771TIP3    H268805   2.952   2.124   0.690  0.9217 -1.9450  0.6670
15772TIP3   OH268806   6.630   0.426   2.563 -0.2108  0.3139 -0.3097
15772TIP3    H168807   6.719   0.432   2.596 -1.1069  0.3525  2.2053
15772TIP3    H268808   6.631   0.477   2.482  1.8368  1.0742  0.1691
15773TIP3   OH268809   3.881   4.013  15.074 -0.4475  0.3797  0.6220
15773TIP3    H168810   3.900   4.054  15.159  0.5240 -2.8774  2.0947
15773TIP3    H268811   3.796   3.971  15.086  0.2565 -1.1566  0.4694
15774TIP3   OH268812   3.249   0.904   2.159  0.7787 -0.2669 -0.3497
15774TIP3    H168813   3.317   0.838   2.172  0.4955 -0.7720 -1.4238
15774TIP3    H268814   3.228   0.899   2.066 -1.4966 -0.8626  0.1643
15775TIP3   OH268815   3.477   2.934  14.237  0.1174 -0.1401  0.1242
15775TIP3    H168816   3.531   2.856  14.238  2.3022  1.3340 -0.1890
15775TIP3    H268817   3.487   2.971  14.324 -0.9428 -0.2001  0.2831
15776TIP3   OH268818   1.576   5.098   0.919  0.2502 -0.0198 -0.3413
15776TIP3    H168819   1.592   5.097   0.824  0.8059  2.5121 -0.3195
15776TIP3    H268820   1.604   5.185   0.947 -1.9497  0.0734  1.7959
15777TIP3   OH268821   2.515   1.065   5.059 -0.1664 -0.1398 -0.1296
15777TIP3    H168822   2.559   1.150   5.067  0.8242 -0.8571  2.5826
15777TIP3    H268823   2.424   1.087   5.039 -0.1368  1.6200  1.5129
15778TIP3   OH268824   5.891   2.939   6.346 -0.3234  0.5601  0.0983
15778TIP3    H168825   5.979   2.976   6.339  0.5871 -1.5428  0.2522
15778TIP3    H268826   5.865   2.955   6.437  0.4251  0.0497  0.4057
15779TIP3   OH268827   2.101   6.428  12.297  0.6739 -0.1910 -0.1382
15779TIP3    H168828   2.025   6.417  12.239 -0.0204  1.8565  0.3362
15779TIP3    H268829   2.091   6.358  12.362 -0.1661 -0.6630 -0.7475
15780TIP3   OH268830   2.621   4.135   1.050  0.0893  0.2336  0.3086
15780TIP3    H168831   2.672   4.061   1.083  1.0082  0.1548 -1.2291
15780TIP3    H268832   2.617   4.120   0.955  2.0765  3.2649 -0.3113
15781TIP3   OH268833   3.241   2.358   2.842 -0.1696  0.0656 -0.3024
15781TIP3    H168834   3.266   2.375   2.933 -0.7226  0.4148 -0.2122
15781TIP3    H268835   3.304   2.408   2.790 -0.8377  1.1518 -0.0728
15782TIP3   OH268836   2.960   2.946   1.473 -0.4327  0.0922  0.4992
15782TIP3    H168837   2.992   3.034   1.491 -1.2225  0.2753  1.0446
15782TIP3    H268838   2.871   2.946   1.506 -0.3594 -0.9832  0.7147
15783TIP3   OH268839   6.205   5.477   0.969 -0.2253 -0.4410  0.0259
15783TIP3    H168840   6.113   5.489   0.945 -0.1313  0.3900  0.0776
15783TIP3    H268841   6.251   5.550   0.927  0.2986 -0.3942  0.6736
15784TIP3   OH268842   4.492   3.772  16.599  0.7188 -0.9143  0.2039
15784TIP3    H168843   4.449   3.706  16.653  0.4685 -0.4767  0.5421
15784TIP3    H268844   4.504   3.730  16.514 -0.7942 -0.8864 -0.0288
15785TIP3   OH268845   5.053   4.232   5.598 -0.3530  0.0890 -0.2155
15785TIP3    H168846   5.007   4.229   5.514 -0.7727  1.5164 -0.0521
15785TIP3    H268847   4.988   4.203   5.662 -1.3752  2.9971  0.1387
15786TIP3   OH268848   1.093   0.008  12.126  0.3250 -1.1962  0.3956
15786TIP3    H168849   1.171  -0.048  12.131 -0.0229 -1.8321 -1.0578
15786TIP3    H268850   1.044  -0.026  12.050 -0.7644 -0.0356  0.5703
15787TIP3   OH268851   4.095   0.565   4.664 -0.0482  0.7710  0.1019
15787TIP3    H168852   4.015   0.539   4.710  0.4361  0.6593  0.8833
15787TIP3    H268853   4.121   0.486   4.616  0.9894 -0.0018  1.8638
15788TIP3   OH268854   2.705   1.493  14.762  0.8522  0.4615  0.4848
15788TIP3    H168855   2.704   1.528  14.851  1.5918  2.1131 -0.1258
15788TIP3    H268856   2.739   1.565  14.709  2.8400 -1.3250 -0.7621
15789TIP3   OH268857   4.789   0.069  14.094 -0.4005 -0.0817  0.4919
15789TIP3    H168858   4.877   0.032  14.083  0.0552  0.7910  1.1826
15789TIP3    H268859   4.799   0.162  14.075 -1.4865 -0.2316 -0.9160
15790TIP3   OH268860   4.930   1.604  12.187  0.0007  0.6122 -0.1756
15790TIP3    H168861   5.000   1.541  12.177  0.5804  1.3599 -0.8532
15790TIP3    H268862   4.851   1.551  12.197  0.7676 -0.2517  1.5085
15791TIP3   OH268863   5.469   2.505  16.744  0.0084 -0.5260  0.2410
15791TIP3    H168864   5.556   2.472  16.768  0.3843  0.1640 -0.1296
15791TIP3    H268865   5.487   2.590  16.704 -0.6084 -1.4974 -2.2051
15792TIP3   OH268866   3.480   2.362  16.471 -0.1173 -0.0573  0.6376
15792TIP3    H168867   3.473   2.269  16.450  1.5830 -0.2331  0.7987
15792TIP3    H268868   3.431   2.372  16.553  0.6476 -1.0180  1.2106
15793TIP3   OH268869   6.296   2.640   1.063 -0.1105 -0.0455  0.1657
15793TIP3    H168870   6.291   2.619   0.969  0.4787 -1.5282  0.4485
15793TIP3    H268871   6.243   2.572   1.105  1.4361 -0.6994  1.0826
15794TIP3   OH268872   3.155   6.439   3.767 -0.4922  0.1058 -0.5094
15794TIP3    H168873   3.110   6.397   3.840 -1.3725  0.1063 -1.0379
15794TIP3    H268874   3.085   6.459   3.705  0.0315  1.6298 -0.6184
15795TIP3   OH268875   4.910   3.747  14.796  0.3633 -0.4564 -0.3800
15795TIP3    H168876   4.906   3.711  14.885 -0.1258 -1.0761 -0.6433
15795TIP3    H268877   5.000   3.731  14.768  0.2959 -1.0180 -0.2980
15796TIP3   OH268878   3.531   0.312  16.631 -0.1870 -0.6741 -0.3044
15796TIP3    H168879   3.457   0.264  16.667 -0.5127  1.0692  1.4225
15796TIP3    H268880   3.586   0.333  16.707  0.0075  1.5372 -1.0038
15797TIP3   OH268881   3.805   5.887  13.124  0.0762 -0.1545 -0.0662
15797TIP3    H168882   3.794   5.976  13.157  1.3606  0.1380 -0.3708
15797TIP3    H268883   3.788   5.831  13.200  2.3335  0.4844  0.9517
15798TIP3   OH268884   6.819   2.540   3.204 -0.7606 -0.0535 -0.1519
15798TIP3    H168885   6.732   2.548   3.243  0.0060 -0.2530  1.6574
15798TIP3    H268886   6.863   2.474   3.257  0.9703  1.0573 -0.1737
15799TIP3   OH268887   5.740   5.219  16.817  0.0275  0.4752  0.3599
15799TIP3    H168888   5.651   5.254  16.827 -0.7768 -0.7827 -1.9852
15799TIP3    H268889   5.730   5.125  16.835  1.0182  0.4173  0.6386
15800TIP3   OH268890   6.701   2.422  13.809  0.2683  0.6473 -0.0186
15800TIP3    H168891   6.646   2.442  13.734 -0.3238  1.6489  0.6860
15800TIP3    H268892   6.736   2.335  13.790  0.6229  1.1509 -1.7530
15801TIP3   OH268893   6.713   3.994   0.054 -0.2408  0.4154  0.1168
15801TIP3    H168894   6.743   4.048  -0.020  0.8730  0.4583  0.5910
15801TIP3    H268895   6.791   3.943   0.079 -0.7435  0.0678  0.9678
15802TIP3   OH268896   0.658   1.713  11.923 -0.3128  0.2336 -0.3271
15802TIP3    H168897   0.735   1.759  11.956 -0.2792  0.9708 -1.4286
15802TIP3    H268898   0.596   1.716  11.995 -0.1210  1.5635 -0.2130
15803TIP3   OH268899   3.529   4.896  15.460 -0.2343  0.7585  0.2583
15803TIP3    H168900   3.530   4.956  15.534  1.1208  1.0903 -0.0171
15803TIP3    H268901   3.613   4.850  15.464 -0.7378 -0.2454 -0.2465
15804TIP3   OH268902   1.176   2.705   2.109  0.7200  0.2424 -0.4270
15804TIP3    H168903   1.201   2.631   2.165  1.1652 -0.7946 -1.9581
15804TIP3    H268904   1.115   2.667   2.045  2.1680  0.8106 -2.2037
15805TIP3   OH268905   0.185   2.497  15.521 -0.2559 -0.6598  0.9296
15805TIP3    H168906   0.111   2.556  15.534  1.6695  1.2302  3.7451
15805TIP3    H268907   0.214   2.514  15.432 -1.6297  0.4320  0.6777
15806TIP3   OH268908   4.692   6.185  13.081 -0.5547  0.1606  0.3706
15806TIP3    H168909   4.642   6.200  13.001  1.2840  2.4595 -0.4365
15806TIP3    H268910   4.707   6.091  13.084 -1.7845 -0.1021 -1.2731
15807TIP3   OH268911   2.489   5.496   6.178  0.0911  0.1501 -0.0455
15807TIP3    H168912   2.418   5.539   6.130 -1.2708 -1.2108  0.7263
15807TIP3    H268913   2.562   5.558   6.173 -1.1393  1.5617 -0.8419
15808TIP3   OH268914   1.188   0.802  12.022 -0.0937  0.3446 -0.5211
15808TIP3    H168915   1.114   0.863  12.020 -0.4947 -0.1566 -1.8323
15808TIP3    H268916   1.183   0.757  11.937 -0.0760 -1.8287  0.6059
15809TIP3   OH268917   1.898   2.083  16.754  0.3131  0.4547  0.0015
15809TIP3    H168918   1.829   2.146  16.773 -0.4737 -0.1164 -0.9374
15809TIP3    H268919   1.942   2.070  16.838  0.0941  1.7722  0.3391
15810TIP3   OH268920   0.016   5.599   0.825  0.5983 -0.2798  0.3891
15810TIP3    H168921   0.043   5.628   0.912 -3.3739  0.2092  1.5424
15810TIP3    H268922  -0.024   5.675   0.785 -2.8823 -1.9582  0.4614
15811TIP3   OH268923   2.138   3.772  11.498  0.4164 -0.2326  0.0373
15811TIP3    H168924   2.095   3.840  11.445 -0.5015 -0.1805  0.8208
15811TIP3    H268925   2.076   3.755  11.569  1.3387 -0.7656  0.7291
15812TIP3   OH268926   2.946   5.666   3.110 -0.0759 -0.1652  0.2553
15812TIP3    H168927   2.991   5.742   3.146  0.8437 -0.4919 -0.1910
15812TIP3    H268928   2.853   5.684   3.125 -0.0335  2.1021 -1.8975
15813TIP3   OH268929   6.075   2.676   5.373 -0.4067 -0.4522 -0.3818
15813TIP3    H168930   6.108   2.686   5.284 -0.5626  0.8838 -0.2993
15813TIP3    H268931   6.153   2.685   5.429 -0.4294 -0.4479 -0.3507
15814TIP3   OH268932   2.538   1.264   2.720  0.0654  0.2292  0.2994
15814TIP3    H168933   2.492   1.225   2.645 -0.7928 -0.3087  1.0913
15814TIP3    H268934   2.551   1.355   2.695  0.1474 -0.0446 -0.6803
15815TIP3   OH268935   6.081   1.790  12.702 -0.0346  0.0007  0.0369
15815TIP3    H168936   6.048   1.880  12.695 -0.2059 -0.0746 -0.1136
15815TIP3    H268937   6.008   1.740  12.738  0.1855 -0.0035  0.4861
15816TIP3   OH268938   5.191   2.775   4.645 -1.2121  0.7292  0.3115
15816TIP3    H168939   5.216   2.683   4.654 -0.3219  0.9073 -0.2807
15816TIP3    H268940   5.117   2.773   4.585 -0.6703  0.4777 -0.3490
15817TIP3   OH268941   1.782   4.195  12.548  0.3157 -0.4418 -0.2243
15817TIP3    H168942   1.743   4.209  12.635 -1.1683  0.9456 -1.0804
15817TIP3    H268943   1.714   4.225  12.487  1.0692 -2.0384 -1.8854
15818TIP3   OH268944   2.378   4.826   2.987 -0.2785  0.1938 -0.0435
15818TIP3    H168945   2.286   4.800   2.998 -0.5146  0.7857 -0.6397
15818TIP3    H268946   2.375   4.901   2.928  0.7196 -0.7623 -1.3265
15819TIP3   OH268947   1.727   1.571   1.182  0.0962  0.0827  0.6368
15819TIP3    H168948   1.692   1.614   1.104 -0.2000 -0.4577  0.4738
15819TIP3    H268949   1.781   1.499   1.148 -1.9983 -1.6812  0.9625
15820TIP3   OH268950   3.158   6.486  16.245 -0.6292 -0.1560  0.0697
15820TIP3    H168951   3.226   6.420  16.236 -0.6662 -0.3783  1.2980
15820TIP3    H268952   3.075   6.438  16.237 -0.6613 -0.3478  1.4437
15821TIP3   OH268953   2.432   2.799  17.278  0.1618  0.5242 -0.6615
15821TIP3    H168954   2.469   2.803  17.367 -0.2152  1.0239 -0.5246
15821TIP3    H268955   2.508   2.798  17.221  0.3969  1.1077 -0.3632
15822TIP3   OH268956   0.271   3.090   3.378  0.1753 -0.2083 -0.0555
15822TIP3    H168957   0.220   3.095   3.298  1.9465 -0.8245 -1.2550
15822TIP3    H268958   0.229   3.020   3.429 -1.6227  0.9355  0.0837
15823TIP3   OH268959   0.866   2.235   3.646  0.0612  0.7920 -0.2247
15823TIP3    H168960   0.848   2.228   3.552  1.2743 -1.0178 -0.3520
15823TIP3    H268961   0.933   2.303   3.653 -0.2756  1.1707 -0.6109
15824TIP3   OH268962   2.600   1.899  15.881 -0.1351  0.4375 -0.0408
15824TIP3    H168963   2.608   1.867  15.971  0.2352  1.8925  0.4590
15824TIP3    H268964   2.687   1.887  15.844 -0.6776 -1.6477 -0.7438
15825TIP3   OH268965   3.914   3.737   2.737 -0.3969  0.2600  0.5064
15825TIP3    H168966   3.950   3.757   2.823  0.6480  0.4856  0.0243
15825TIP3    H268967   3.845   3.672   2.753 -3.4678  3.7182  2.0600
15826TIP3   OH268968   5.075   2.185  15.883  0.1353  0.7866 -0.1216
15826TIP3    H168969   4.982   2.164  15.894  0.5069 -1.1838 -0.4900
15826TIP3    H268970   5.110   2.186  15.972 -0.1199  0.9466 -0.0215
15827TIP3   OH268971   4.793   3.221   0.526 -0.2692  0.0130  0.9103
15827TIP3    H168972   4.704   3.243   0.554 -0.3355  0.8720  0.0200
15827TIP3    H268973   4.782   3.144   0.470 -0.8170  2.0200 -1.8159
15828TIP3   OH268974   5.041   3.328  12.879 -0.2482  0.3002  0.5251
15828TIP3    H168975   5.081   3.279  12.951  0.9725  1.0104  0.3363
15828TIP3    H268976   4.954   3.350  12.911 -0.5501 -1.3500  0.8988
15829TIP3   OH268977   2.236   3.335   5.604 -0.3067 -0.8500 -0.7615
15829TIP3    H168978   2.316   3.294   5.571 -0.1569 -0.7415 -0.5319
15829TIP3    H268979   2.262   3.424   5.628 -0.1868 -1.2279  0.5681
15830TIP3   OH268980   2.989   1.845  15.238 -0.0426 -0.2116 -0.3889
15830TIP3    H168981   2.909   1.801  15.268 -0.5617  1.5286  0.9335
15830TIP3    H268982   2.960   1.896  15.162 -0.1568  0.2509 -0.0403
15831TIP3   OH268983   3.458   3.066  13.394 -0.0503  0.0951  0.0186
15831TIP3    H168984   3.529   3.128  13.375  0.9519 -1.3727 -1.0941
15831TIP3    H268985   3.386   3.095  13.337 -0.4922  1.7759  1.3754
15832TIP3   OH268986   3.453   6.021   1.044  0.1409  0.1500  0.4737
15832TIP3    H168987   3.545   6.016   1.067  0.4031  0.2139 -0.5204
15832TIP3    H268988   3.407   5.981   1.118  1.0807 -1.3973  0.2448
15833TIP3   OH268989   4.298   6.342  14.346  0.1312 -0.0695 -0.7726
15833TIP3    H168990   4.292   6.426  14.302  0.4523  0.4964  0.2525
15833TIP3    H268991   4.315   6.363  14.438 -0.6617 -1.2193 -0.3381
15834TIP3   OH268992   4.745   3.232  16.554 -0.2995 -0.1756 -0.1108
15834TIP3    H168993   4.730   3.164  16.621 -0.4778 -0.4886 -0.4661
15834TIP3    H268994   4.745   3.314  16.603  1.1536 -0.5181  0.5220
15835TIP3   OH268995   5.323   3.653   3.215  0.4543  0.4706  0.8558
15835TIP3    H168996   5.346   3.664   3.122  2.0132  0.2569  1.2105
15835TIP3    H268997   5.347   3.736   3.256  0.7771  0.1711  1.2734
15836TIP3   OH268998   2.682   2.320   2.556  0.5566 -0.3051  0.0267
15836TIP3    H168999   2.631   2.328   2.637  0.2837 -1.4520 -0.0181
15836TIP3    H269000   2.641   2.381   2.495 -0.6628 -1.1100  0.0386
15837TIP3   OH269001   3.803   3.719  16.989  0.0186 -0.1110 -0.5225
15837TIP3    H169002   3.898   3.732  16.993 -0.2221  1.7469 -0.2287
15837TIP3    H269003   3.780   3.739  16.899 -0.4407  2.2714  0.0827
15838TIP3   OH269004   6.404   4.112  12.010 -0.7831  0.1255 -0.2773
15838TIP3    H169005   6.437   4.172  11.943  0.1738 -0.5458 -0.4159
15838TIP3    H269006   6.467   4.119  12.082  1.6397 -3.6767 -1.8727
15839TIP3   OH269007   0.248   0.286   0.485 -0.2571  0.4090 -0.1728
15839TIP3    H169008   0.242   0.381   0.480  0.6248  0.4965  0.3994
15839TIP3    H269009   0.306   0.269   0.559  1.0944 -0.5296 -1.4048
15840TIP3   OH269010   0.180   5.683   3.782 -0.1333 -0.0838  0.1429
15840TIP3    H169011   0.260   5.734   3.774 -0.6272  0.5984 -0.4965
15840TIP3    H269012   0.120   5.738   3.832 -0.4693 -0.2683 -0.0522
15841TIP3   OH269013   0.935   5.060  12.157  0.5090 -0.6977  0.3299
15841TIP3    H169014   0.853   5.107  12.143  0.2795 -0.7253  1.6057
15841TIP3    H269015   0.909   4.968  12.161  0.6361 -0.7281  0.4662
15842TIP3   OH269016   6.678   2.659  12.139 -0.5370  0.7758 -0.1999
15842TIP3    H169017   6.714   2.689  12.223 -0.0421 -0.9382  0.2206
15842TIP3    H269018   6.703   2.726  12.076  1.1845  0.8714  0.5719
15843TIP3   OH269019   6.817   0.505   5.414  0.1568  0.0187 -0.1143
15843TIP3    H169020   6.740   0.527   5.466  0.6816 -0.1882  0.7591
15843TIP3    H269021   6.808   0.412   5.396  1.0759 -0.4105  1.4956
15844TIP3   OH269022   4.346   2.029   5.957  0.3963 -0.1074  0.2153
15844TIP3    H169023   4.280   2.070   5.901 -0.0958  0.0045  0.8684
15844TIP3    H269024   4.386   1.962   5.902 -1.5200 -1.4164  0.3606
15845TIP3   OH269025   1.910   2.637  12.656 -0.2618 -0.4391  0.4209
15845TIP3    H169026   1.970   2.674  12.591  0.1278 -0.2315  0.8951
15845TIP3    H269027   1.964   2.575  12.706 -0.9848 -1.8984 -0.5642
15846TIP3   OH269028   3.934   3.532  11.154  0.5456 -0.8160 -0.5998
15846TIP3    H169029   3.904   3.457  11.104 -0.3668  0.6620 -2.3195
15846TIP3    H269030   4.023   3.549  11.122  0.4796 -0.7226 -0.7345
15847TIP3   OH269031   4.155   4.030   5.621  0.4930 -0.2238  0.1425
15847TIP3    H169032   4.105   3.976   5.681 -0.3501 -0.0146 -0.3678
15847TIP3    H269033   4.119   4.118   5.630  0.4965 -0.1478 -0.5140
15848TIP3   OH269034   3.783   5.688   1.258 -0.1625 -0.4113 -0.1584
15848TIP3    H169035   3.870   5.698   1.220  0.3538 -1.0048  0.8275
15848TIP3    H269036   3.723   5.700   1.185  0.6756  1.6579 -0.5390
15849TIP3   OH269037   6.662   4.973   4.736 -0.0953 -0.8140  0.1388
15849TIP3    H169038   6.606   4.976   4.659 -1.4279 -3.4373  0.9585
15849TIP3    H269039   6.637   5.050   4.787  0.1598  0.4304 -1.5692
15850TIP3   OH269040   1.531   5.382  12.586  0.4729  0.1034  0.1023
15850TIP3    H169041   1.452   5.328  12.585  0.4742  0.1019 -1.0206
15850TIP3    H269042   1.600   5.324  12.556  0.8852  0.1300  1.0041
15851TIP3   OH269043   5.549   3.685   2.996 -0.0165 -0.7475  0.4228
15851TIP3    H169044   5.559   3.591   3.013 -0.7564 -0.6211  1.5930
15851TIP3    H269045   5.539   3.724   3.083 -2.0373  0.1368 -0.1838
15852TIP3   OH269046   3.633   5.875  16.301 -0.0956 -0.9759  0.7966
15852TIP3    H169047   3.711   5.882  16.356 -0.7570  0.4485  1.5793
15852TIP3    H269048   3.560   5.885  16.362 -0.8364  2.3984 -0.5453
15853TIP3   OH269049   6.024   3.352  12.474 -0.4273  0.1684  0.5077
15853TIP3    H169050   5.993   3.284  12.534  1.1304 -0.2692  0.8429
15853TIP3    H269051   6.041   3.305  12.392  1.2698  0.0108  0.9288
15854TIP3   OH269052   2.998   2.610   4.537  0.1469  0.3590  0.0630
15854TIP3    H169053   3.075   2.609   4.594  0.7948  2.6003 -0.7157
15854TIP3    H269054   3.031   2.579   4.452  0.2572  1.5287 -0.3290
15855TIP3   OH269055   1.667   0.008  17.172 -0.5021 -0.1934 -0.4953
15855TIP3    H169056   1.720  -0.011  17.095 -0.9890  0.2149 -0.9328
15855TIP3    H269057   1.606  -0.065  17.178 -0.4733 -0.2177 -0.5016
15856TIP3   OH269058   0.378   1.324  14.928  0.8814  0.0938 -0.6415
15856TIP3    H169059   0.340   1.385  14.865 -0.0224  0.1208 -0.0795
15856TIP3    H269060   0.309   1.260  14.945  1.5288 -0.6066 -0.5761
15857TIP3   OH269061   6.028   1.758  15.772  0.1301  0.0827 -0.0000
15857TIP3    H169062   6.071   1.835  15.735  0.8499 -0.3776 -0.1267
15857TIP3    H269063   5.941   1.759  15.732  0.0784  0.9150  0.1159
15858TIP3   OH269064   3.327   3.024   5.759 -0.2360  0.0860  0.0845
15858TIP3    H169065   3.272   3.058   5.689  1.1542  0.2251 -0.9542
15858TIP3    H269066   3.291   2.937   5.777 -0.0011 -0.3499 -1.4798
15859TIP3   OH269067   5.857   5.975   1.987 -0.5310  0.0967 -0.6698
15859TIP3    H169068   5.952   5.965   1.988 -0.4507  0.9126  1.3129
15859TIP3    H269069   5.842   6.055   1.935 -0.0927  0.3478 -0.4122
15860TIP3   OH269070   5.218   5.437   5.846  0.2773  0.6004  0.4802
15860TIP3    H169071   5.233   5.525   5.880 -2.8121  1.3878 -0.0346
15860TIP3    H269072   5.258   5.438   5.759 -0.4335  1.7780  0.1565
15861TIP3   OH269073   2.357   6.042   4.164 -0.0856  0.5860 -0.1206
15861TIP3    H169074   2.373   6.060   4.257 -0.8090 -0.2283  0.1644
15861TIP3    H269075   2.329   6.126   4.128 -0.4160  0.7593  0.5361
15862TIP3   OH269076   2.878   3.326   2.159 -0.4715 -0.1888 -0.0697
15862TIP3    H169077   2.957   3.379   2.166 -0.3749 -0.8226  5.0505
15862TIP3    H269078   2.807   3.389   2.157 -0.0246  0.3367 -3.6467
15863TIP3   OH269079   5.200   0.484  16.896 -0.1825 -0.7263 -0.0065
15863TIP3    H169080   5.279   0.431  16.882  0.7115  0.0452  1.9160
15863TIP3    H269081   5.217   0.566  16.850 -0.9073 -1.5011 -1.6673
15864TIP3   OH269082   0.841   1.258   0.821  0.2170  0.4196  0.3231
15864TIP3    H169083   0.764   1.279   0.769 -0.2556  0.0424  0.8577
15864TIP3    H269084   0.808   1.254   0.911  0.8287  0.1006  0.5329
15865TIP3   OH269085   1.666   6.656   1.635 -0.7889  0.4226 -0.5753
15865TIP3    H169086   1.714   6.573   1.639 -1.0937  0.1806 -1.5838
15865TIP3    H269087   1.588   6.635   1.583 -1.0565  1.2533 -0.5053
15866TIP3   OH269088   4.353   2.123  13.530 -0.0957  0.3951  0.2215
15866TIP3    H169089   4.393   2.106  13.616 -1.8865  2.7659  1.6012
15866TIP3    H269090   4.416   2.179  13.485  1.1799 -1.4536 -0.2949
15867TIP3   OH269091   3.679   2.098   4.533  0.7852 -0.0784  0.2574
15867TIP3    H169092   3.706   2.075   4.445 -0.2600  4.2545 -1.3187
15867TIP3    H269093   3.743   2.164   4.561  0.5509 -0.7201  2.4054
15868TIP3   OH269094   1.975   0.771  12.567 -0.3752  0.5383 -0.0279
15868TIP3    H169095   1.930   0.833  12.623  1.6607  0.5012  1.7154
15868TIP3    H269096   1.981   0.815  12.482 -0.4561  2.0158  0.7160
15869TIP3   OH269097   2.323   1.432  11.829 -0.6228 -0.0803 -0.0551
15869TIP3    H169098   2.412   1.413  11.859 -0.5024  0.3792 -0.1186
15869TIP3    H269099   2.270   1.360  11.863 -0.6519  0.9056  2.1164
15870TIP3   OH269100   3.486   3.566   4.654 -0.2429 -0.1590  0.2577
15870TIP3    H169101   3.438   3.527   4.726 -0.6885  2.1029  1.2401
15870TIP3    H269102   3.418   3.594   4.592 -0.1650  1.7550  0.9844
15871TIP3   OH269103   3.074   2.527   3.668 -0.0191  0.0998  0.0315
15871TIP3    H169104   3.113   2.500   3.751 -0.1556 -1.4765 -0.4001
15871TIP3    H269105   3.128   2.601   3.638  0.9528 -0.3110  0.7642
15872TIP3   OH269106   6.254   5.363   1.236 -0.5785  0.1992 -0.2296
15872TIP3    H169107   6.246   5.406   1.151 -2.0257  0.3736 -0.0082
15872TIP3    H269108   6.299   5.427   1.291  3.4439 -1.1473 -1.7250
15873TIP3   OH269109   2.956   6.797  10.880 -1.0069  0.0097 -0.0917
15873TIP3    H169110   2.931   6.845  10.959  1.2568  0.0711  0.6221
15873TIP3    H269111   2.983   6.711  10.912  0.7793  0.3369 -0.6968
15874TIP3   OH269112   6.684   0.765  14.905  0.2705 -0.4272 -0.0113
15874TIP3    H169113   6.590   0.753  14.891  0.3983  0.0342 -1.3765
15874TIP3    H269114   6.718   0.676  14.913 -0.2924 -0.5940  0.5556
15875TIP3   OH269115   3.799   1.042  16.668 -0.2872  0.5528 -0.3067
15875TIP3    H169116   3.843   1.026  16.584 -0.3990 -1.1278 -0.0753
15875TIP3    H269117   3.735   0.971  16.675  1.3470 -0.7428  2.2779
15876TIP3   OH269118   0.764   4.278  16.227  0.0372 -0.2902 -0.2239
15876TIP3    H169119   0.723   4.248  16.146  2.8717 -0.0153 -1.8165
15876TIP3    H269120   0.853   4.242  16.223  0.3129 -0.0020  2.6100
15877TIP3   OH269121   1.443   5.271   6.556 -0.2505 -0.3434 -0.5122
15877TIP3    H169122   1.442   5.196   6.497 -1.2975 -0.7845  0.0520
15877TIP3    H269123   1.373   5.253   6.618 -0.7585  1.2956 -0.6066
15878TIP3   OH269124   1.392   4.108  14.105  0.1843 -0.4155 -0.9302
15878TIP3    H169125   1.305   4.069  14.114  0.1438 -0.3705 -1.1147
15878TIP3    H269126   1.402   4.122  14.011  0.0182  0.4257 -0.8249
15879TIP3   OH269127   3.812   4.977  14.610 -0.3750  0.0547  0.7566
15879TIP3    H169128   3.743   4.950  14.549  0.7316 -1.4110  0.1135
15879TIP3    H269129   3.872   5.029  14.557 -0.8468  1.1067  1.2509
15880TIP3   OH269130   0.208   3.766   6.092 -0.1970 -0.3438 -0.2264
15880TIP3    H169131   0.215   3.748   6.185 -2.3862  0.7704  0.1846
15880TIP3    H269132   0.140   3.706   6.061  0.7641 -0.9493 -1.1680
15881TIP3   OH269133   3.047   4.186   5.994  0.0047 -0.3466 -0.9888
15881TIP3    H169134   3.059   4.202   6.087 -0.0952 -0.0108 -1.0309
15881TIP3    H269135   3.028   4.272   5.957 -0.8891 -0.6160 -1.1749
15882TIP3   OH269136   3.122   6.021  14.764  0.1140  0.1756 -0.3371
15882TIP3    H169137   3.183   6.009  14.691 -1.6649 -1.2384 -1.6334
15882TIP3    H269138   3.037   6.034  14.722 -0.5255  2.0548  1.4547
15883TIP3   OH269139   2.088   2.365  11.665 -0.2920 -0.6738  0.5790
15883TIP3    H169140   2.017   2.301  11.671 -0.7593 -0.0427  1.8717
15883TIP3    H269141   2.130   2.347  11.580 -0.9507 -2.1267  0.5597
15884TIP3   OH269142   4.756   1.848  13.556 -0.2499  0.3315 -0.3576
15884TIP3    H169143   4.802   1.790  13.495 -0.2980  0.6951 -0.7422
15884TIP3    H269144   4.735   1.926  13.504 -0.3627  0.6110  0.1017
15885TIP3   OH269145   0.027   2.626   1.889 -0.1766 -0.2520  0.0190
15885TIP3    H169146   0.023   2.570   1.811  0.0675  0.2791 -0.3804
15885TIP3    H269147   0.052   2.712   1.855 -4.2196  1.0721  0.1341
15886TIP3   OH269148   4.363   6.418   0.259  0.7263 -0.1385 -0.3889
15886TIP3    H169149   4.336   6.338   0.215  0.7220  0.1513 -0.9174
15886TIP3    H269150   4.451   6.400   0.291  0.9497 -0.1569 -1.0100
15887TIP3   OH269151   0.886   0.984  12.892  0.1689 -0.3869 -0.1451
15887TIP3    H169152   0.969   0.954  12.854  0.2373  0.0881 -0.3786
15887TIP3    H269153   0.834   1.012  12.816 -0.5120 -1.4280 -0.0717
15888TIP3   OH269154   3.632   6.151  16.148  0.6421 -0.4710  0.9451
15888TIP3    H169155   3.716   6.185  16.180  0.3927  0.2628  0.8053
15888TIP3    H269156   3.643   6.055  16.151  1.5051 -0.3789  0.8689
15889TIP3   OH269157   1.380   2.188  11.693  0.2024  0.2893 -0.0114
15889TIP3    H169158   1.308   2.251  11.698  0.4701  0.5452  0.7928
15889TIP3    H269159   1.338   2.102  11.703  0.3026  0.5768  3.9821
15890TIP3   OH269160   3.411   6.009   2.227 -0.3486  0.0894  0.4298
15890TIP3    H169161   3.326   6.028   2.269 -0.4683 -0.9405  0.6709
15890TIP3    H269162   3.475   6.054   2.282 -0.7920  1.4255 -0.1278
15891TIP3   OH269163   6.220   2.277  14.050  0.0562 -0.2747  0.1759
15891TIP3    H169164   6.226   2.268  13.954 -1.7220  0.4625 -0.0241
15891TIP3    H269165   6.127   2.267  14.069  0.3525 -0.0463  1.8042
15892TIP3   OH269166   4.272   5.688  13.233 -0.8071 -0.3086 -0.1048
15892TIP3    H169167   4.310   5.773  13.211  1.0028 -1.0268  0.1367
15892TIP3    H269168   4.181   5.694  13.204 -0.7388  1.7537  0.0528
15893TIP3   OH269169   1.232   4.378  13.228 -0.4252 -0.1154 -0.3680
15893TIP3    H169170   1.198   4.467  13.228 -0.6073 -0.1804  0.2471
15893TIP3    H269171   1.166   4.328  13.179 -0.3473  0.0750 -0.6696
15894TIP3   OH269172   1.263   0.038   4.479  0.0989 -0.6348 -0.0149
15894TIP3    H169173   1.314   0.046   4.560 -0.5084 -2.3728  0.5612
15894TIP3    H269174   1.301   0.104   4.420  1.9195 -0.7833  0.9606
15895TIP3   OH269175   2.145   3.863  12.600 -0.1200 -0.4912  0.2186
15895TIP3    H169176   2.198   3.883  12.677 -0.4010 -1.4747  0.6733
15895TIP3    H269177   2.191   3.791  12.557 -0.8454 -1.0336  0.3568
15896TIP3   OH269178   1.074   5.935  14.666 -0.8832 -0.0873 -0.1531
15896TIP3    H169179   0.992   5.981  14.682 -0.7186 -0.1032  0.7808
15896TIP3    H269180   1.049   5.843  14.661 -0.8273 -0.1645  0.8909
15897TIP3   OH269181   3.526   1.228  12.351 -0.6280  0.2283  0.3532
15897TIP3    H169182   3.602   1.199  12.401  0.1692  0.8940 -0.4283
15897TIP3    H269183   3.512   1.159  12.286  0.1657  0.7265 -0.3675
15898TIP3   OH269184   5.963   2.496   3.721 -0.2571  0.0046 -0.3313
15898TIP3    H169185   5.904   2.466   3.652  0.9145 -1.0819 -0.8593
15898TIP3    H269186   5.985   2.586   3.695 -2.8915  0.9961  0.6867
15899TIP3   OH269187   6.456   4.935   3.208 -0.6831  0.1007  0.2836
15899TIP3    H169188   6.387   4.923   3.143 -0.8724 -0.3197  0.5614
15899TIP3    H269189   6.536   4.905   3.164 -0.9646 -1.0852  0.5690
15900TIP3   OH269190   5.151   0.198  13.584  0.4121 -0.2784  0.5746
15900TIP3    H169191   5.202   0.121  13.557  1.3230  0.4334  0.2194
15900TIP3    H269192   5.176   0.213  13.675 -2.8273 -2.8108  1.9805
15901TIP3   OH269193   2.812   5.479   4.464  0.2541  0.0484 -0.3589
15901TIP3    H169194   2.813   5.437   4.551 -0.4804 -0.1851 -0.4582
15901TIP3    H269195   2.760   5.420   4.410 -0.7243  1.0624 -0.5260
15902TIP3   OH269196   3.396   6.406   1.588 -0.2844  0.5746 -0.5574
15902TIP3    H169197   3.370   6.337   1.648 -1.2353  1.4882  0.0998
15902TIP3    H269198   3.483   6.381   1.558 -0.4041 -0.6240  0.0877
15903TIP3   OH269199   4.239   5.611  13.725 -0.1621  0.2467 -0.1744
15903TIP3    H169200   4.284   5.636  13.806  0.1588  0.5687 -0.4507
15903TIP3    H269201   4.309   5.577  13.669 -0.2066  1.0761 -0.7334
15904TIP3   OH269202   5.420   4.829  15.813  0.1952 -0.9144  0.1043
15904TIP3    H169203   5.488   4.856  15.874  0.3231 -1.3120  0.1364
15904TIP3    H269204   5.346   4.805  15.868 -0.0504 -0.2576  0.0567
15905TIP3   OH269205   0.251   3.062   0.566 -0.3686 -0.0698  0.2699
15905TIP3    H169206   0.287   3.150   0.568 -0.1943 -0.1290 -0.2378
15905TIP3    H269207   0.323   3.005   0.592  0.4875 -0.3729 -2.5681
15906TIP3   OH269208   5.352   2.734  16.288 -0.0752 -0.0346  0.1598
15906TIP3    H169209   5.372   2.821  16.255  3.6349 -1.0619 -0.4625
15906TIP3    H269210   5.303   2.749  16.369 -0.2879  2.5762 -0.4357
15907TIP3   OH269211   5.906   4.876   5.976  0.4199  0.5592 -0.2304
15907TIP3    H169212   5.879   4.856   6.065 -0.8252  3.0995  0.0067
15907TIP3    H269213   5.946   4.795   5.944  0.4649 -0.5194  2.4504
15908TIP3   OH269214   5.153   1.675  15.405 -0.0332 -0.4132  0.4280
15908TIP3    H169215   5.077   1.730  15.387 -0.3175 -0.2728  1.9998
15908TIP3    H269216   5.203   1.675  15.323 -1.8689 -0.7648 -0.6991
15909TIP3   OH269217   2.138   0.205  13.568 -0.1094 -0.0547 -0.3408
15909TIP3    H169218   2.141   0.177  13.659 -0.9593  1.1128  0.0719
15909TIP3    H269219   2.195   0.282  13.564 -1.5695  1.0694 -0.3247
15910TIP3   OH269220   2.636   3.403  14.574 -0.5175  0.1305 -0.3418
15910TIP3    H169221   2.683   3.464  14.630  1.3267 -1.1564 -0.4436
15910TIP3    H269222   2.571   3.362  14.631 -0.5347  0.8468  0.1554
15911TIP3   OH269223   0.604   4.527   1.877 -0.1971  0.4044 -0.9092
15911TIP3    H169224   0.668   4.517   1.806  0.4146 -0.2131 -0.2755
15911TIP3    H269225   0.599   4.622   1.890  1.4440  0.4241 -0.2167
15912TIP3   OH269226   0.748   3.550   4.832 -0.8241  0.2217  0.2433
15912TIP3    H169227   0.745   3.641   4.800 -2.5314  0.0959 -0.0274
15912TIP3    H269228   0.808   3.506   4.772 -1.6418  0.6968 -0.9476
15913TIP3   OH269229   3.777   0.535  11.214  0.3503 -0.5475 -0.5873
15913TIP3    H169230   3.743   0.478  11.145  1.7886 -1.7204 -0.3524
15913TIP3    H269231   3.855   0.576  11.176  0.3161 -0.0881 -0.1701
15914TIP3   OH269232   0.434   5.693  12.748  0.1898  0.4192 -0.0959
15914TIP3    H169233   0.492   5.734  12.684 -0.8980  2.4199  0.1442
15914TIP3    H269234   0.396   5.618  12.702  0.5767  0.9381 -1.2786
15915TIP3   OH269235   1.609   6.653   0.818 -0.1849 -0.0406 -0.0032
15915TIP3    H169236   1.686   6.636   0.873 -0.9610  0.3812  1.2356
15915TIP3    H269237   1.644   6.697   0.741  0.6923  1.1863  1.0622
15916TIP3   OH269238   0.334   6.247  13.856 -0.2984 -0.2207  0.3557
15916TIP3    H169239   0.242   6.271  13.847 -0.2887  0.1706  1.2428
15916TIP3    H269240   0.380   6.306  13.795 -0.2765  2.0403  2.4673
15917TIP3   OH269241   6.815   2.410   5.429  0.2561  0.1864 -0.4245
15917TIP3    H169242   6.789   2.318   5.437 -1.8068  0.9289  1.5850
15917TIP3    H269243   6.878   2.423   5.500  0.1827  0.4575 -0.4104
15918TIP3   OH269244   3.496   0.662  14.400  0.0783 -0.1856 -0.1818
15918TIP3    H169245   3.444   0.587  14.371 -0.4171 -0.0699  0.3942
15918TIP3    H269246   3.587   0.631  14.396 -0.0612 -0.5395 -0.7448
15919TIP3   OH269247   5.975   6.536  12.643 -0.2800 -0.5119 -0.7291
15919TIP3    H169248   5.885   6.526  12.611 -0.8126 -0.0056  0.5911
15919TIP3    H269249   6.027   6.486  12.581 -1.4849 -0.9192 -1.4467
15920TIP3   OH269250   2.084   4.032   3.460  0.0102 -0.0113  0.1537
15920TIP3    H169251   2.029   4.048   3.383 -1.1635  0.2470  1.0130
15920TIP3    H269252   2.091   4.118   3.502  0.5510 -0.1704  0.3920
15921TIP3   OH269253   2.673   6.440  15.924  0.1384 -0.3065  0.3629
15921TIP3    H169254   2.761   6.406  15.906  0.6619  0.4838  1.3530
15921TIP3    H269255   2.625   6.427  15.842  0.8187 -1.8423  0.1806
15922TIP3   OH269256   1.831   5.687   1.847 -0.3845  0.0762 -0.0987
15922TIP3    H169257   1.760   5.625   1.854  0.2105 -0.5296  0.6070
15922TIP3    H269258   1.903   5.637   1.806 -1.0706  1.2719 -2.9059
15923TIP3   OH269259   5.069   0.996  15.162 -0.4685 -0.6180 -0.5018
15923TIP3    H169260   5.111   0.922  15.207 -0.1188  0.5162  1.0703
15923TIP3    H269261   5.139   1.060  15.149 -0.6514 -0.7476 -2.3418
15924TIP3   OH269262   2.401   4.573  14.691 -0.0545 -0.4076  0.1551
15924TIP3    H169263   2.466   4.556  14.623 -0.1949  3.0956 -0.9419
15924TIP3    H269264   2.448   4.625  14.756 -1.1449  0.2142  0.4554
15925TIP3   OH269265   4.631   2.462  11.105 -0.1920  0.2662  0.2721
15925TIP3    H169266   4.707   2.492  11.055  0.4931  1.9079  2.2129
15925TIP3    H269267   4.660   2.466  11.196 -2.1675 -0.3937  0.9433
15926TIP3   OH269268   3.196   3.045  16.730 -0.1511 -0.1041 -0.2642
15926TIP3    H169269   3.167   3.043  16.821 -2.0154  0.0058 -0.8149
15926TIP3    H269270   3.236   2.960  16.715 -0.6527 -0.4613  0.4177
15927TIP3   OH269271   4.017   1.851  11.096 -0.6684 -0.0105  0.0603
15927TIP3    H169272   3.945   1.913  11.105  0.4548  1.5484 -1.4411
15927TIP3    H269273   3.982   1.780  11.043 -1.3622  0.2759  0.1371
15928TIP3   OH269274   1.372   2.657   0.979 -0.2894  0.5900  0.3868
15928TIP3    H169275   1.383   2.751   0.987 -1.6065  0.6352  2.0125
15928TIP3    H269276   1.287   2.639   1.019  0.4279 -1.4028  1.0962
15929TIP3   OH269277   5.358   5.000  17.191 -0.2212 -0.2761 -0.3435
15929TIP3    H169278   5.295   4.967  17.256 -0.3254 -0.5555 -0.5880
15929TIP3    H269279   5.367   5.093  17.213 -0.0093 -0.4402  0.2797
15930TIP3   OH269280   3.624   0.904   1.647  0.0630 -0.1385 -0.6596
15930TIP3    H169281   3.672   0.959   1.584  0.4485 -1.7981 -1.8449
15930TIP3    H269282   3.557   0.861   1.595 -1.4078  0.5605  0.6119
15931TIP3   OH269283   1.631   3.540  15.954  0.4760  0.2565  0.2604
15931TIP3    H169284   1.665   3.494  16.030  2.9420 -0.1626 -1.0472
15931TIP3    H269285   1.539   3.559  15.976  0.3929 -2.2206  2.1903
15932TIP3   OH269286   6.347   6.215   5.005  0.0131  0.3448  0.6670
15932TIP3    H169287   6.298   6.209   5.087 -0.4398  0.9280  0.4416
15932TIP3    H269288   6.282   6.237   4.939  0.2090 -1.1992 -0.0558
15933TIP3   OH269289   2.024   5.873  13.513  0.6521  0.4222  0.6266
15933TIP3    H169290   2.061   5.962  13.514 -1.3084  1.2799  0.4872
15933TIP3    H269291   1.983   5.865  13.427  0.3321 -0.4043  0.8519
15934TIP3   OH269292   4.761   4.911   3.739 -0.0670 -0.6858  0.2734
15934TIP3    H169293   4.756   4.841   3.804  0.5154 -0.8623  0.1336
15934TIP3    H269294   4.790   4.868   3.659 -0.4579 -0.4124 -0.0136
15935TIP3   OH269295   0.594   4.831   4.382 -0.0535  0.3905  0.3107
15935TIP3    H169296   0.547   4.912   4.400 -0.0515 -0.1134  2.8701
15935TIP3    H269297   0.614   4.835   4.289 -1.2010  2.7057  0.1144
15936TIP3   OH269298   6.772   0.129  15.987  0.5765 -0.0584  0.0211
15936TIP3    H169299   6.720   0.210  15.986  1.1061  0.2748 -0.6471
15936TIP3    H269300   6.841   0.145  16.051  0.5294 -0.0851  0.0814
15937TIP3   OH269301   3.439   1.543   0.842 -0.6265 -0.1811 -0.0662
15937TIP3    H169302   3.405   1.632   0.834 -0.9922 -0.4250 -1.5009
15937TIP3    H269303   3.395   1.507   0.919 -1.6435  0.3853 -0.3697
15938TIP3   OH269304   4.533   3.558  14.566  0.4514  0.2630  0.1437
15938TIP3    H169305   4.473   3.632  14.553  0.1571  0.0337  0.1938
15938TIP3    H269306   4.619   3.592  14.541 -0.0055 -0.0017 -1.9248
15939TIP3   OH269307   1.584   0.120   0.917  0.0431 -0.0427 -0.6425
15939TIP3    H169308   1.662   0.160   0.957  1.3196 -2.9339 -0.1693
15939TIP3    H269309   1.571   0.170   0.836  1.3018  1.6222  0.1395
15940TIP3   OH269310   2.926   0.995  16.884 -0.0133 -0.1955  0.7924
15940TIP3    H169311   2.835   1.024  16.876 -0.3348 -1.2482  0.5966
15940TIP3    H269312   2.953   1.025  16.971  0.3885  2.6658 -0.2556
15941TIP3   OH269313   0.381   3.146  13.968 -0.2908 -0.0912  0.1977
15941TIP3    H169314   0.423   3.186  14.044 -0.4897  2.1580 -0.8286
15941TIP3    H269315   0.320   3.213  13.937  0.5917 -0.5342 -2.6190
15942TIP3   OH269316   3.892   5.207  17.073 -0.3031 -0.0303 -0.3947
15942TIP3    H169317   3.820   5.245  17.124 -1.8491 -1.2720 -1.5924
15942TIP3    H269318   3.894   5.115  17.101  0.7903 -0.0170 -0.4269
15943TIP3   OH269319   2.841   6.745  12.705  0.1814 -0.1603 -0.5156
15943TIP3    H169320   2.872   6.772  12.792  0.1010 -2.8859  0.4132
15943TIP3    H269321   2.747   6.767  12.706  0.5098  1.2812 -0.5275
15944TIP3   OH269322   0.256   4.810  13.209 -0.1292 -0.2318  0.9716
15944TIP3    H169323   0.297   4.732  13.247  0.0476 -0.6885 -0.1469
15944TIP3    H269324   0.326   4.853  13.161 -0.2552  0.5667  1.4978
15945TIP3   OH269325   0.491   4.917   2.887 -0.1171  0.5037  0.5032
15945TIP3    H169326   0.497   4.906   2.982  1.0443  1.3014  0.5407
15945TIP3    H269327   0.457   4.834   2.855 -1.2429  0.4877  1.6849
15946TIP3   OH269328   2.885   2.487   3.269 -0.2476  0.1635  0.0281
15946TIP3    H169329   2.871   2.562   3.327  0.5927  0.0002  0.4414
15946TIP3    H269330   2.926   2.420   3.325 -1.4367 -0.7855 -0.2099
15947TIP3   OH269331   3.095   4.954  14.531 -0.3392  0.7210 -0.2715
15947TIP3    H169332   3.136   4.874  14.565  0.2031  0.7622 -0.8209
15947TIP3    H269333   3.067   4.930  14.442 -0.4840  1.0371 -0.3116
15948TIP3   OH269334   4.773   4.244   5.716  0.7635  0.4004  0.3873
15948TIP3    H169335   4.725   4.184   5.773 -2.0773  1.0866 -1.1788
15948TIP3    H269336   4.793   4.319   5.772 -0.6700  0.4261  0.8927
15949TIP3   OH269337   2.099   5.299   1.871 -0.2103  0.5156 -0.4314
15949TIP3    H169338   2.004   5.304   1.854 -0.6156 -3.3392  0.3618
15949TIP3    H269339   2.139   5.320   1.786 -1.7493  1.6697 -0.9104
15950TIP3   OH269340   5.615   5.499   1.424 -0.0100 -1.1324 -0.1801
15950TIP3    H169341   5.570   5.419   1.453  2.9358 -2.0183  2.2064
15950TIP3    H269342   5.653   5.535   1.504  1.3012  1.0181 -1.7211
15951TIP3   OH269343   4.757   0.746  16.481  0.0252  0.0903 -0.1131
15951TIP3    H169344   4.678   0.791  16.511  1.0990  0.7634  1.7730
15951TIP3    H269345   4.824   0.769  16.545  1.7972 -0.3935 -1.7438
15952TIP3   OH269346   6.201   1.268   2.198 -0.3205  0.3343  0.3929
15952TIP3    H169347   6.115   1.257   2.238  0.1535  0.9797  1.6187
15952TIP3    H269348   6.184   1.273   2.104 -1.6411  0.7209  0.6503
15953TIP3   OH269349   5.303   5.899   4.383 -0.1576 -0.2752 -0.2135
15953TIP3    H169350   5.304   5.875   4.290 -1.5228  0.1735 -0.3558
15953TIP3    H269351   5.230   5.961   4.391  0.1217 -0.1050  1.1074
15954TIP3   OH269352   6.142   3.666  12.112  0.7928  0.1242  0.4277
15954TIP3    H169353   6.214   3.718  12.149  1.8326 -1.9169  1.3792
15954TIP3    H269354   6.063   3.707  12.145  1.6431  0.0682  2.6719
15955TIP3   OH269355   1.122   2.217  10.955  0.2542 -0.3494 -0.1153
15955TIP3    H169356   1.042   2.251  10.996  0.1437 -0.9178  0.1447
15955TIP3    H269357   1.097   2.132  10.919  1.3619 -1.6847  2.1578
15956TIP3   OH269358   6.233   5.199   4.146 -0.1510  0.4179 -0.2773
15956TIP3    H169359   6.310   5.209   4.090 -0.6164  0.2238 -0.9604
15956TIP3    H269360   6.237   5.274   4.205  0.4131  0.5587 -0.4854
15957TIP3   OH269361   6.026   2.780  13.508  0.1212  0.0281 -0.2915
15957TIP3    H169362   5.979   2.863  13.515  0.4928  0.4490 -2.4540
15957TIP3    H269363   5.967   2.722  13.460  0.3103 -0.6186  0.2438
15958TIP3   OH269364   0.741   2.980  13.188 -0.1090 -0.1811 -0.1100
15958TIP3    H169365   0.696   2.896  13.173 -0.9057  0.1967  0.1067
15958TIP3    H269366   0.708   3.037  13.119 -0.0661  0.1376  0.1327
15959TIP3   OH269367   4.076   5.115  12.161 -0.1349  0.8729 -0.5803
15959TIP3    H169368   4.005   5.084  12.106 -1.1324 -0.2670  1.3113
15959TIP3    H269369   4.152   5.065  12.133 -0.5794  0.4622 -1.0529
15960TIP3   OH269370   0.226   2.760  13.972 -0.3415 -0.3870 -0.3055
15960TIP3    H169371   0.203   2.781  14.062  0.7336  0.3876 -0.2050
15960TIP3    H269372   0.313   2.722  13.977  0.3893  1.1183 -1.1752
15961TIP3   OH269373   5.717   5.656  11.079  0.6812  0.1234  0.2546
15961TIP3    H169374   5.784   5.688  11.019  0.1870  1.9319  0.6396
15961TIP3    H269375   5.729   5.707  11.158 -1.3594  0.7007  0.2170
15962TIP3   OH269376   3.074   1.878   0.841  0.8239  0.2075  0.6016
15962TIP3    H169377   3.053   1.971   0.850 -1.1340  0.0667 -2.0132
15962TIP3    H269378   3.040   1.838   0.921  1.1079  1.6445  1.4570
15963TIP3   OH269379   5.023   4.958   1.375 -0.4888  0.1418  0.1644
15963TIP3    H169380   5.041   5.048   1.347  0.5669 -0.8402 -2.4610
15963TIP3    H269381   4.961   4.924   1.311 -0.6978 -1.0928  0.9906
15964TIP3   OH269382   4.910   5.499  12.254 -0.4583  0.0905  0.5887
15964TIP3    H169383   4.996   5.503  12.295  0.6270 -2.6118 -1.3021
15964TIP3    H269384   4.857   5.448  12.315  0.1250 -0.7701  0.3893
15965TIP3   OH269385   3.131   4.308  11.305  0.2614 -0.4429  0.4384
15965TIP3    H169386   3.067   4.367  11.346  2.4685  1.5927  1.0268
15965TIP3    H269387   3.155   4.351  11.223 -0.4371 -2.1064 -0.6782
15966TIP3   OH269388   3.640   5.566   5.628 -0.0788  0.1066  0.2295
15966TIP3    H169389   3.566   5.604   5.675 -0.6443  1.8411 -1.9140
15966TIP3    H269390   3.674   5.639   5.575  0.6060 -1.6635 -1.8726
15967TIP3   OH269391   3.051   5.650   1.396 -0.0898 -0.3642  0.6120
15967TIP3    H169392   3.071   5.559   1.376  1.2247  0.2962 -1.1598
15967TIP3    H269393   3.134   5.687   1.427 -0.5338  0.3257  0.9918
15968TIP3   OH269394   2.285   0.531  13.212  0.2195 -0.5665  0.0773
15968TIP3    H169395   2.331   0.453  13.180  3.0185  1.8021 -2.0164
15968TIP3    H269396   2.237   0.563  13.136  2.8830  2.3126 -0.4869
15969TIP3   OH269397   4.489   2.402  13.008 -0.4421 -0.0757  0.0695
15969TIP3    H169398   4.448   2.455  13.076 -2.7213 -1.1646 -0.3886
15969TIP3    H269399   4.447   2.431  12.926  2.5951  1.5528 -0.9666
15970TIP3   OH269400   5.439   2.180  16.353  0.0302  0.2676  0.3085
15970TIP3    H169401   5.357   2.195  16.307 -0.3514  0.5411  1.0649
15970TIP3    H269402   5.415   2.125  16.428  0.5239  0.3992  0.5681
15971TIP3   OH269403   6.565   3.804  15.430  0.1666  0.5344  0.0341
15971TIP3    H169404   6.500   3.738  15.457  0.8321  0.2333  0.9397
15971TIP3    H269405   6.513   3.883  15.414 -0.3746  0.4840  1.3957
15972TIP3   OH269406   4.565   5.151   0.621  0.0616 -0.1390  0.1627
15972TIP3    H169407   4.576   5.224   0.560 -2.1489  0.9103  0.9785
15972TIP3    H269408   4.471   5.132   0.621  0.3399 -1.7008  1.4445
15973TIP3   OH269409   0.139   4.629   1.899  0.1106  0.1124  0.2019
15973TIP3    H169410   0.152   4.567   1.971 -2.0189 -0.9969 -0.3270
15973TIP3    H269411   0.070   4.687   1.930 -1.3179 -0.8129 -1.2161
15974TIP3   OH269412   3.280   5.056   5.310 -0.1797  0.3196  0.1812
15974TIP3    H169413   3.215   5.072   5.378  0.0113 -0.3821  0.5311
15974TIP3    H269414   3.234   5.076   5.228 -0.1334  2.0436  0.5575
15975TIP3   OH269415   4.647   6.414  10.406  0.0643 -0.0684 -0.0458
15975TIP3    H169416   4.644   6.358  10.329 -0.9023 -0.4649  0.2722
15975TIP3    H269417   4.569   6.390  10.456 -0.6496  1.9211 -0.1713
15976TIP3   OH269418   0.860   3.562  14.939  0.0855 -0.2422 -0.3710
15976TIP3    H169419   0.788   3.566  14.876 -0.6763 -0.5485  0.4870
15976TIP3    H269420   0.937   3.545  14.885 -0.5545 -0.4646 -1.2303
15977TIP3   OH269421   3.827   4.728   4.171 -0.0288  0.5332  0.0246
15977TIP3    H169422   3.886   4.774   4.110 -0.6559 -0.0749 -1.0531
15977TIP3    H269423   3.757   4.695   4.116 -0.6843  0.0856  1.1149
15978TIP3   OH269424   1.589   1.785   3.482  0.2639  0.5045  0.1919
15978TIP3    H169425   1.508   1.781   3.431 -1.3071  2.3557  2.4088
15978TIP3    H269426   1.596   1.877   3.509  1.7788 -0.1349  2.1256
15979TIP3   OH269427   1.673   0.013  14.606  0.3689 -0.0780  0.5440
15979TIP3    H169428   1.705   0.047  14.522  0.1516 -0.1852  0.4171
15979TIP3    H269429   1.679  -0.082  14.596  1.9510 -0.0806  1.2689
15980TIP3   OH269430   2.081   4.504   5.138 -0.1986 -0.1429 -0.0785
15980TIP3    H169431   2.087   4.528   5.230 -1.1706 -1.3786  0.3171
15980TIP3    H269432   2.118   4.416   5.133  1.7315  0.7043 -1.2178
15981TIP3   OH269433   1.003   5.030  15.358 -0.1400  0.2902  0.0447
15981TIP3    H169434   0.960   5.101  15.406  0.3041 -0.0726  0.9899
15981TIP3    H269435   0.935   4.992  15.304 -0.8027  0.2581  0.9038
15982TIP3   OH269436   4.902   4.051   6.640 -0.2645  0.7945  0.4594
15982TIP3    H169437   4.820   4.033   6.594  0.8804 -1.7400 -0.7241
15982TIP3    H269438   4.966   4.063   6.570  0.2593  3.5623  1.3539
15983TIP3   OH269439   6.071   4.051  11.356  0.0574 -0.0930 -0.2544
15983TIP3    H169440   6.052   4.127  11.412 -2.2263 -1.6718  1.2165
15983TIP3    H269441   6.084   3.979  11.417  1.5020 -1.0663 -1.6609
15984TIP3   OH269442   1.037   3.216   2.846 -0.1094 -0.3851  0.1204
15984TIP3    H169443   1.100   3.287   2.837 -0.1760 -0.3460 -0.0305
15984TIP3    H269444   0.952   3.260   2.859  0.0476 -0.4364  1.3846
15985TIP3   OH269445   0.602   6.292  15.280  0.0046 -0.2010 -0.1233
15985TIP3    H169446   0.664   6.341  15.227  0.4368 -0.2519  0.3288
15985TIP3    H269447   0.536   6.356  15.305  0.4955  0.1260  0.3544
15986TIP3   OH269448   3.917   4.754  15.969  0.6131 -0.1528  0.1368
15986TIP3    H169449   3.904   4.849  15.962 -0.3779 -0.1960  1.2544
15986TIP3    H269450   3.892   4.720  15.883  2.5334  0.7500 -0.8071
15987TIP3   OH269451   1.523   5.919  15.875  0.1929 -0.0403 -0.2335
15987TIP3    H169452   1.609   5.896  15.909  0.0797 -0.0880  0.0225
15987TIP3    H269453   1.468   5.843  15.896  0.8714 -1.4620 -3.3552
15988TIP3   OH269454   0.560   2.309  12.515 -0.6063 -0.3160  0.1657
15988TIP3    H169455   0.536   2.252  12.588  1.0417 -2.2194 -0.7103
15988TIP3    H269456   0.611   2.379  12.555  0.7073 -1.6118  0.8159
15989TIP3   OH269457   6.712   4.539   4.361  0.1329 -0.6196 -0.0176
15989TIP3    H169458   6.677   4.628   4.351 -1.0469 -0.9810  0.7720
15989TIP3    H269459   6.803   4.546   4.332  0.6824  1.3077  2.0233
15990TIP3   OH269460   1.132   3.205   1.099 -0.0566  0.6159  0.5050
15990TIP3    H169461   1.066   3.158   1.150  0.8580 -1.5638 -0.2749
15990TIP3    H269462   1.150   3.283   1.151 -0.7695 -0.4506  2.4362
15991TIP3   OH269463   1.505   1.170   3.841  0.0616 -0.2441 -0.8228
15991TIP3    H169464   1.482   1.257   3.875 -3.2498 -0.7120 -1.6605
15991TIP3    H269465   1.528   1.187   3.749 -0.1399 -0.1973 -0.8649
15992TIP3   OH269466   2.470   1.089   2.483 -0.4840  0.2180  0.3249
15992TIP3    H169467   2.478   1.167   2.429 -1.3545 -0.7600 -1.2580
15992TIP3    H269468   2.453   1.018   2.421 -0.9467 -1.0245  1.8301
15993TIP3   OH269469   1.368   0.633  14.584  0.2807 -0.3678 -0.5878
15993TIP3    H169470   1.338   0.645  14.674  0.5327  0.4536 -0.6103
15993TIP3    H269471   1.419   0.552  14.587 -1.9431 -1.7836 -0.5626
15994TIP3   OH269472   4.473   5.015  13.234 -0.0140  0.0187 -0.1074
15994TIP3    H169473   4.477   5.065  13.316  0.9863 -0.4693  0.1516
15994TIP3    H269474   4.553   5.040  13.187  1.4595 -2.6832  0.8385
15995TIP3   OH269475   3.211   5.072   1.675 -0.2408 -0.5564  0.1405
15995TIP3    H169476   3.222   5.140   1.742  0.2862 -0.3704 -0.1282
15995TIP3    H269477   3.179   4.996   1.723  1.3857 -0.8326  0.8308
15996TIP3   OH269478   0.324   3.421  12.290 -0.0557  0.0547  0.3758
15996TIP3    H169479   0.276   3.494  12.328  1.7176  0.5255  1.7419
15996TIP3    H269480   0.275   3.344  12.317 -0.6835  0.5895  0.7882
15997TIP3   OH269481   2.315   0.271   5.580 -0.6508  0.5496  0.2372
15997TIP3    H169482   2.389   0.221   5.616 -1.6954 -2.6692 -1.8330
15997TIP3    H269483   2.295   0.336   5.648  1.7445 -0.8710  2.4318
15998TIP3   OH269484   0.294   4.975  15.578 -0.4324  0.9484  0.1257
15998TIP3    H169485   0.199   4.977  15.586 -0.4587  0.2863  0.0543
15998TIP3    H269486   0.316   4.882  15.580  0.1648  1.0684 -0.4410
15999TIP3   OH269487   1.095   6.016  13.797  0.3846  0.6299  0.2730
15999TIP3    H169488   1.000   6.004  13.788  0.2590  1.0661  0.9681
15999TIP3    H269489   1.113   5.992  13.888  0.4566  3.4355  1.0695
16000TIP3   OH269490   0.615   0.123   4.871 -0.5932  0.3013 -0.1185
16000TIP3    H169491   0.548   0.075   4.821  0.1064 -0.8978  0.0662
16000TIP3    H269492   0.572   0.205   4.896 -2.1521 -0.6530  0.4222
16001TIP3   OH269493   6.167   5.846   2.167 -0.2380 -0.4638  0.7592
16001TIP3    H169494   6.105   5.779   2.141  0.8487 -1.6250  1.0908
16001TIP3    H269495   6.246   5.797   2.191  0.7469  0.9709  0.4816
16002TIP3   OH269496   3.414   0.159  14.250  0.0319 -0.0587 -0.4706
16002TIP3    H169497   3.478   0.220  14.285  1.9132 -2.2954  0.0657
16002TIP3    H269498   3.366   0.127  14.327  1.5716 -2.0471 -0.3024
16003TIP3   OH269499   4.854   4.214  11.374  0.7282  0.2119 -0.6568
16003TIP3    H169500   4.944   4.181  11.363  0.9990  1.0404 -0.9531
16003TIP3    H269501   4.857   4.265  11.455  0.6557  0.7042 -0.9676
16004TIP3   OH269502   5.736   0.655   3.717 -0.2591  0.1800  0.4593
16004TIP3    H169503   5.801   0.713   3.679  1.0296 -0.6233  1.3812
16004TIP3    H269504   5.708   0.599   3.644 -1.3812  1.8218 -0.3809
16005TIP3   OH269505   3.160   4.615   5.312  0.5159  0.2087  0.0660
16005TIP3    H169506   3.240   4.585   5.354  0.2213  0.3660  0.7499
16005TIP3    H269507   3.182   4.623   5.219  1.1283 -0.2810  0.1736
16006TIP3   OH269508   4.058   6.319   0.672 -0.1920 -0.5535 -0.3006
16006TIP3    H169509   4.019   6.406   0.658 -1.2850 -1.0187 -0.1977
16006TIP3    H269510   4.152   6.334   0.668 -0.3743  0.6482 -0.2576
16007TIP3   OH269511   3.275   4.626  10.837  0.1090 -0.3726  0.2785
16007TIP3    H169512   3.257   4.693  10.772 -1.9317  0.3161  1.4868
16007TIP3    H269513   3.200   4.566  10.831 -0.1523 -0.2572  1.9990
16008TIP3   OH269514   5.928   4.813  14.656  0.1101  0.0441 -0.3451
16008TIP3    H169515   5.861   4.746  14.672 -0.3265  0.1425 -1.6735
16008TIP3    H269516   5.915   4.838  14.564  2.0260  0.0131 -0.6405
16009TIP3   OH269517   3.118   5.465  15.915  0.1597 -0.1067  0.2340
16009TIP3    H169518   3.172   5.469  15.836  1.5069  0.1198  1.1392
16009TIP3    H269519   3.164   5.521  15.978 -1.5584  0.6993  0.7899
16010TIP3   OH269520   4.076   3.514  11.773  0.1886 -0.1212 -0.2200
16010TIP3    H169521   4.060   3.460  11.850  0.6398  1.0509  0.7081
16010TIP3    H269522   4.172   3.518  11.765  0.1499 -0.0753 -0.7358
16011TIP3   OH269523   0.118   1.887  15.880 -0.3793 -0.4994  0.1547
16011TIP3    H169524   0.049   1.823  15.898  1.3501 -2.4144  0.1067
16011TIP3    H269525   0.198   1.845  15.911  0.8636  1.4245 -0.3941
16012TIP3   OH269526   5.810   4.880  13.869 -0.1942 -0.3799 -0.0783
16012TIP3    H169527   5.820   4.964  13.825  0.2037 -0.7607 -0.7207
16012TIP3    H269528   5.718   4.857  13.858 -0.1378 -0.3823 -0.5432
16013TIP3   OH269529   3.798   5.044   5.788  0.2503  0.0211  0.2099
16013TIP3    H169530   3.798   4.988   5.711 -0.0275  2.4402 -1.6299
16013TIP3    H269531   3.705   5.062   5.805  0.3562  0.3529  0.4512
16014TIP3   OH269532   4.719   2.342  16.809  0.5511 -0.0597  0.6076
16014TIP3    H169533   4.799   2.369  16.763 -0.0511  2.1147  0.8016
16014TIP3    H269534   4.708   2.250  16.784  2.1196  0.1079 -0.8597
16015TIP3   OH269535   5.556   5.036  11.662  0.1595  0.4876  0.2181
16015TIP3    H169536   5.614   5.045  11.737 -0.6527 -2.0652  1.2150
16015TIP3    H269537   5.470   5.019  11.700 -0.3951 -0.1867 -1.2755
16016TIP3   OH269538   6.758   1.331   5.861 -0.3704 -0.4696 -0.2318
16016TIP3    H169539   6.832   1.271   5.870  0.2294  0.3012  0.1110
16016TIP3    H269540   6.711   1.324   5.945 -0.1188 -0.2325 -0.0684
16017TIP3   OH269541   4.196   3.797  11.033 -0.2688 -0.4033 -0.2680
16017TIP3    H169542   4.152   3.853  11.096  0.8082  0.3723 -0.1883
16017TIP3    H269543   4.152   3.814  10.950 -0.3135  0.1393 -0.1362
16018TIP3   OH269544   0.062   6.094   1.075 -0.0219 -0.5125 -0.7375
16018TIP3    H169545   0.098   6.095   1.163  1.4042 -0.3823 -1.3066
16018TIP3    H269546   0.013   6.012   1.070 -1.6676  0.3427  0.7592
16019TIP3   OH269547   5.244   5.277   1.605  0.5552 -0.0033  0.2465
16019TIP3    H169548   5.336   5.256   1.621  0.7481  1.4082  1.1153
16019TIP3    H269549   5.197   5.242   1.681  0.4918  0.0185  0.2179
16020TIP3   OH269550   5.270   4.993  15.605 -0.0066  0.0171  0.0270
16020TIP3    H169551   5.299   4.945  15.683 -0.6584  1.7668  1.3742
16020TIP3    H269552   5.230   4.926  15.550 -1.5210 -0.9286  2.1897
16021TIP3   OH269553   2.310   1.942   4.755  0.4404  0.0703  0.1935
16021TIP3    H169554   2.392   1.920   4.799 -0.2883 -0.7351  1.1985
16021TIP3    H269555   2.295   1.869   4.695 -0.0832 -0.3427  0.8122
16022TIP3   OH269556   5.442   3.089   3.385  0.3649 -0.8458  0.1142
16022TIP3    H169557   5.465   3.131   3.468  0.9283  0.7465 -0.8113
16022TIP3    H269558   5.512   3.116   3.325 -1.5122  0.3795 -1.6157
16023TIP3   OH269559   0.284   5.732  15.830  0.1877 -0.8068 -0.2698
16023TIP3    H169560   0.302   5.643  15.800 -0.5846 -1.5274  1.3767
16023TIP3    H269561   0.190   5.734  15.847 -0.1710  0.9303 -2.1733
16024TIP3   OH269562   5.059   0.619  13.679  0.8297 -0.2346  0.1433
16024TIP3    H169563   4.992   0.613  13.611 -0.0210  0.2717  0.9351
16024TIP3    H269564   5.055   0.535  13.725 -2.5016  1.4479  3.1825
16025TIP3   OH269565   5.056   1.639  13.144  0.2445 -0.2877  0.1729
16025TIP3    H169566   5.004   1.665  13.069  0.3503 -1.9109 -0.4910
16025TIP3    H269567   5.002   1.661  13.220 -0.5847 -0.1908 -0.4436
16026TIP3   OH269568   2.686   3.460   5.906  0.2038  0.5332 -0.1872
16026TIP3    H169569   2.608   3.487   5.955  0.5508  1.1604  0.0242
16026TIP3    H269570   2.666   3.484   5.815  0.7169  2.0153  0.0704
16027TIP3   OH269571   6.738   3.381  13.324 -0.5451 -0.2480 -0.5250
16027TIP3    H169572   6.661   3.357  13.271 -0.8195 -2.8849  1.0136
16027TIP3    H269573   6.714   3.465  13.363 -2.5493 -0.9184 -0.2694
16028TIP3   OH269574   5.066   4.526   0.845 -0.1601 -0.2637  0.5228
16028TIP3    H169575   4.998   4.555   0.906 -2.0198 -1.7486 -0.7733
16028TIP3    H269576   5.066   4.430   0.854  1.2075 -0.3258 -0.0651
16029TIP3   OH269577   2.115   5.529  11.072 -0.2534 -0.0516  1.0060
16029TIP3    H169578   2.112   5.507  11.166 -2.9902  0.0381  0.9794
16029TIP3    H269579   2.024   5.547  11.049  0.6374  1.8790 -1.2361
16030TIP3   OH269580   5.100   6.597  10.580  0.0760  0.2187  0.4605
16030TIP3    H169581   5.078   6.541  10.506 -0.4457 -0.1635  0.9015
16030TIP3    H269582   5.106   6.685  10.543 -1.8433  0.2917  0.2505
16031TIP3   OH269583   1.317   5.546   0.535  0.1841 -0.3648  0.4272
16031TIP3    H169584   1.288   5.548   0.444 -1.5869  0.6645  0.9826
16031TIP3    H269585   1.267   5.475   0.575 -1.1846  1.0118  1.2430
16032TIP3   OH269586   5.987   4.576  17.027  0.3085  0.9445 -0.1036
16032TIP3    H169587   6.004   4.657  17.075 -0.0190  1.0353 -0.1407
16032TIP3    H269588   6.051   4.514  17.062  0.7529  1.3035 -0.2819
16033TIP3   OH269589   2.506   1.998  11.689 -0.5687 -0.0163 -0.1367
16033TIP3    H169590   2.450   1.925  11.663 -0.3461 -0.3193  0.2241
16033TIP3    H269591   2.447   2.062  11.729 -0.4345 -1.1221  1.9246
16034TIP3   OH269592   4.714   4.012   4.269  0.2839 -0.0111 -0.5141
16034TIP3    H169593   4.627   4.035   4.237  0.0411  0.1338  0.2511
16034TIP3    H269594   4.738   3.934   4.219 -0.5240 -0.3948 -0.3110
16035TIP3   OH269595   2.383   0.053   4.005  0.3438  0.0284 -0.1359
16035TIP3    H169596   2.368   0.115   4.076 -0.7768 -1.7923  1.2703
16035TIP3    H269597   2.325   0.082   3.935 -0.5285  0.2825  0.6875
16036TIP3   OH269598   3.709   2.707  12.063  0.3378  0.1046 -0.0053
16036TIP3    H169599   3.798   2.680  12.087 -0.0357 -0.8221  0.3815
16036TIP3    H269600   3.696   2.790  12.108  0.5097 -0.4401  1.0860
16037TIP3   OH269601   6.060   2.335  12.221  0.2483  1.0100  0.1097
16037TIP3    H169602   6.135   2.278  12.239 -0.6962 -0.5138 -0.6941
16037TIP3    H269603   6.099   2.418  12.194  1.6792 -0.4534 -2.5071
16038TIP3   OH269604   3.901   3.291   4.880  0.1371 -0.9097  0.2185
16038TIP3    H169605   3.818   3.244   4.871  0.2526 -1.0272 -0.3026
16038TIP3    H269606   3.880   3.370   4.928 -0.8495  0.5336 -2.5143
16039TIP3   OH269607   1.488   5.915  13.163  1.0988 -0.3258 -0.1531
16039TIP3    H169608   1.445   5.830  13.165  0.4942 -0.0237 -0.3612
16039TIP3    H269609   1.563   5.902  13.104  0.8477 -0.6392 -0.4058
16040TIP3   OH269610   2.983   3.100   4.910  0.0282 -0.3912  0.5643
16040TIP3    H169611   3.055   3.153   4.874  2.1361 -2.8056  1.0901
16040TIP3    H269612   2.923   3.088   4.836  1.1080  0.0723 -0.4009
16041TIP3   OH269613   3.253   2.095   5.115 -0.0853 -0.6772 -0.2383
16041TIP3    H169614   3.272   2.135   5.030 -1.8858  0.1370 -0.2912
16041TIP3    H269615   3.200   2.018   5.094  2.2713 -2.3972 -0.0475
16042TIP3   OH269616   5.558   5.590   3.099  0.4167  0.2215  0.3900
16042TIP3    H169617   5.650   5.574   3.080  0.0571 -1.0496 -0.3855
16042TIP3    H269618   5.526   5.507   3.136 -0.3747  0.7013  0.8126
16043TIP3   OH269619   2.977   4.803  17.218  0.3446  0.1573 -0.1727
16043TIP3    H169620   2.885   4.825  17.230  0.6709  1.7556 -0.5207
16043TIP3    H269621   3.007   4.776  17.305  0.2183  2.2053  0.5182
16044TIP3   OH269622   4.122   0.118   5.761  0.3121  0.1244 -0.4840
16044TIP3    H169623   4.111   0.207   5.726  0.3266 -0.1083 -1.0904
16044TIP3    H269624   4.088   0.123   5.850 -1.5080  0.2583 -1.1753
16045TIP3   OH269625   5.784   3.881   3.180 -0.0377 -0.4440 -0.3416
16045TIP3    H169626   5.854   3.819   3.158  0.1806  0.7364 -3.2063
16045TIP3    H269627   5.830   3.958   3.213 -0.1088 -0.3764 -0.4018
16046TIP3   OH269628   1.764   2.925  16.658  0.3664  0.4745  0.2365
16046TIP3    H169629   1.735   2.970  16.579 -1.0564  1.4661  1.2920
16046TIP3    H269630   1.849   2.965  16.678  0.8229  0.0735 -0.8967
16047TIP3   OH269631   3.524   5.487   4.060  0.1126 -0.7225 -0.1454
16047TIP3    H169632   3.566   5.515   3.979  0.0046  1.4115  0.4914
16047TIP3    H269633   3.430   5.494   4.042  0.0331  3.7105  1.3535
16048TIP3   OH269634   3.937   2.897   0.658  0.4932 -0.0578 -0.3265
16048TIP3    H169635   3.999   2.942   0.716 -1.0481  1.2213  0.3436
16048TIP3    H269636   3.990   2.829   0.616  2.0845  0.2323  1.1368
16049TIP3   OH269637   0.094   6.717   4.223 -0.1291 -0.0156 -0.3100
16049TIP3    H169638   0.052   6.697   4.307  0.7228  1.9819  0.6350
16049TIP3    H269639   0.182   6.680   4.232 -0.2387 -0.3444 -0.5768
16050TIP3   OH269640   5.768   2.832  11.945  0.3087  0.5185 -0.6315
16050TIP3    H169641   5.771   2.905  11.884 -0.8511  0.8446 -0.3039
16050TIP3    H269642   5.679   2.832  11.980  1.2284  0.9583  1.8330
16051TIP3   OH269643   6.589   1.075   3.805 -0.0106  0.7268 -0.0227
16051TIP3    H169644   6.494   1.085   3.800  0.0399  1.8071  0.9370
16051TIP3    H269645   6.619   1.093   3.716 -0.7373 -0.0215 -0.4230
16052TIP3   OH269646   1.252   4.599  14.707 -0.0515 -0.1686  0.5165
16052TIP3    H169647   1.282   4.640  14.626  0.1559 -1.3099  0.0051
16052TIP3    H269648   1.321   4.536  14.729 -0.7132 -0.7776  0.8768
16053TIP3   OH269649   1.095   1.213   4.512 -0.3543 -0.2671 -0.4714
16053TIP3    H169650   1.184   1.243   4.534 -0.4064 -1.2997  1.2952
16053TIP3    H269651   1.081   1.243   4.423  0.8710  1.9730  0.0465
16054TIP3   OH269652   2.143   0.531  17.120  0.4374  0.4218  0.7583
16054TIP3    H169653   2.063   0.514  17.169  0.5868  0.2838  0.9581
16054TIP3    H269654   2.165   0.447  17.080  1.4406  0.0051  2.1302
16055TIP3   OH269655   0.936   0.480   3.160 -0.1719  0.2046  0.5525
16055TIP3    H169656   0.971   0.399   3.124 -1.3209 -0.6602  1.3465
16055TIP3    H269657   0.982   0.550   3.113 -0.0873 -0.9020 -1.0396
16056TIP3   OH269658   5.520   2.409  11.885 -0.0448 -0.2628 -0.5567
16056TIP3    H169659   5.613   2.427  11.871  0.0251 -0.9311 -1.0080
16056TIP3    H269660   5.475   2.472  11.829  0.0532  1.7216  1.5080
16057TIP3   OH269661   3.629   3.326  13.973 -0.2485 -0.2924  0.5690
16057TIP3    H169662   3.557   3.387  13.992 -0.8070 -0.4998 -0.8401
16057TIP3    H269663   3.646   3.338  13.880  0.1553 -1.7537  0.4481
16058TIP3   OH269664   4.552   1.910   0.516  0.3390  0.2840  0.2460
16058TIP3    H169665   4.468   1.868   0.538  0.2586  0.2585 -0.1061
16058TIP3    H269666   4.573   1.963   0.592 -0.6542  1.3311 -0.1953
16059TIP3   OH269667   0.773   6.138  14.006  0.1127 -0.0471  0.0318
16059TIP3    H169668   0.730   6.053  14.003  2.0456 -1.0916  1.3815
16059TIP3    H269669   0.837   6.131  14.076  1.3262  2.0345 -0.8113
16060TIP3   OH269670   5.465   5.138   2.485 -0.1470 -0.0997 -0.1211
16060TIP3    H169671   5.559   5.158   2.488  0.2619 -2.1090  1.4497
16060TIP3    H269672   5.424   5.210   2.533  0.6443  0.4184 -0.2065
16061TIP3   OH269673   6.332   0.019   0.606  0.0819 -0.4589  0.0117
16061TIP3    H169674   6.404   0.018   0.542  1.0507  1.2570  1.0396
16061TIP3    H269675   6.336  -0.067   0.647  2.0184 -0.1667  0.5253
16062TIP3   OH269676   2.378   1.251   6.189 -0.4758  0.2408 -0.4716
16062TIP3    H169677   2.390   1.330   6.136  2.1191 -0.3722 -0.8800
16062TIP3    H269678   2.444   1.259   6.259 -2.1496 -0.1887  1.2084
16063TIP3   OH269679   1.539   1.595  14.338 -0.2798 -1.2016 -0.2087
16063TIP3    H169680   1.563   1.555  14.422  0.1174  0.9970  0.7709
16063TIP3    H269681   1.616   1.585  14.283  0.3753 -0.4310  0.5510
16064TIP3   OH269682   2.869   1.742  14.132  0.1337 -0.0002 -0.0141
16064TIP3    H169683   2.964   1.741  14.134  0.1107 -1.4633  0.5260
16064TIP3    H269684   2.844   1.772  14.220  0.0874  0.3088 -0.1306
16065TIP3   OH269685   4.311   0.839  10.803 -0.1363 -0.4948  0.3821
16065TIP3    H169686   4.343   0.929  10.795  0.5258 -0.7307  0.4100
16065TIP3    H269687   4.246   0.831  10.732  0.0720 -0.1150  0.1454
16066TIP3   OH269688   3.138   0.197  13.872  0.3077 -0.3467 -0.0326
16066TIP3    H169689   3.099   0.247  13.944  1.2725 -1.0380  0.9892
16066TIP3    H269690   3.197   0.135  13.916  0.2406 -1.3591 -1.3741
16067TIP3   OH269691   3.929   5.492  11.918 -0.2334 -0.1071 -0.0549
16067TIP3    H169692   4.008   5.532  11.883 -0.0025  2.4117  3.0979
16067TIP3    H269693   3.959   5.412  11.961  0.3004 -0.2719 -0.7424
16068TIP3   OH269694   6.709   6.415  14.601 -0.1784  0.3532  0.0887
16068TIP3    H169695   6.800   6.385  14.600 -0.1687  0.3045  1.5703
16068TIP3    H269696   6.716   6.510  14.594 -0.0120  0.3412  0.0689
16069TIP3   OH269697   3.338   3.401  15.399 -0.3171 -0.1915  0.2484
16069TIP3    H169698   3.376   3.363  15.320 -0.1787  2.3586 -0.9453
16069TIP3    H269699   3.313   3.325  15.452  3.8506 -1.9675 -0.1380
16070TIP3   OH269700   6.004   6.453  11.894  0.1587 -0.9206 -0.3077
16070TIP3    H169701   5.994   6.512  11.968 -0.1282 -0.2504 -0.8822
16070TIP3    H269702   5.923   6.461  11.844  1.5935  1.0677 -2.4371
16071TIP3   OH269703   0.123   2.224   1.587  0.3159 -0.8864  0.4869
16071TIP3    H169704   0.173   2.233   1.668  0.4985  0.3531  0.2371
16071TIP3    H269705   0.131   2.309   1.544 -0.5930 -1.2252 -0.3643
16072TIP3   OH269706   2.522   0.765  16.291  0.6207  0.0552 -0.4231
16072TIP3    H169707   2.610   0.778  16.327  0.1681 -0.6464  0.9525
16072TIP3    H269708   2.514   0.833  16.224  1.7987  0.8443  0.2102
16073TIP3   OH269709   4.038   2.913   5.419  0.8757  0.3694 -0.2837
16073TIP3    H169710   4.027   2.927   5.513 -1.4515 -1.7843 -0.1586
16073TIP3    H269711   4.095   2.837   5.412 -0.2934 -0.5111 -0.5326
16074TIP3   OH269712   0.096   6.292  13.700 -0.0745 -0.0739 -0.1444
16074TIP3    H169713   0.109   6.238  13.622 -0.1656 -1.6468  0.9005
16074TIP3    H269714   0.080   6.380  13.666 -2.3540 -1.1449 -2.0120
16075TIP3   OH269715   2.180   3.492  13.712  0.0362 -0.1734 -0.1331
16075TIP3    H169716   2.088   3.483  13.687  0.3277  2.2468 -2.2616
16075TIP3    H269717   2.180   3.479  13.807 -2.1311 -2.5395 -0.3905
16076TIP3   OH269718   0.167   0.925   2.489  0.3977 -0.3380  0.6565
16076TIP3    H169719   0.133   0.998   2.436 -0.5645 -1.4180 -0.2572
16076TIP3    H269720   0.200   0.966   2.568 -0.1504  1.0980  0.1640
16077TIP3   OH269721   4.170   0.808  14.563 -0.2221 -0.1833 -0.5976
16077TIP3    H169722   4.182   0.814  14.658 -1.9215 -2.6753 -0.1784
16077TIP3    H269723   4.258   0.796  14.529  0.4098  0.7326  0.6737
16078TIP3   OH269724   1.422   0.824   3.234  0.0944  0.1677 -0.8009
16078TIP3    H169725   1.489   0.795   3.296 -1.0100  0.2507  0.4445
16078TIP3    H269726   1.412   0.750   3.173  0.0032 -0.5821  0.1090
16079TIP3   OH269727   5.670   0.197   2.217  0.1261 -0.1448  0.0218
16079TIP3    H169728   5.668   0.134   2.145  1.1167  1.7008 -1.6700
16079TIP3    H269729   5.727   0.157   2.282  0.2577 -1.2569 -0.7643
16080TIP3   OH269730   0.469   5.739   4.987 -0.4520 -0.0491  0.0898
16080TIP3    H169731   0.412   5.794   4.932 -0.1530 -0.5875 -0.7725
16080TIP3    H269732   0.480   5.658   4.937  1.6585  0.3160 -0.1015
16081TIP3   OH269733   6.585   4.679   3.099 -0.0866  0.0926 -0.3941
16081TIP3    H169734   6.523   4.637   3.159 -0.4366  1.1887  0.0398
16081TIP3    H269735   6.662   4.697   3.153 -0.2225  0.6633 -0.3880
16082TIP3   OH269736   5.418   6.025  13.177  0.3280 -0.4929 -0.1104
16082TIP3    H169737   5.410   6.064  13.265  0.5632  1.2326 -0.8355
16082TIP3    H269738   5.506   5.988  13.175 -0.0880 -1.5764  0.7750
16083TIP3   OH269739   6.646   3.620  13.424  0.4208  0.2853 -0.0785
16083TIP3    H169740   6.725   3.665  13.455  1.2833 -0.9878 -0.3481
16083TIP3    H269741   6.603   3.682  13.366  2.1883  0.3392 -1.3572
16084TIP3   OH269742   4.890   2.415  12.118 -0.1990 -0.2351 -0.0301
16084TIP3    H169743   4.884   2.320  12.133  0.4611  0.0438  2.2095
16084TIP3    H269744   4.800   2.443  12.107 -0.5096 -0.9303  0.6455
16085TIP3   OH269745   0.922   6.041   6.152  0.0518 -0.4276 -0.4982
16085TIP3    H169746   0.948   6.112   6.211 -1.3026 -0.2302 -0.1375
16085TIP3    H269747   1.004   5.994   6.134  0.9301  1.1079 -0.5909
16086TIP3   OH269748   6.177   2.877   1.062 -0.1709 -0.2499 -0.0164
16086TIP3    H169749   6.192   2.913   1.149 -1.1697 -0.7696  0.3842
16086TIP3    H269750   6.220   2.791   1.064 -0.1555 -0.2430 -0.0453
16087TIP3   OH269751   2.097   5.681   1.021 -0.2568 -0.0156  0.3684
16087TIP3    H169752   2.106   5.587   1.038 -1.2046 -0.1188  0.2790
16087TIP3    H269753   2.185   5.716   1.036  0.0372 -0.8740  0.6689
16088TIP3   OH269754   0.488   3.489   4.962 -0.0749  0.8263 -0.4969
16088TIP3    H169755   0.487   3.566   5.018  1.4891 -0.3407  1.1813
16088TIP3    H269756   0.570   3.495   4.913 -0.3982  0.7076 -1.0594
16089TIP3   OH269757   5.247   5.299   2.614  0.3831 -0.8255 -0.0947
16089TIP3    H169758   5.221   5.365   2.550 -1.0253 -1.1749  0.1166
16089TIP3    H269759   5.258   5.347   2.696 -0.4954 -0.8211  0.0249
16090TIP3   OH269760   5.703   4.962   5.515 -0.5200 -0.2438  0.6177
16090TIP3    H169761   5.765   4.896   5.484 -2.1878 -0.2646 -2.9407
16090TIP3    H269762   5.729   5.043   5.471  0.6998  1.2400  3.9220
16091TIP3   OH269763   2.267   0.052   0.743  0.0673  0.0453 -0.0318
16091TIP3    H169764   2.192  -0.003   0.722  0.6222 -1.7740  2.4570
16091TIP3    H269765   2.290   0.095   0.661 -1.5070 -2.0895 -1.6328
16092TIP3   OH269766   6.300   3.021  14.372  0.3590  0.3264  0.1933
16092TIP3    H169767   6.260   3.047  14.289 -3.1898 -1.5363  1.2127
16092TIP3    H269768   6.280   3.093  14.432  0.2622  0.3058  0.1868
16093TIP3   OH269769   4.193   2.514  16.642  0.0431 -0.2573  0.1883
16093TIP3    H169770   4.276   2.467  16.631  1.7692  2.9865 -1.3589
16093TIP3    H269771   4.147   2.498  16.560  0.0553 -0.3280  0.1952
16094TIP3   OH269772   1.494   4.383   3.561 -0.1948  0.0761 -0.1227
16094TIP3    H169773   1.512   4.368   3.654  2.0670 -1.4846 -0.7840
16094TIP3    H269774   1.408   4.426   3.560  0.2492  1.0962  2.7274
16095TIP3   OH269775   4.611   4.209   5.184  0.1762  0.4588 -0.1703
16095TIP3    H169776   4.599   4.145   5.254  0.2438  0.0616 -0.5248
16095TIP3    H269777   4.680   4.173   5.129  0.6820  1.1480 -0.0077
16096TIP3   OH269778   4.607   3.886  12.339  0.0446  0.1475  0.2536
16096TIP3    H169779   4.581   3.863  12.428  0.0366 -2.0659 -0.2701
16096TIP3    H269780   4.528   3.918  12.297 -0.0675  0.7058  0.8916
16097TIP3   OH269781   2.756   5.742   5.314  0.6203  0.0021  0.3711
16097TIP3    H169782   2.741   5.831   5.345 -1.6022 -0.2249  0.0603
16097TIP3    H269783   2.777   5.751   5.222  0.0232  0.1907  0.2509
16098TIP3   OH269784   4.588   4.406  13.241  0.1722 -0.7342 -0.2816
16098TIP3    H169785   4.513   4.423  13.298  1.5327  1.1417  1.0193
16098TIP3    H269786   4.563   4.444  13.156 -0.1664  0.2760  0.2694
16099TIP3   OH269787   6.183   2.737   2.474  0.0548  0.1226 -0.5073
16099TIP3    H169788   6.156   2.646   2.481 -0.0748  0.3978  3.3648
16099TIP3    H269789   6.108   2.782   2.436 -1.0195 -0.8527  0.4575
16100TIP3   OH269790   3.609   5.028  15.040 -0.5815  0.1767  0.3835
16100TIP3    H169791   3.527   4.980  15.042 -0.4658 -0.0511 -0.2291
16100TIP3    H269792   3.652   4.998  14.960 -1.0853  2.2781 -0.6832
16101TIP3   OH269793   0.816   4.721  11.553 -0.5633  0.0193  0.1911
16101TIP3    H169794   0.834   4.798  11.500 -3.3781  0.9863  0.5840
16101TIP3    H269795   0.834   4.647  11.494 -0.0684  0.9992 -0.9088
16102TIP3   OH269796   3.537   4.415  15.324  0.3148 -0.5767  0.3623
16102TIP3    H169797   3.547   4.324  15.294  0.1290 -0.4644 -0.0462
16102TIP3    H269798   3.603   4.464  15.275 -0.0199 -0.3841  0.0972
16103TIP3   OH269799   1.734   2.409   4.758 -0.5867  0.0760  0.0388
16103TIP3    H169800   1.700   2.478   4.816  0.3941 -0.8037  1.7086
16103TIP3    H269801   1.754   2.336   4.817  1.0667 -0.6166 -1.3443
16104TIP3   OH269802   3.946   4.221  16.007  0.4100 -0.3296  0.2450
16104TIP3    H169803   3.950   4.126  16.011 -0.4460 -0.4484 -1.4970
16104TIP3    H269804   4.016   4.250  16.066  1.6065 -2.0358 -0.2897
16105TIP3   OH269805   1.275   3.583  14.965 -0.3261  0.3838  0.1606
16105TIP3    H169806   1.330   3.661  14.973  0.8282 -0.4521  0.5077
16105TIP3    H269807   1.231   3.577  15.050 -1.0901  1.1376 -0.1680
16106TIP3   OH269808   0.624   0.686  14.624  0.0057  0.2402 -0.0193
16106TIP3    H169809   0.661   0.604  14.593  0.7719  0.4128  0.4335
16106TIP3    H269810   0.632   0.746  14.550  0.9633  0.3789  0.1897
16107TIP3   OH269811   5.933   4.210  10.976  0.1447  0.4708  0.4236
16107TIP3    H169812   5.892   4.264  11.043 -1.4505 -1.5041  1.0885
16107TIP3    H269813   5.948   4.270  10.902  1.2873  2.4963  2.2509
16108TIP3   OH269814   0.471   3.392  14.516  0.3799 -0.0803  0.0309
16108TIP3    H169815   0.474   3.297  14.505  3.8246  0.0652 -1.0962
16108TIP3    H269816   0.402   3.421  14.457  0.8020 -1.7143 -1.3224
16109TIP3   OH269817   3.054   1.067  17.115  0.0970 -0.9862  0.0712
16109TIP3    H169818   3.037   1.119  17.194  0.0535 -1.7812  0.5868
16109TIP3    H269819   3.147   1.083  17.096  0.2664 -1.2835  0.6398
16110TIP3   OH269820   2.187   0.560   4.403  0.4122  0.0650  0.2488
16110TIP3    H169821   2.184   0.467   4.422 -1.3173 -0.1796 -1.1438
16110TIP3    H269822   2.213   0.565   4.311 -1.3158  0.8830 -0.2191
16111TIP3   OH269823   1.480   2.429  11.595  0.0174 -0.2492 -0.0194
16111TIP3    H169824   1.449   2.355  11.648 -1.3956 -0.5112 -1.1976
16111TIP3    H269825   1.538   2.477  11.654  0.3428 -1.8548  1.0158
16112TIP3   OH269826   1.065   0.158   1.198 -0.3901  0.1660 -0.1907
16112TIP3    H169827   1.127   0.165   1.125 -0.0870 -1.9724 -0.1894
16112TIP3    H269828   1.104   0.092   1.256 -1.7094  0.2308  0.7855
16113TIP3   OH269829   2.064   6.358  10.774  0.1998 -0.0091  0.0697
16113TIP3    H169830   2.140   6.309  10.742 -0.2141 -0.6927  0.1347
16113TIP3    H269831   2.095   6.448  10.779  0.8518 -0.1979 -0.4185
16114TIP3   OH269832   4.586   6.195   6.444  0.0066 -0.5543 -0.5344
16114TIP3    H169833   4.610   6.215   6.534 -1.3734 -2.9149  0.4025
16114TIP3    H269834   4.580   6.280   6.401  0.1718  0.6274  1.7216
16115TIP3   OH269835   5.221   5.301  15.269 -0.0769  0.0292  0.0114
16115TIP3    H169836   5.183   5.304  15.182 -0.1564 -1.5674 -0.0277
16115TIP3    H269837   5.199   5.214  15.302  0.3194  0.4597  1.4534
16116TIP3   OH269838   1.228   5.976  15.638  0.0801 -0.4594 -0.0574
16116TIP3    H169839   1.140   6.014  15.639 -0.0070 -0.6578 -0.0497
16116TIP3    H269840   1.227   5.917  15.563  0.1360 -0.6275  0.0739
16117TIP3   OH269841   1.705   1.535   2.753 -0.2282 -0.6072 -0.5048
16117TIP3    H169842   1.757   1.476   2.699 -1.0372 -0.2738 -1.6439
16117TIP3    H269843   1.614   1.512   2.734 -0.5346 -0.7685  1.0242
16118TIP3   OH269844   4.828   0.870   0.825  0.1199 -0.0434  0.2304
16118TIP3    H169845   4.796   0.944   0.773 -0.8679  0.6004  1.7129
16118TIP3    H269846   4.758   0.805   0.819  0.9416 -0.8341 -0.9856
16119TIP3   OH269847   6.516   3.193   2.252  0.1205 -0.9178  0.2689
16119TIP3    H169848   6.599   3.157   2.221  0.6602 -1.4953  2.3219
16119TIP3    H269849   6.458   3.117   2.259 -0.5251 -0.5549 -0.8900
16120TIP3   OH269850   1.341   2.279   0.426  0.3075  0.2241  0.1890
16120TIP3    H169851   1.318   2.209   0.365 -0.2630 -0.4192  1.1286
16120TIP3    H269852   1.436   2.270   0.438  0.1617 -0.7164  0.6993
16121TIP3   OH269853   5.566   5.914   0.216 -0.0743 -0.7441  0.2827
16121TIP3    H169854   5.495   5.853   0.191 -0.3842 -0.5649  0.7117
16121TIP3    H269855   5.602   5.876   0.296 -0.2230 -0.4005  0.5138
16122TIP3   OH269856   6.349   5.278   6.143 -0.2312 -0.2580 -0.4325
16122TIP3    H169857   6.311   5.191   6.155  1.0364 -0.7314  0.1897
16122TIP3    H269858   6.376   5.304   6.231 -2.2821  1.5610 -0.2857
16123TIP3   OH269859   5.511   6.138  13.616  0.0093 -0.0939 -0.0951
16123TIP3    H169860   5.438   6.117  13.558 -0.4707  0.7700  0.1916
16123TIP3    H269861   5.470   6.161  13.699  0.7007 -1.5040  0.6645
16124TIP3   OH269862   1.370   3.172  11.789 -0.1401  0.6357 -0.2008
16124TIP3    H169863   1.351   3.254  11.835  2.4645  0.9059  0.4305
16124TIP3    H269864   1.463   3.177  11.767  0.3376 -2.5911  0.7430
16125TIP3   OH269865   5.938   2.204   1.565  0.4490 -0.3523  0.3780
16125TIP3    H169866   5.996   2.128   1.553  1.7957 -0.1803  4.8927
16125TIP3    H269867   5.988   2.263   1.622 -1.6639  2.7261 -0.8593
16126TIP3   OH269868   3.944   0.232  12.873  0.1731  0.3479 -0.4122
16126TIP3    H169869   3.916   0.193  12.790  0.1895 -0.0490 -0.2324
16126TIP3    H269870   3.964   0.157  12.929  1.1630  0.6261 -0.3871
16127TIP3   OH269871   6.627   1.595   0.646 -0.3633 -0.5473  0.1303
16127TIP3    H169872   6.656   1.547   0.568 -2.6913 -1.8352  0.0235
16127TIP3    H269873   6.545   1.553   0.670 -0.7257  1.2323  2.0491
16128TIP3   OH269874   3.172   6.364   2.858  0.9295  0.5517 -0.2681
16128TIP3    H169875   3.146   6.438   2.913  0.0148  0.0957 -0.0878
16128TIP3    H269876   3.153   6.392   2.769 -0.7094  0.0016 -0.0953
16129TIP3   OH269877   3.494   1.573   2.551 -0.2540  0.3141  0.1759
16129TIP3    H169878   3.453   1.659   2.559  0.6262  0.7886 -0.4100
16129TIP3    H269879   3.444   1.517   2.611 -1.0332  1.1527  0.3136
16130TIP3   OH269880   3.936   6.814   0.772 -0.2282 -0.3403 -0.3053
16130TIP3    H169881   3.878   6.756   0.822 -0.0218 -0.7675 -0.5667
16130TIP3    H269882   3.876   6.871   0.724 -0.4456  0.8021  1.2500
16131TIP3   OH269883   2.818   0.845   3.878  0.0044  0.2141 -0.8168
16131TIP3    H169884   2.796   0.859   3.786 -1.3431 -2.0126 -0.8867
16131TIP3    H269885   2.734   0.829   3.921  0.7687 -0.5824  0.4379
16132TIP3   OH269886   3.057   3.086   3.800  0.1583  0.4823  0.5132
16132TIP3    H169887   3.027   3.086   3.891 -0.3874  1.3630  0.3400
16132TIP3    H269888   3.059   3.179   3.775  1.5839  0.3378  0.0410
16133TIP3   OH269889   1.881   5.971   4.456  0.2703 -0.5573  0.0080
16133TIP3    H169890   1.815   5.902   4.450 -1.2636  0.9815 -1.3489
16133TIP3    H269891   1.940   5.955   4.382  0.3071 -0.7975  0.0896
16134TIP3   OH269892   5.792   5.152   6.078 -0.0991  0.2768 -0.0146
16134TIP3    H169893   5.791   5.056   6.072  0.3888  0.2006  1.0316
16134TIP3    H269894   5.719   5.180   6.023 -0.1548 -0.6888 -0.4484
16135TIP3   OH269895   4.851   2.708   1.564 -0.0057  0.3108 -0.0027
16135TIP3    H169896   4.907   2.685   1.638  1.4945  1.2971 -0.8045
16135TIP3    H269897   4.890   2.661   1.490 -1.7967 -1.0821 -0.0954
16136TIP3   OH269898   4.759   6.740   2.628  0.2299  0.0602 -0.0923
16136TIP3    H169899   4.852   6.718   2.616 -0.1135 -1.6567  0.2274
16136TIP3    H269900   4.729   6.680   2.696 -0.8041  1.5062  0.7634
16137TIP3   OH269901   4.575   6.405   4.946 -0.4343  0.2674 -0.1515
16137TIP3    H169902   4.665   6.424   4.968 -0.6262  2.2958 -1.0295
16137TIP3    H269903   4.539   6.361   5.023  0.3868  2.3851  1.4561
16138TIP3   OH269904   3.685   5.547  11.810  0.1616  0.8055  0.0877
16138TIP3    H169905   3.774   5.526  11.840  1.5928  0.2367 -4.2223
16138TIP3    H269906   3.650   5.463  11.780 -1.4971  1.1965  0.9002
16139TIP3   OH269907   2.656   6.252   3.404  0.1343 -0.0018  0.5137
16139TIP3    H169908   2.633   6.259   3.497  1.3573  0.5521  0.7961
16139TIP3    H269909   2.665   6.158   3.388 -0.5702 -0.1240  0.8266
16140TIP3   OH269910   5.756   3.938  11.679  0.0394 -0.1711 -0.4337
16140TIP3    H169911   5.787   3.881  11.608 -0.9673  0.2867 -1.2657
16140TIP3    H269912   5.660   3.931  11.675 -0.1253  1.9341 -0.8743
16141TIP3   OH269913   3.317   3.918   0.530 -0.1430 -0.1235 -0.2016
16141TIP3    H169914   3.375   3.946   0.459 -0.0505 -2.1650 -0.9515
16141TIP3    H269915   3.230   3.913   0.489 -0.2948 -0.1862  0.1276
16142TIP3   OH269916   5.616   3.272  11.803 -0.9020 -0.3247  0.3036
16142TIP3    H169917   5.609   3.282  11.709  0.5909  1.0925  0.3086
16142TIP3    H269918   5.671   3.195  11.815 -1.0663 -0.4860  0.0135
16143TIP3   OH269919   0.526   1.067   2.568  0.4910  0.2144 -0.9165
16143TIP3    H169920   0.432   1.064   2.585  0.2230  1.6503 -2.0769
16143TIP3    H269921   0.552   0.975   2.562 -0.7585 -0.2032 -0.2241
16144TIP3   OH269922   1.874   6.568  11.609 -1.2090 -0.0604 -0.2691
16144TIP3    H169923   1.875   6.528  11.696 -0.8097  0.7199  0.0866
16144TIP3    H269924   1.957   6.542  11.570 -1.5058 -0.6348 -0.5200
16145TIP3   OH269925   3.750   2.254  16.490  0.3946 -0.2602  0.1872
16145TIP3    H169926   3.682   2.258  16.423 -0.5799 -0.5125  1.1382
16145TIP3    H269927   3.803   2.177  16.467 -0.8791 -1.2720  0.5870
16146TIP3   OH269928   6.247   2.754   6.637  0.8846 -0.0583  0.2304
16146TIP3    H169929   6.225   2.668   6.672  1.6144 -0.6947 -0.8588
16146TIP3    H269930   6.212   2.816   6.702  0.2961 -1.1624  0.9783
16147TIP3   OH269931   6.170   3.762   4.155  0.0521 -0.3226  0.1415
16147TIP3    H169932   6.232   3.691   4.165 -1.2448 -1.1350  2.6897
16147TIP3    H269933   6.109   3.731   4.087  0.8032 -0.6669 -0.3811
16148TIP3   OH269934   5.677   0.726  13.728  0.6117 -0.3212 -0.0191
16148TIP3    H169935   5.680   0.816  13.761 -0.0669 -0.2844 -0.0464
16148TIP3    H269936   5.769   0.701  13.717  0.7845  0.9050 -1.4735
16149TIP3   OH269937   5.898   6.799  15.941 -0.3025 -0.2177  0.6626
16149TIP3    H169938   5.842   6.778  15.866  0.9000  0.9938 -0.5907
16149TIP3    H269939   5.913   6.715  15.984 -0.3987 -1.0431 -0.8885
16150TIP3   OH269940   3.664   1.771  13.758  0.1734  0.5856 -0.0925
16150TIP3    H169941   3.710   1.742  13.680  0.7400  0.2128  0.3682
16150TIP3    H269942   3.581   1.722  13.757 -0.1145  1.0764 -0.7936
16151TIP3   OH269943   2.352   3.155  15.643  0.2390  0.1758 -0.3146
16151TIP3    H169944   2.390   3.094  15.580  1.3067 -0.1507  0.6201
16151TIP3    H269945   2.428   3.205  15.676 -0.6409  2.1920 -1.2685
16152TIP3   OH269946   1.442   0.737  10.484  0.3147  0.2487 -0.3411
16152TIP3    H169947   1.348   0.732  10.502  0.5684  0.0673  0.9618
16152TIP3    H269948   1.461   0.831  10.484  0.4241  0.2378  0.9913
16153TIP3   OH269949   5.622   4.317  14.753  0.2640 -0.0548 -0.1255
16153TIP3    H169950   5.608   4.403  14.715 -0.0858 -0.4671 -0.9581
16153TIP3    H269951   5.623   4.258  14.677 -1.8786 -1.0798  0.5944
16154TIP3   OH269952   4.824   6.152   5.471  0.1165  0.2754  0.3736
16154TIP3    H169953   4.761   6.161   5.400 -1.0883 -3.7275  0.8228
16154TIP3    H269954   4.775   6.173   5.550  0.4371  1.0368  0.3740
16155TIP3   OH269955   2.202   3.974  14.625 -0.1137 -0.5955  1.0190
16155TIP3    H169956   2.129   3.977  14.687 -0.4224  1.1444  0.6023
16155TIP3    H269957   2.173   4.027  14.551  2.0250  1.1934  1.3878
16156TIP3   OH269958   6.490   5.199   3.077  0.0168 -0.2361 -0.0328
16156TIP3    H169959   6.465   5.117   3.120  0.8124 -0.6989 -0.4129
16156TIP3    H269960   6.467   5.267   3.139  0.0452 -0.8085  0.6165
16157TIP3   OH269961   2.881   5.360   1.733  0.7658  0.5322  0.2126
16157TIP3    H169962   2.911   5.391   1.648 -0.4981  1.1884 -0.0085
16157TIP3    H269963   2.907   5.428   1.794  0.8676  0.4878  0.2192
16158TIP3   OH269964   2.448   3.157  11.811  0.7850  0.6938  0.1951
16158TIP3    H169965   2.535   3.193  11.827  1.5947 -0.8301 -0.6920
16158TIP3    H269966   2.448   3.073  11.858 -0.2525  0.7327  0.2786
16159TIP3   OH269967   2.523   1.821   1.329 -0.2172  0.4405 -0.1678
16159TIP3    H169968   2.558   1.799   1.242  0.6320 -3.2487  1.0072
16159TIP3    H269969   2.445   1.767   1.337 -3.1786  4.4643 -0.5094
16160TIP3   OH269970   6.578   0.297   1.220 -0.1153  0.6508  0.2945
16160TIP3    H169971   6.662   0.308   1.264  0.2041  2.2458 -0.6973
16160TIP3    H269972   6.582   0.209   1.182  1.0884  0.7234  0.2379
16161TIP3   OH269973   1.408   3.182  12.876 -0.0884 -0.2451  0.2740
16161TIP3    H169974   1.319   3.189  12.842 -0.5116 -0.8681  1.2355
16161TIP3    H269975   1.445   3.107  12.830 -0.1319 -0.1167  0.0296
16162TIP3   OH269976   1.765   3.209  13.250 -0.1864 -0.3008  0.5336
16162TIP3    H169977   1.820   3.194  13.173 -1.5782  1.9638 -0.9351
16162TIP3    H269978   1.714   3.287  13.229 -1.0261  0.0225  3.5253
16163TIP3   OH269979   6.526   6.376  16.941  0.0658 -0.2638 -0.7340
16163TIP3    H169980   6.504   6.315  17.012  0.6145  0.1496 -0.1910
16163TIP3    H269981   6.549   6.458  16.987  3.2138 -0.8174 -1.1991
16164TIP3   OH269982   3.244   6.530  10.883  0.2009  0.1509  0.3738
16164TIP3    H169983   3.311   6.494  10.824  0.8086 -0.6310  1.5281
16164TIP3    H269984   3.289   6.600  10.931 -0.6111  1.5742 -0.9034
16165TIP3   OH269985   5.939   0.875   3.671 -0.1821  0.5108 -0.3236
16165TIP3    H169986   5.937   0.965   3.637 -0.5102  0.8700  0.6241
16165TIP3    H269987   6.026   0.866   3.709  1.1001 -0.7361 -3.4702
16166TIP3   OH269988   4.313   6.539  12.160  0.0608  0.4010  0.7078
16166TIP3    H169989   4.280   6.515  12.074  0.2532  1.4679  0.3253
16166TIP3    H269990   4.288   6.631  12.171  2.1470  0.9984  0.7442
16167TIP3   OH269991   6.435   1.376  14.795  0.3065 -0.0937  0.4880
16167TIP3    H169992   6.460   1.313  14.727  0.4253  0.3311  0.1300
16167TIP3    H269993   6.356   1.340  14.834 -0.4836  0.2898 -0.7446
16168TIP3   OH269994   0.635   4.670   2.864  0.7149  0.4823 -0.0653
16168TIP3    H169995   0.717   4.717   2.879  0.9466  1.5317 -4.1134
16168TIP3    H269996   0.658   4.601   2.801 -1.2005 -0.2737  0.0097
16169TIP3   OH269997   5.719   2.458   2.009  0.4032  0.4422 -0.4060
16169TIP3    H169998   5.636   2.430   1.972  1.1209 -2.8155  0.2920
16169TIP3    H269999   5.781   2.389   1.984  1.8036  0.2477  3.2916
16170TIP3   OH270000   5.372   3.960   2.021  0.2350 -0.0154  0.0302
16170TIP3    H170001   5.282   3.929   2.025  0.7145 -1.6878 -1.4917
16170TIP3    H270002   5.396   3.978   2.112 -1.3196 -0.4543  0.5315
16171TIP3   OH270003   3.118   3.230   5.317 -0.2014 -0.4379  0.3408
16171TIP3    H170004   3.203   3.213   5.278 -0.6700 -1.1658 -0.3732
16171TIP3    H270005   3.061   3.251   5.243 -0.2721  1.6742  0.9583
16172TIP3   OH270006   6.774   2.530   3.863  0.0334 -0.3015  0.2148
16172TIP3    H170007   6.863   2.559   3.843  0.0398 -0.3685  0.1504
16172TIP3    H270008   6.779   2.435   3.862  0.7396 -0.3693  3.5778
16173TIP3   OH270009   4.535   3.826  14.425 -0.1733  0.3648  0.4404
16173TIP3    H170010   4.527   3.881  14.503 -1.9554 -0.6948  1.0251
16173TIP3    H270011   4.451   3.833  14.381 -1.2127 -3.4741  1.6310
16174TIP3   OH270012   1.565   0.339   3.814 -0.3673  0.8665  0.0120
16174TIP3    H170013   1.625   0.290   3.757 -2.3356  0.0482 -1.4132
16174TIP3    H270014   1.483   0.290   3.810 -1.0144  1.6979  2.3154
16175TIP3   OH270015   2.564   4.090   6.344 -0.3169 -0.4523 -0.4237
16175TIP3    H170016   2.631   4.026   6.369 -0.2205 -1.1511 -2.3691
16175TIP3    H270017   2.482   4.055   6.379 -0.5128 -2.4709 -2.7967
16176TIP3   OH270018   2.981   4.788  11.792  0.2605 -0.0284 -0.1472
16176TIP3    H170019   2.940   4.805  11.707 -0.0408  3.4117  0.5983
16176TIP3    H270020   2.919   4.822  11.856  2.2152  1.0462  1.2360
16177TIP3   OH270021   4.707   2.446   5.239 -0.2076  0.0569 -0.0432
16177TIP3    H170022   4.665   2.381   5.183  1.1612 -0.0463 -0.9974
16177TIP3    H270023   4.801   2.429   5.228  0.1408  1.6531  0.3417
16178TIP3   OH270024   2.477   2.528   3.852 -0.3263 -0.7337  0.1747
16178TIP3    H170025   2.442   2.508   3.765 -0.5572  1.2433 -0.2024
16178TIP3    H270026   2.571   2.540   3.838 -0.3115 -0.7510  0.2600
16179TIP3   OH270027   0.768   2.226   3.383 -0.0383 -0.2059  0.3971
16179TIP3    H170028   0.701   2.167   3.346  1.1905 -1.3062 -0.1278
16179TIP3    H270029   0.771   2.299   3.322  0.5376 -1.0469 -0.6054
16180TIP3   OH270030   0.411   5.860   0.679 -0.3026 -0.2097  0.2378
16180TIP3    H170031   0.391   5.914   0.756 -2.5133 -1.8234  0.8361
16180TIP3    H270032   0.339   5.876   0.618  1.3941  0.9886 -1.5038
16181TIP3   OH270033   2.433   2.959   3.832  0.0947 -0.1436 -0.2209
16181TIP3    H170034   2.367   2.894   3.857 -0.3277  0.6478  0.7377
16181TIP3    H270035   2.513   2.929   3.876 -0.5877  1.1140  1.9795
16182TIP3   OH270036   4.664   2.674   6.654 -0.0743  0.2602  0.0245
16182TIP3    H170037   4.743   2.718   6.624  1.0627 -0.9431  1.1581
16182TIP3    H270038   4.593   2.713   6.603  1.2702  1.2391 -1.1195
16183TIP3   OH270039   2.933   5.176  13.486  0.1184 -0.1890 -0.2254
16183TIP3    H170040   2.866   5.243  13.471 -0.5393 -0.7723  0.0687
16183TIP3    H270041   2.922   5.152  13.578  1.1405  0.1454 -0.0048
16184TIP3   OH270042   2.966   1.493  12.872 -0.2121 -0.6612 -0.6048
16184TIP3    H170043   3.001   1.562  12.929 -0.0345 -1.0623 -0.2233
16184TIP3    H270044   3.040   1.433  12.860 -0.7019 -1.3972  0.0220
16185TIP3   OH270045   3.430   2.640  11.739  0.2619 -0.0280  0.0535
16185TIP3    H170046   3.402   2.726  11.769  0.9989 -0.1306  1.0607
16185TIP3    H270047   3.420   2.643  11.644  0.5996  1.2856  0.0500
16186TIP3   OH270048   5.580   6.028  11.893 -0.2471  0.1820  0.4866
16186TIP3    H170049   5.628   6.041  11.811  0.5941 -3.3787  0.3459
16186TIP3    H270050   5.520   5.956  11.874 -2.8801  1.9415  1.8559
16187TIP3   OH270051   4.248   5.078   5.639 -0.0321 -0.5085  0.3146
16187TIP3    H170052   4.174   5.076   5.700  1.2759  0.2615  1.9855
16187TIP3    H270053   4.272   4.986   5.628 -2.0390 -0.8676 -1.2830
16188TIP3   OH270054   5.657   5.332  12.202  0.4477 -0.7264 -0.2897
16188TIP3    H170055   5.729   5.271  12.219  0.7806 -0.0082  0.9211
16188TIP3    H270056   5.687   5.416  12.238  0.1495  0.2726 -2.2474
16189TIP3   OH270057   6.339   5.199  17.047 -0.3177 -0.0945 -0.0766
16189TIP3    H170058   6.294   5.152  16.977  1.7298 -0.5537 -1.1302
16189TIP3    H270059   6.420   5.151  17.060  0.4967  1.4700  0.8350
16190TIP3   OH270060   2.603   0.692  11.374 -0.1163 -0.3840  0.4646
16190TIP3    H170061   2.696   0.672  11.387 -0.3517 -0.5666  1.9554
16190TIP3    H270062   2.586   0.670  11.282  1.2265 -0.6865  0.2818
16191TIP3   OH270063   1.721   4.280  11.376  0.0494 -0.0753 -0.0757
16191TIP3    H170064   1.800   4.264  11.325  0.5157 -1.6077  1.0749
16191TIP3    H270065   1.705   4.374  11.368  2.1381  0.2967 -0.1000
16192TIP3   OH270066   2.516   4.401  12.272 -0.1904 -0.2782  0.3248
16192TIP3    H170067   2.499   4.307  12.283 -1.5266  0.2403  2.7418
16192TIP3    H270068   2.595   4.417  12.323  0.8217 -0.2981 -1.1723
16193TIP3   OH270069   3.994   1.085  14.522 -0.3248 -0.0804 -0.2550
16193TIP3    H170070   4.011   1.031  14.599 -1.5248 -0.1925 -0.0512
16193TIP3    H270071   3.956   1.024  14.458  0.2878  0.0940 -0.7931
16194TIP3   OH270072   1.742   5.901   0.533  0.2508 -0.0070  0.3737
16194TIP3    H170073   1.785   5.944   0.607 -1.7457 -0.1985  1.6847
16194TIP3    H270074   1.776   5.812   0.534  1.0556  0.2899  0.3695
16195TIP3   OH270075   4.347   5.294  16.354 -0.2188 -0.1730 -0.0815
16195TIP3    H170076   4.340   5.229  16.423 -0.1222 -1.3344 -1.1359
16195TIP3    H270077   4.368   5.243  16.275  2.9737  1.3995 -0.3369
16196TIP3   OH270078   1.291   2.068   0.261  0.5184 -0.1064  0.0571
16196TIP3    H170079   1.214   2.014   0.278  0.6461 -0.7498 -1.3102
16196TIP3    H270080   1.261   2.132   0.196  0.9605  0.0407 -0.0011
16197TIP3   OH270081   5.948   3.672   3.102  0.2186  0.3912  0.9511
16197TIP3    H170082   5.983   3.716   3.024  0.4167  2.6737  2.2689
16197TIP3    H270083   6.010   3.601   3.119  0.0071 -0.3113 -1.1219
16198TIP3   OH270084   0.318   5.293  10.492  0.1172 -0.4129 -0.1802
16198TIP3    H170085   0.294   5.263  10.580  0.3934 -1.3651 -0.4275
16198TIP3    H270086   0.322   5.213  10.439 -1.0693  0.2620 -1.3144
16199TIP3   OH270087   5.483   5.144   0.979  0.1721  0.1351  0.2313
16199TIP3    H170088   5.479   5.220   0.921 -2.1907  0.6817  1.0421
16199TIP3    H270089   5.458   5.070   0.923 -0.6439  0.4439  0.1746
16200TIP3   OH270090   1.224   2.183  11.990 -0.0729 -0.0937 -0.1872
16200TIP3    H170091   1.241   2.091  12.007 -0.0729  0.2163  1.5690
16200TIP3    H270092   1.153   2.184  11.926  0.0470 -1.2967 -0.3406
16201TIP3   OH270093   3.733   1.797   2.674 -0.4068  0.1219  0.1868
16201TIP3    H170094   3.803   1.746   2.714 -1.0490 -0.6455  0.3490
16201TIP3    H270095   3.655   1.743   2.684 -0.9702  0.8360 -0.2563
16202TIP3   OH270096   5.816   1.476   2.252  0.2770 -0.2423  0.8079
16202TIP3    H170097   5.723   1.495   2.260  0.2338 -0.5778  1.1322
16202TIP3    H270098   5.846   1.529   2.179 -0.7164 -2.1199 -1.0194
16203TIP3   OH270099   0.100   4.660  16.687  0.0428  0.5510  0.3944
16203TIP3    H170100   0.029   4.666  16.622  2.0891  0.3087 -1.9492
16203TIP3    H270101   0.058   4.683  16.770 -2.8481  0.1096 -0.8633
16204TIP3   OH270102   2.812   5.998  16.454 -0.4754 -0.2294 -0.3544
16204TIP3    H170103   2.900   6.028  16.430  0.3235  0.4204  3.1638
16204TIP3    H270104   2.755   6.073  16.435 -0.1655 -0.3212 -1.7290
16205TIP3   OH270105   4.681   4.000  13.612 -0.2717 -0.2763  0.6682
16205TIP3    H170106   4.619   4.024  13.543  0.8523 -1.2348 -0.7017
16205TIP3    H270107   4.718   3.917  13.584 -0.5092 -1.1863  2.9285
16206TIP3   OH270108   4.683   0.299   2.983  0.4332  0.0145 -0.6355
16206TIP3    H170109   4.723   0.354   3.051 -0.0539 -1.1916  0.6663
16206TIP3    H270110   4.755   0.279   2.923  1.1160  0.2672  0.0815
16207TIP3   OH270111   3.751   0.833   3.283  0.0673  0.4865 -0.6797
16207TIP3    H170112   3.704   0.797   3.359 -0.1848  0.4780 -0.8400
16207TIP3    H270113   3.740   0.767   3.215  1.5210 -0.1777 -0.2844
16208TIP3   OH270114   2.919   2.115   5.143  0.2037 -0.5784  0.4069
16208TIP3    H170115   2.958   2.195   5.176  0.3262 -0.6258  0.3738
16208TIP3    H270116   2.923   2.123   5.047  1.6324 -1.3195  0.3954
16209TIP3   OH270117   2.379   2.308   0.920 -0.3115 -0.4068 -0.7967
16209TIP3    H170118   2.436   2.239   0.954  0.6096  0.6836 -0.0785
16209TIP3    H270119   2.435   2.385   0.916 -1.5056  0.4672 -0.9376
16210TIP3   OH270120   4.617   3.678  11.089 -0.5087  0.6774 -0.0913
16210TIP3    H170121   4.618   3.588  11.054  1.1143 -0.6093  3.0565
16210TIP3    H270122   4.692   3.720  11.048 -0.0199 -0.0465  0.0582
16211TIP3   OH270123   5.756   2.338   2.413  0.3040 -0.1353  0.3607
16211TIP3    H170124   5.665   2.370   2.411  0.1866 -0.4786  0.2205
16211TIP3    H270125   5.771   2.303   2.325  0.9987  1.0983 -0.0372
16212TIP3   OH270126   5.997   3.828  14.584  0.1000 -0.3752 -0.5513
16212TIP3    H170127   5.917   3.835  14.532  0.7512  2.2007 -1.2791
16212TIP3    H270128   5.978   3.759  14.647 -2.2254 -0.7057 -1.5438
16213TIP3   OH270129   4.401   5.118  14.765  0.1818 -0.2657  0.0482
16213TIP3    H170130   4.321   5.135  14.814  0.3058 -1.1872  0.5773
16213TIP3    H270131   4.452   5.060  14.821  1.5272  0.8531  0.0161
16214TIP3   OH270132   4.504   0.181  14.151  0.2905 -0.4789  0.1795
16214TIP3    H170133   4.444   0.214  14.218 -2.3888 -0.0597 -2.3249
16214TIP3    H270134   4.579   0.241  14.154 -1.8560  2.3368 -0.2840
16215TIP3   OH270135   1.385   5.217   2.316  0.1681 -0.0433 -0.6256
16215TIP3    H170136   1.416   5.307   2.304  2.3177 -0.7671 -0.7846
16215TIP3    H270137   1.381   5.205   2.411 -0.6058  0.3723 -0.6036
16216TIP3   OH270138   1.747   4.795  16.650  0.1200  0.1043 -0.3218
16216TIP3    H170139   1.676   4.827  16.594 -0.5140 -0.2867  0.2459
16216TIP3    H270140   1.765   4.867  16.709 -1.9646 -0.8595  1.5862
16217TIP3   OH270141   2.156   6.504   3.145 -0.2559  0.6852 -0.1327
16217TIP3    H170142   2.192   6.457   3.070  1.1430  1.3536  0.0967
16217TIP3    H270143   2.217   6.485   3.216 -1.6562 -0.0649  0.8827
16218TIP3   OH270144   4.598   2.882  10.651  0.1182 -0.1297  0.0846
16218TIP3    H170145   4.644   2.798  10.653 -0.9761 -0.8403 -2.4737
16218TIP3    H270146   4.597   2.911  10.742  0.5192 -2.8971  1.0157
16219TIP3   OH270147   6.718   5.058   5.262 -0.0608  0.3816 -0.2610
16219TIP3    H170148   6.733   5.076   5.169  2.6398  0.1836  0.1065
16219TIP3    H270149   6.717   5.144   5.303  1.4497  0.3315 -0.1049
16220TIP3   OH270150   3.963   3.448   4.271  0.0879  0.1996  0.0384
16220TIP3    H170151   4.006   3.522   4.313  1.1871  0.0207 -0.7605
16220TIP3    H270152   3.892   3.488   4.221 -0.0835  0.5882  0.5792
16221TIP3   OH270153   3.300   2.287   1.876 -0.3789  0.5033 -0.5444
16221TIP3    H170154   3.310   2.243   1.961 -2.0464 -0.7790 -0.9744
16221TIP3    H270155   3.285   2.216   1.814 -1.0476  1.5513 -1.6111
16222TIP3   OH270156   6.457   2.205  12.803 -0.9210  0.0682 -0.1309
16222TIP3    H170157   6.425   2.154  12.878 -0.2979  0.2072  0.2392
16222TIP3    H270158   6.529   2.153  12.768 -2.1577 -0.7185 -1.5623
16223TIP3   OH270159   2.439   5.776   4.827 -0.5078  0.6124  0.0184
16223TIP3    H170160   2.468   5.720   4.899 -0.6750  0.1825 -0.2451
16223TIP3    H270161   2.366   5.728   4.787  1.1389 -0.3340 -1.9623
16224TIP3   OH270162   4.375   6.757  17.037 -0.1638 -0.6514  0.0903
16224TIP3    H170163   4.358   6.733  17.128  1.2830  0.6072  0.7218
16224TIP3    H270164   4.437   6.830  17.043  1.2634 -1.6554 -1.9536
16225TIP3   OH270165   1.065   1.484   0.878  0.1013  0.0183  0.1286
16225TIP3    H170166   1.008   1.560   0.866 -0.8868 -0.4420  1.7649
16225TIP3    H270167   1.005   1.409   0.872  0.6503 -0.5083  1.1973
16226TIP3   OH270168   5.475   2.396  12.896 -0.1895 -0.4311  0.4092
16226TIP3    H170169   5.527   2.316  12.883 -0.3154 -0.3654 -0.5484
16226TIP3    H270170   5.423   2.404  12.816 -0.6409  0.2730  0.7657
16227TIP3   OH270171   2.339   1.224   4.350 -0.4633  0.1232 -0.4410
16227TIP3    H170172   2.423   1.269   4.359 -0.6320  0.4923 -0.6730
16227TIP3    H270173   2.342   1.154   4.415  0.3760 -0.4117 -1.0276
16228TIP3   OH270174   1.041   4.868  14.435  0.3771  0.2375  0.7706
16228TIP3    H170175   1.069   4.947  14.388 -3.3826  1.2434 -0.0184
16228TIP3    H270176   1.016   4.807  14.366  1.1054 -0.7869  1.4100
16229TIP3   OH270177   4.589   4.473  11.174 -0.7956  0.2346  0.5001
16229TIP3    H170178   4.594   4.476  11.269  0.2887  0.0934  0.4560
16229TIP3    H270179   4.543   4.391  11.155 -0.7201  0.1036  0.8871
16230TIP3   OH270180   6.673   0.752   1.737  0.2018 -0.5717 -0.3985
16230TIP3    H170181   6.639   0.742   1.826  0.6842 -3.0013 -0.4400
16230TIP3    H270182   6.762   0.785   1.749 -0.8960  2.4558 -0.1557
16231TIP3   OH270183   1.717   0.383   5.307 -0.2351  0.1207  0.4058
16231TIP3    H170184   1.770   0.324   5.254  0.0721  0.2692  0.5479
16231TIP3    H270185   1.698   0.457   5.249  1.2019  0.8961  0.9237
16232TIP3   OH270186   6.024   2.957   0.648  0.2935 -0.0025  0.0309
16232TIP3    H170187   6.094   2.892   0.655  0.2679 -0.1789 -1.2050
16232TIP3    H270188   5.946   2.912   0.681  1.1243  0.8350  3.2738
16233TIP3   OH270189   5.738   6.088  10.806  0.2531 -0.0295 -0.5476
16233TIP3    H170190   5.822   6.042  10.797  0.6200  0.7408 -1.1607
16233TIP3    H270191   5.707   6.098  10.716 -1.0795 -1.3493 -0.2569
16234TIP3   OH270192   1.705   3.928   6.070 -0.0536 -0.2870 -0.3205
16234TIP3    H170193   1.654   3.863   6.119  0.0524  0.5004  0.8596
16234TIP3    H270194   1.735   3.990   6.137  0.0309  0.8486 -1.3950
16235TIP3   OH270195   4.669   1.893  16.854 -0.3529 -0.4300 -0.1901
16235TIP3    H170196   4.587   1.932  16.823 -0.4011 -0.6917 -0.3897
16235TIP3    H270197   4.643   1.812  16.897 -0.0800 -1.1522 -1.3672
16236TIP3   OH270198   2.498   0.490  15.239  0.4134 -0.3283 -0.1404
16236TIP3    H170199   2.427   0.450  15.188 -0.5667  1.9839 -0.6539
16236TIP3    H270200   2.471   0.479  15.330 -0.5269  0.4010 -0.3292
16237TIP3   OH270201   2.170   0.072   6.289  0.5354  0.2645  0.1418
16237TIP3    H170202   2.226   0.145   6.313 -1.3085  1.9438 -0.5399
16237TIP3    H270203   2.148   0.087   6.197 -0.4489 -0.7612  0.1957
16238TIP3   OH270204   5.514   4.309   3.354 -0.2138  0.1554 -0.2306
16238TIP3    H170205   5.586   4.247   3.369  1.5759  1.8475 -1.5067
16238TIP3    H270206   5.435   4.260   3.377  1.4646 -1.0594  3.3863
16239TIP3   OH270207   1.617   6.059  15.006 -0.1717  0.3028 -0.3386
16239TIP3    H170208   1.656   6.131  15.056  2.4645 -0.6848 -0.9294
16239TIP3    H270209   1.686   5.994  14.998 -2.0097 -1.6090 -1.2488
16240TIP3   OH270210   5.737   1.936   6.469 -0.3276 -0.5484 -0.5770
16240TIP3    H170211   5.703   1.905   6.552  0.4102 -1.6023 -0.6626
16240TIP3    H270212   5.684   1.892   6.403  0.6930 -1.6114 -0.6984
16241TIP3   OH270213   3.507   2.575  15.005  0.4841  0.5796 -0.2082
16241TIP3    H170214   3.477   2.657  15.044 -1.9926 -0.5422  0.3614
16241TIP3    H270215   3.555   2.532  15.076  1.5141  1.3857 -0.4093
16242TIP3   OH270216   3.107   3.026  17.019 -0.5506 -0.1755 -0.1166
16242TIP3    H170217   3.159   3.079  17.079  0.4024  0.7796 -1.7324
16242TIP3    H270218   3.018   3.059  17.029 -0.5238 -0.5255  1.3018
16243TIP3   OH270219   5.331   0.072  11.101 -0.2216  0.3069  0.2730
16243TIP3    H170220   5.297  -0.018  11.097 -0.3967  0.4070 -0.5972
16243TIP3    H270221   5.375   0.077  11.186 -0.1158 -0.6380  0.2841
16244TIP3   OH270222   4.950   0.969  11.616 -0.1459  0.1508 -0.1944
16244TIP3    H170223   4.973   1.041  11.558 -1.7537  0.2480 -0.7456
16244TIP3    H270224   4.919   1.012  11.696  0.3460  0.0430  0.0562
16245TIP3   OH270225   6.586   6.734  12.259  0.9983 -0.0986 -0.2465
16245TIP3    H170226   6.647   6.680  12.209 -0.5395 -0.5195 -1.7319
16245TIP3    H270227   6.508   6.740  12.203 -0.2742  0.5077  1.5399
16246TIP3   OH270228   2.212   6.619   5.773  0.0668 -0.7021  0.3003
16246TIP3    H170229   2.150   6.678   5.730  0.2760 -0.1464  0.7711
16246TIP3    H270230   2.272   6.593   5.703 -0.0267 -0.3667  0.0948
16247TIP3   OH270231   3.076   6.135  15.363  0.0999 -0.2200 -0.0115
16247TIP3    H170232   3.004   6.071  15.365  0.0921 -0.2062  1.9208
16247TIP3    H270233   3.155   6.082  15.366  0.1122 -0.1738  0.5547
16248TIP3   OH270234   2.038   2.934   2.789 -0.5423  0.0766  0.0929
16248TIP3    H170235   2.117   2.960   2.838  0.0559 -3.2779  1.0200
16248TIP3    H270236   1.966   2.953   2.848 -0.0898 -0.6177  0.8841
16249TIP3   OH270237   1.238   6.218   5.359 -0.1149 -0.3058  0.3284
16249TIP3    H170238   1.297   6.283   5.397 -0.2382 -0.8424  1.4556
16249TIP3    H270239   1.198   6.264   5.285 -0.4796  1.0503  1.3275
16250TIP3   OH270240   0.074   1.262   2.830  0.4272 -0.4142 -0.1212
16250TIP3    H170241   0.087   1.274   2.924 -0.0651  1.1234 -0.2384
16250TIP3    H270242  -0.015   1.227   2.822 -0.3682  1.5427 -0.1318
16251TIP3   OH270243   4.154   5.726   6.471 -0.2735 -0.1189  0.2832
16251TIP3    H170244   4.193   5.806   6.507 -0.5186 -0.2702  0.8920
16251TIP3    H270245   4.121   5.752   6.385 -0.5065  0.4723  0.5496
16252TIP3   OH270246   4.117   3.083  13.691 -0.2021 -0.2000 -0.1691
16252TIP3    H170247   4.046   3.147  13.699  1.7241  2.0298 -0.3514
16252TIP3    H270248   4.179   3.106  13.761  0.3848 -2.0678 -0.0428
16253TIP3   OH270249   0.641   4.451  11.685 -0.1904  0.5423  0.1691
16253TIP3    H170250   0.600   4.500  11.613  0.3289  2.1965  1.0055
16253TIP3    H270251   0.716   4.408  11.644  0.4644  1.9703 -0.1553
16254TIP3   OH270252   0.394   4.373   1.778 -0.0885  0.5380  0.3679
16254TIP3    H170253   0.439   4.440   1.830 -1.7078  2.2428 -0.3439
16254TIP3    H270254   0.329   4.422   1.728 -1.0733 -1.5475 -0.4588
16255TIP3   OH270255   5.571   1.993   0.204 -0.1055 -0.7606 -0.0963
16255TIP3    H170256   5.586   1.902   0.178 -0.3253 -0.3254 -1.7828
16255TIP3    H270257   5.615   2.045   0.137 -3.5970  0.4258 -1.5940
16256TIP3   OH270258   5.015   2.046  15.483  0.1645  0.3381  0.2446
16256TIP3    H170259   5.109   2.034  15.491 -0.3001 -2.4728  2.5286
16256TIP3    H270260   4.989   1.985  15.413 -0.2891 -1.0553  1.5965
16257TIP3   OH270261   5.283   0.010   2.583  0.1845  0.0334  0.1225
16257TIP3    H170262   5.286   0.100   2.551  0.9610  0.5001  1.4523
16257TIP3    H270263   5.200   0.005   2.632  0.0108 -0.0482 -0.1836
16258TIP3   OH270264   4.839   0.615  10.530 -0.5857  0.1764  0.2062
16258TIP3    H170265   4.915   0.614  10.472 -0.8971 -1.7667 -0.1969
16258TIP3    H270266   4.790   0.693  10.505 -0.2247 -0.1351 -1.5093
16259TIP3   OH270267   5.934   2.321  13.980 -0.3782 -0.5486 -0.0522
16259TIP3    H170268   5.906   2.309  13.890  0.5868  1.1810 -0.6007
16259TIP3    H270269   5.906   2.241  14.025 -1.8697 -0.9209 -1.6187
16260TIP3   OH270270   3.131   3.365   3.612 -0.1634  0.0837 -0.1963
16260TIP3    H170271   3.222   3.390   3.628  0.2140 -0.9113 -0.7804
16260TIP3    H270272   3.080   3.424   3.668  0.9360 -0.5792  1.5453
16261TIP3   OH270273   4.499   0.817   4.207  0.3477  0.2454 -0.5656
16261TIP3    H170274   4.416   0.776   4.181  0.6223 -0.7492  0.1004
16261TIP3    H270275   4.482   0.852   4.294  0.7845 -0.4510 -0.1943
16262TIP3   OH270276   2.545   0.234  13.557 -0.0223  0.2793 -0.1551
16262TIP3    H170277   2.534   0.242  13.652  0.0607 -0.4740 -0.0808
16262TIP3    H270278   2.485   0.299  13.521  0.4657  1.0574  0.4299
16263TIP3   OH270279   0.323   1.257  11.968  0.4101  0.3284  0.0254
16263TIP3    H170280   0.358   1.195  11.904  0.6783  1.0530 -0.5489
16263TIP3    H270281   0.243   1.217  12.000 -1.3401  1.2540 -2.9607
16264TIP3   OH270282   3.419   2.081  12.255  0.0598  0.1765  0.0085
16264TIP3    H170283   3.422   2.126  12.340  2.6545  0.4920 -0.2045
16264TIP3    H270284   3.352   2.013  12.266 -0.1712  0.7021  2.0609
16265TIP3   OH270285   3.546   3.785  13.942  0.1777 -0.6331  0.7491
16265TIP3    H170286   3.606   3.818  13.876  0.0505 -1.8813 -0.0122
16265TIP3    H270287   3.505   3.709  13.901 -0.5837 -0.8739  1.9292
16266TIP3   OH270288   6.009   3.863  12.291 -0.0179  0.6541 -0.3434
16266TIP3    H170289   6.027   3.810  12.369 -0.6613 -0.6474 -1.0666
16266TIP3    H270290   5.946   3.811  12.241  0.4248  1.4609 -1.7574
16267TIP3   OH270291   2.522   5.541  10.005 -0.4825 -0.1599  0.1908
16267TIP3    H170292   2.576   5.593   9.946  0.6440 -2.7317 -1.1556
16267TIP3    H270293   2.584   5.480  10.047 -1.9145 -1.2532  0.7719
16268TIP3   OH270294   4.917   0.007   2.966  0.4932 -0.1920  0.0481
16268TIP3    H170295   4.830  -0.017   2.997  1.3582  0.3315  2.9989
16268TIP3    H270296   4.907   0.098   2.936 -0.1938 -0.4872 -0.6429
16269TIP3   OH270297   3.720   5.004  17.196  0.5582  0.1475  0.0929
16269TIP3    H170298   3.793   4.942  17.191 -0.2010 -0.8125  0.6101
16269TIP3    H270299   3.694   5.004  17.288  0.2629  0.8959  0.0145
16270TIP3   OH270300   0.741   6.247  14.444  0.3335  0.7687  0.1587
16270TIP3    H170301   0.830   6.257  14.478  0.2438  1.8916  0.0697
16270TIP3    H270302   0.705   6.336  14.442 -0.5602  0.4053 -0.4319
16271TIP3   OH270303   3.031   2.776  17.058 -0.0673 -0.0258 -0.3361
16271TIP3    H170304   3.075   2.859  17.037 -0.6381 -0.0103 -1.5091
16271TIP3    H270305   2.959   2.770  16.995 -2.1960  0.2638  1.9896
16272TIP3   OH270306   3.175   0.150  12.396 -0.3649 -0.0041  0.8349
16272TIP3    H170307   3.238   0.189  12.457 -0.2079  0.1420  0.5791
16272TIP3    H270308   3.191   0.195  12.313  0.3543 -1.1594  0.3326
16273TIP3   OH270309   2.413   6.376  15.241 -0.2107 -0.2602 -0.2160
16273TIP3    H170310   2.347   6.315  15.207 -0.1601 -0.4915  0.0944
16273TIP3    H270311   2.467   6.399  15.165 -1.3532  0.8360 -0.7169
16274TIP3   OH270312   4.371   2.969  15.662  0.4291 -0.3033 -0.5668
16274TIP3    H170313   4.346   2.948  15.572 -0.5770 -1.0451 -0.1275
16274TIP3    H270314   4.391   2.884  15.702  0.2199 -0.0524  0.0888
16275TIP3   OH270315   6.631   5.806  12.694 -0.6107  0.1611 -0.1838
16275TIP3    H170316   6.633   5.728  12.638 -2.6069  0.8401 -1.2291
16275TIP3    H270317   6.627   5.772  12.783 -3.2326 -0.9445 -0.7041
16276TIP3   OH270318   4.975   4.638  12.827 -0.2167  0.1850 -0.6337
16276TIP3    H170319   5.020   4.559  12.798 -1.2238 -0.5724 -0.1487
16276TIP3    H270320   4.882   4.615  12.824 -0.5244  1.3930 -0.6182
16277TIP3   OH270321   4.418   3.348  11.859 -0.0934 -0.3014  0.6240
16277TIP3    H170322   4.459   3.347  11.772  0.0128 -1.1311  0.6817
16277TIP3    H270323   4.333   3.305  11.846 -0.2929  0.0336  0.8239
16278TIP3   OH270324   5.896   0.441  15.466  0.0535  0.3359  0.2744
16278TIP3    H170325   5.951   0.519  15.457  0.9796 -0.3008  0.3134
16278TIP3    H270326   5.958   0.368  15.460 -0.7819 -0.3872  0.4381
16279TIP3   OH270327   0.277   4.866  14.004  0.2875 -0.1038  0.1075
16279TIP3    H170328   0.228   4.878  13.923  1.7038  1.9914 -0.4894
16279TIP3    H270329   0.289   4.772  14.011 -2.2896 -0.5122 -0.6270
16280TIP3   OH270330   6.717   1.067  12.501  0.0684 -0.3057 -0.3819
16280TIP3    H170331   6.699   1.143  12.447  1.2078 -1.0576 -1.8541
16280TIP3    H270332   6.811   1.072  12.519 -0.2346 -0.2387  1.2720
16281TIP3   OH270333   1.504   5.638   6.101  0.0730 -0.2755  0.1447
16281TIP3    H170334   1.584   5.591   6.125  0.0388 -0.1927  0.4279
16281TIP3    H270335   1.491   5.701   6.173 -0.7843 -0.9483  0.5911
16282TIP3   OH270336   5.290   4.427  13.805  0.4788  0.2405 -0.2028
16282TIP3    H170337   5.214   4.472  13.769 -1.3361 -0.3227  2.7593
16282TIP3    H270338   5.277   4.430  13.900  2.9058 -2.0281  0.2618
16283TIP3   OH270339   4.798   5.168  17.112 -0.5432  0.2831 -0.7308
16283TIP3    H170340   4.824   5.092  17.165  0.0332  0.9545 -0.0290
16283TIP3    H270341   4.809   5.139  17.022  2.9695  0.6009 -0.4739
16284TIP3   OH270342   0.127   4.167   3.019 -0.2555  0.1624 -0.1009
16284TIP3    H170343   0.220   4.176   2.996 -0.0955  1.1029  0.8311
16284TIP3    H270344   0.128   4.152   3.114 -1.0094 -0.9998 -0.2712
16285TIP3   OH270345   5.379   0.363   2.842 -0.2390 -0.6180  0.1097
16285TIP3    H170346   5.426   0.375   2.759 -2.2670  1.1218 -0.8442
16285TIP3    H270347   5.287   0.359   2.816 -0.9949  1.0933  2.3665
16286TIP3   OH270348   1.357   4.556  16.570 -1.1419 -0.2316  0.1551
16286TIP3    H170349   1.343   4.462  16.560  1.2614 -0.4269 -1.8513
16286TIP3    H270350   1.417   4.564  16.644  0.0988 -0.4173 -0.8188
16287TIP3   OH270351   3.890   3.022  14.967  0.0018  0.3521  0.0412
16287TIP3    H170352   3.977   3.061  14.957  1.0517 -2.3619 -2.5766
16287TIP3    H270353   3.845   3.043  14.885 -0.7372 -0.6300  0.1797
16288TIP3   OH270354   4.527   0.020  16.487  0.0829  0.2424 -0.2011
16288TIP3    H170355   4.447   0.072  16.495  0.1277  0.3017 -0.1328
16288TIP3    H270356   4.497  -0.067  16.462 -0.2197 -0.4228  2.2708
16289TIP3   OH270357   3.217   3.662   2.737 -0.0264  0.7515  0.1254
16289TIP3    H170358   3.180   3.589   2.688 -0.3245  1.4506 -0.6963
16289TIP3    H270359   3.257   3.622   2.814 -1.3413 -0.1390  0.3469
16290TIP3   OH270360   1.162   1.164  16.895  0.0656 -0.2077 -0.5169
16290TIP3    H170361   1.184   1.238  16.951 -2.3205 -1.8313  2.7584
16290TIP3    H270362   1.082   1.191  16.849  0.1566 -0.1094 -0.6144
16291TIP3   OH270363   2.529   3.781   5.357  0.0682 -0.5234  0.1241
16291TIP3    H170364   2.604   3.839   5.344  0.4750 -0.8184  1.0969
16291TIP3    H270365   2.554   3.725   5.430 -1.3920 -0.1037  0.9878
16292TIP3   OH270366   4.368   1.830   1.181 -0.4250 -0.6683  0.0097
16292TIP3    H170367   4.408   1.916   1.164 -0.2037 -0.5665  1.0460
16292TIP3    H270368   4.282   1.836   1.139  0.0282 -0.3404 -0.8982
16293TIP3   OH270369   6.416   4.583  14.653  0.3490 -0.6197 -0.6448
16293TIP3    H170370   6.347   4.594  14.718  0.7044 -1.3659 -0.1365
16293TIP3    H270371   6.451   4.671  14.639  1.3175 -0.6689  1.3202
16294TIP3   OH270372   2.402   4.444   5.137 -0.1603 -0.4766  0.1378
16294TIP3    H170373   2.470   4.500   5.100  0.9456 -0.7766  1.6830
16294TIP3    H270374   2.400   4.467   5.230  0.1813 -2.8473  0.7598
16295TIP3   OH270375   5.065   0.947  12.828  0.6232  0.3712 -0.0961
16295TIP3    H170376   4.982   0.904  12.808  1.4196 -0.4017 -1.8628
16295TIP3    H270377   5.083   0.923  12.919  0.5839 -2.2741 -0.7509
16296TIP3   OH270378   3.312   1.674  13.555  0.1657 -0.5364  0.5591
16296TIP3    H170379   3.223   1.707  13.544 -0.3818 -1.9190  0.7258
16296TIP3    H270380   3.322   1.607  13.488  0.6553 -1.2296  1.3082
16297TIP3   OH270381   6.807   5.055   4.189  0.0031  0.0703 -0.4584
16297TIP3    H170382   6.885   5.060   4.245 -0.1864 -0.0616 -0.1816
16297TIP3    H270383   6.830   4.991   4.121 -0.4409 -1.1991  0.5510
16298TIP3   OH270384   1.736   1.834   6.094  0.1885  1.2876 -0.0888
16298TIP3    H170385   1.641   1.845   6.089 -0.0523 -1.1541 -2.0366
16298TIP3    H270386   1.749   1.756   6.148  1.0483  1.3160 -0.2348
16299TIP3   OH270387   4.178   2.885  15.469 -0.3970  0.0022 -0.6496
16299TIP3    H170388   4.106   2.912  15.412 -1.0914 -2.5318 -1.0604
16299TIP3    H270389   4.226   2.821  15.417  2.7441  2.3340 -0.7270
16300TIP3   OH270390   2.633   0.109  12.288  0.3817 -0.2221 -0.3222
16300TIP3    H170391   2.662   0.104  12.197 -0.3724 -0.2158 -0.5618
16300TIP3    H270392   2.570   0.181  12.290  1.3914  0.6607  0.4794
16301TIP3   OH270393   4.151   4.672  11.724  0.5432  0.1127  0.3545
16301TIP3    H170394   4.061   4.698  11.740 -0.0686 -1.8257  0.2819
16301TIP3    H270395   4.200   4.702  11.800 -0.5962 -0.7722  1.4497
16302TIP3   OH270396   1.023   6.229  17.129  0.3560 -0.4043 -0.5202
16302TIP3    H170397   0.999   6.299  17.190 -1.5155 -1.1396 -0.3733
16302TIP3    H270398   1.110   6.201  17.157  0.5745  0.9896  0.2250
16303TIP3   OH270399   6.367   6.050  14.976 -0.5024  0.4897 -0.0813
16303TIP3    H170400   6.449   6.091  14.948  0.0254  0.6579  1.6536
16303TIP3    H270401   6.299   6.108  14.941  0.1574  0.9379 -0.6338
16304TIP3   OH270402   0.022   1.503  12.066 -0.6725 -0.6183  0.1343
16304TIP3    H170403  -0.060   1.549  12.081 -0.4029 -0.0174 -0.2209
16304TIP3    H270404   0.082   1.570  12.035  0.3126 -0.8111  1.5861
16305TIP3   OH270405   1.258   1.955   1.053  0.2760 -0.0700 -0.3222
16305TIP3    H170406   1.250   1.999   1.137  0.7060  0.2836 -0.4682
16305TIP3    H270407   1.351   1.959   1.032  0.5223 -2.1204  0.2513
16306TIP3   OH270408   2.774   2.526  16.529  0.1826  0.5496 -0.6374
16306TIP3    H170409   2.859   2.569  16.516  0.9118 -0.6347  0.1485
16306TIP3    H270410   2.736   2.522  16.441  1.5963 -0.2674 -1.2209
16307TIP3   OH270411   1.193   0.731   2.997  0.0529 -0.5472  0.6439
16307TIP3    H170412   1.265   0.673   3.022 -1.3308 -2.0603  1.1951
16307TIP3    H270413   1.138   0.735   3.074 -1.4445 -0.9100 -0.3911
16308TIP3   OH270414   3.761   3.559  14.267  0.0348 -0.5398  0.0497
16308TIP3    H170415   3.677   3.540  14.226  0.1534  0.7247 -0.7857
16308TIP3    H270416   3.739   3.607  14.347  0.0210  1.0577 -0.9019
16309TIP3   OH270417   1.694   3.062  16.453  0.5122  0.2490 -0.2527
16309TIP3    H170418   1.675   3.023  16.368  1.1916  1.1227 -0.8212
16309TIP3    H270419   1.653   3.149  16.450 -1.2289 -0.5062  1.1022
16310TIP3   OH270420   5.455   2.102   2.909  0.3692 -0.5772  0.2176
16310TIP3    H170421   5.508   2.131   2.835  1.3336 -0.5196  0.9249
16310TIP3    H270422   5.455   2.177   2.969 -1.5686 -0.0999 -0.3342
16311TIP3   OH270423   4.896   0.398  10.668  0.1167  0.3233 -0.3028
16311TIP3    H170424   4.881   0.472  10.609 -1.3022  0.5340  0.3013
16311TIP3    H270425   4.810   0.378  10.704  0.1655 -2.7123 -1.7258
16312TIP3   OH270426   5.109   5.563   4.760  0.1355  0.6520  0.0028
16312TIP3    H170427   5.123   5.644   4.710 -0.5069 -0.2443 -1.6384
16312TIP3    H270428   5.015   5.546   4.753  0.1342  0.2130  1.0515
16313TIP3   OH270429   1.241   0.840   5.503  0.1029  0.5632 -0.4295
16313TIP3    H170430   1.193   0.766   5.540 -1.0545  0.5903 -1.8411
16313TIP3    H270431   1.244   0.904   5.574  0.5578 -0.5937  0.5927
16314TIP3   OH270432   2.192   6.465   0.530  0.2851 -0.1765  0.1069
16314TIP3    H170433   2.117   6.452   0.588 -0.7061  0.7292 -0.9508
16314TIP3    H270434   2.189   6.558   0.507  1.1994 -0.3256 -0.6636
16315TIP3   OH270435   2.353   2.758   6.060  0.2770  1.1107 -0.6920
16315TIP3    H170436   2.390   2.682   6.105  1.1155  0.6912 -2.0514
16315TIP3    H270437   2.286   2.791   6.119 -0.8750 -1.3609 -0.5605
16316TIP3   OH270438   5.058   6.601   0.811  0.2776  0.2700  0.5965
16316TIP3    H170439   5.124   6.639   0.753 -0.3171 -0.9621 -0.9062
16316TIP3    H270440   4.984   6.662   0.807 -0.6883 -1.0107 -1.8430
16317TIP3   OH270441   6.509   1.134  16.020 -0.0605  0.7579  0.5110
16317TIP3    H170442   6.455   1.170  15.950  0.7530  2.1754  0.5906
16317TIP3    H270443   6.447   1.116  16.091 -0.3258  3.5680  1.0773
16318TIP3   OH270444   5.844   1.576  11.606  0.3401 -0.0791 -0.5087
16318TIP3    H170445   5.772   1.633  11.632  0.4347 -0.6640  1.0822
16318TIP3    H270446   5.923   1.627  11.623  0.4063 -0.5019  0.4809
16319TIP3   OH270447   4.910   0.851   4.069  0.2699  0.5005 -0.2549
16319TIP3    H170448   4.978   0.876   4.006  0.9304 -1.6521 -0.4143
16319TIP3    H270449   4.918   0.756   4.078 -1.9378  0.3553  0.6313
16320TIP3   OH270450   4.921   1.076  12.623  0.4936  0.2543 -0.4144
16320TIP3    H170451   5.009   1.089  12.657  1.1104  1.2486 -2.3716
16320TIP3    H270452   4.875   1.158  12.641 -0.7093 -0.9394  2.4331
16321TIP3   OH270453   4.409   6.233   5.124  0.3475 -0.0337  0.5679
16321TIP3    H170454   4.342   6.297   5.151  0.9548 -0.8752  4.3893
16321TIP3    H270455   4.370   6.148   5.145  1.1240 -0.7159 -0.7393
16322TIP3   OH270456   4.629   2.995  12.242 -0.1259  0.2866 -0.3189
16322TIP3    H170457   4.588   3.040  12.168  0.6085  0.5523 -0.5638
16322TIP3    H270458   4.591   2.907  12.241  0.6474 -0.0255 -1.6197
16323TIP3   OH270459   5.771   1.906   5.363 -0.1898  0.8282  0.8089
16323TIP3    H170460   5.761   1.968   5.291 -1.0212 -0.2857 -0.0543
16323TIP3    H270461   5.847   1.852   5.338 -0.8943  0.0025  0.4255
16324TIP3   OH270462   1.385   0.895  16.227 -0.9082  0.3713 -0.1414
16324TIP3    H170463   1.290   0.904  16.217 -0.8502  0.5523 -0.5403
16324TIP3    H270464   1.414   0.982  16.257 -1.0222 -0.0343  1.1829
16325TIP3   OH270465   6.745   2.437  16.437 -0.3933  0.1437  0.6496
16325TIP3    H170466   6.827   2.388  16.435 -0.6308 -0.2873  1.2756
16325TIP3    H270467   6.740   2.472  16.526  0.0894  1.8612  0.0208
16326TIP3   OH270468   1.265   1.767  15.461  0.0279  0.4045  0.0018
16326TIP3    H170469   1.208   1.803  15.393  0.0186 -0.0708 -0.2406
16326TIP3    H270470   1.262   1.672  15.448  1.6402  0.4281 -0.6397
16327TIP3   OH270471   0.759   2.128  12.766 -0.4841 -0.3052  0.1778
16327TIP3    H170472   0.780   2.086  12.683  0.0410 -0.7794  0.5473
16327TIP3    H270473   0.843   2.135  12.812 -0.9089 -0.9751  1.0874
16328TIP3   OH270474   1.048   0.542   5.889  0.4539  0.6088  0.5433
16328TIP3    H170475   1.075   0.460   5.929  0.3359 -0.3286 -1.2456
16328TIP3    H270476   1.025   0.598   5.963 -2.3578 -1.9596  1.7455
16329TIP3   OH270477   3.409   6.733   0.392  0.0133  0.2170  0.4548
16329TIP3    H170478   3.431   6.762   0.303  3.0214 -1.1227  0.6851
16329TIP3    H270479   3.402   6.638   0.384 -1.0125  0.2120  1.3966
16330TIP3   OH270480   3.518   4.431  11.939  0.0672 -0.3073  0.0907
16330TIP3    H170481   3.572   4.474  12.006 -0.3996 -1.1618  1.0297
16330TIP3    H270482   3.506   4.498  11.872  3.1161 -0.4007 -0.6259
16331TIP3   OH270483   3.411   4.788   4.043 -0.3778  0.0187 -0.1833
16331TIP3    H170484   3.475   4.766   3.975  0.2026 -1.2757  0.7553
16331TIP3    H270485   3.439   4.873   4.075  2.0364 -1.3388  1.4901
16332TIP3   OH270486   6.515   2.355  12.355  0.7020  0.0653  0.4067
16332TIP3    H170487   6.590   2.336  12.412 -0.1247 -1.1947  1.1116
16332TIP3    H270488   6.511   2.281  12.295  0.0504  0.1277  0.3660
16333TIP3   OH270489   5.324   1.939   0.319 -0.3724  0.1985 -0.3784
16333TIP3    H170490   5.406   1.970   0.282  0.1885  0.4612  1.0675
16333TIP3    H270491   5.342   1.925   0.412 -1.3786 -1.7623 -0.4338
16334TIP3   OH270492   2.307   5.503  16.952  0.4260 -0.3183 -0.1517
16334TIP3    H170493   2.298   5.552  17.033 -1.6069 -0.4913 -0.2321
16334TIP3    H270494   2.303   5.569  16.883  1.3391 -0.2497 -0.1420
16335TIP3   OH270495   4.887   5.522  14.248  0.9582 -0.7785  0.2652
16335TIP3    H170496   4.954   5.542  14.313 -0.1547 -0.5431  1.3463
16335TIP3    H270497   4.882   5.427  14.247  1.8761 -0.8356 -0.4233
16336TIP3   OH270498   4.570   6.814  11.255 -0.0054  0.8454 -0.0520
16336TIP3    H170499   4.589   6.877  11.186 -0.7882  2.0439  0.8063
16336TIP3    H270500   4.477   6.824  11.273 -0.0111 -0.1203  0.5231
16337TIP3   OH270501   4.835   5.509  15.496 -0.4160 -0.1231 -0.3903
16337TIP3    H170502   4.820   5.576  15.562 -0.8862 -1.7916  1.2711
16337TIP3    H270503   4.928   5.516  15.474 -0.0179 -0.2048  1.2197
16338TIP3   OH270504   5.023   6.345   2.959 -0.2609 -0.0924 -0.4739
16338TIP3    H170505   4.935   6.377   2.980 -0.1375 -0.3180  0.3955
16338TIP3    H270506   5.078   6.423   2.958 -0.3129 -0.0550 -0.2153
16339TIP3   OH270507   4.601   0.141   2.687 -0.3670  0.1871  0.0373
16339TIP3    H170508   4.572   0.184   2.607  0.9123  0.6649 -0.1946
16339TIP3    H270509   4.661   0.073   2.657 -1.9748 -1.4464  0.4372
16340TIP3   OH270510   0.084   4.180  15.524  0.1096 -0.7671 -0.7998
16340TIP3    H170511   0.101   4.089  15.550 -0.7657 -0.8611 -0.5337
16340TIP3    H270512   0.123   4.232  15.594 -2.5141 -1.0267  0.9234
16341TIP3   OH270513   5.729   1.083   5.210  0.1157 -0.0544  0.1944
16341TIP3    H170514   5.684   1.055   5.130  3.5027  0.1316 -1.9144
16341TIP3    H270515   5.768   1.003   5.245  0.3793  0.1973  0.4782
16342TIP3   OH270516   1.151   5.695   0.348 -0.0063  0.0089 -0.4801
16342TIP3    H170517   1.093   5.738   0.285  0.7101 -0.3240 -1.3776
16342TIP3    H270518   1.227   5.669   0.296  1.1534  0.8462  0.7613
16343TIP3   OH270519   6.258   6.232  15.967  0.0295 -0.1265  0.6269
16343TIP3    H170520   6.250   6.249  15.874 -0.8833  2.4174  1.1441
16343TIP3    H270521   6.352   6.221  15.982  0.6811  3.9404  0.1023
16344TIP3   OH270522   0.227   2.218  13.323 -0.3639 -0.1139  0.2239
16344TIP3    H170523   0.158   2.157  13.348  0.3791 -1.8439 -1.7838
16344TIP3    H270524   0.213   2.233  13.229  1.5209  0.1089 -0.0538
16345TIP3   OH270525   2.052   4.706   4.150 -0.3354  0.2002  0.1217
16345TIP3    H170526   2.116   4.674   4.086 -0.6063 -0.2522  0.0788
16345TIP3    H270527   1.980   4.643   4.146 -0.4091  0.2448  0.7816
16346TIP3   OH270528   1.565   5.520   2.608 -0.3218 -0.3739 -0.0861
16346TIP3    H170529   1.519   5.514   2.525 -1.3693  0.6054  0.4135
16346TIP3    H270530   1.499   5.549   2.671  0.6982 -0.0776  0.8798
16347TIP3   OH270531   3.036   2.627  13.434 -0.3155  0.5698  0.3755
16347TIP3    H170532   3.003   2.542  13.406  1.4899  0.3703 -1.2291
16347TIP3    H270533   3.087   2.609  13.513  0.0973  0.1686  0.0122
16348TIP3   OH270534   1.402   5.948  11.960  0.0250  0.3759 -0.3724
16348TIP3    H170535   1.334   6.003  11.921  2.5432  2.5401 -1.8548
16348TIP3    H270536   1.448   6.006  12.020  1.4604 -0.6618 -0.4542
16349TIP3   OH270537   4.786   3.601  14.291  0.2609 -0.1978 -0.0987
16349TIP3    H170538   4.781   3.682  14.239  2.3055  0.5218  0.7576
16349TIP3    H270539   4.803   3.631  14.380  2.2060 -1.5848  0.0427
16350TIP3   OH270540   5.696   5.779   1.335 -0.5032 -0.3047  0.6387
16350TIP3    H170541   5.635   5.822   1.276 -0.3468 -1.4200 -0.3496
16350TIP3    H270542   5.657   5.693   1.353  0.6631 -0.9637  0.1300
16351TIP3   OH270543   6.455   5.205   1.543 -0.0935  0.4973 -0.3151
16351TIP3    H170544   6.409   5.175   1.465  0.8718 -1.6288 -0.0772
16351TIP3    H270545   6.546   5.181   1.528  0.1782  0.5014  1.2668
16352TIP3   OH270546   1.616   3.112   3.692 -0.0373  0.1788  0.1052
16352TIP3    H170547   1.692   3.071   3.734  1.3453  2.4565 -0.0948
16352TIP3    H270548   1.573   3.161   3.763 -0.3800  0.2111 -0.1262
16353TIP3   OH270549   0.889   0.287  13.192 -0.0737 -0.9389  0.0435
16353TIP3    H170550   0.972   0.275  13.146  1.2048 -0.0885  2.0895
16353TIP3    H270551   0.893   0.228  13.267 -0.8777 -0.1360  0.7388
16354TIP3   OH270552   2.817   3.040  12.125  0.7136  0.0150 -0.4010
16354TIP3    H170553   2.905   3.055  12.091  0.7926 -0.8159 -0.5660
16354TIP3    H270554   2.805   3.109  12.190  1.4735  0.1625 -0.4087
16355TIP3   OH270555   2.218   6.718  12.117  0.6293  0.7760 -0.8200
16355TIP3    H170556   2.310   6.694  12.110  0.8932  1.3104  0.6906
16355TIP3    H270557   2.201   6.722  12.211 -0.3592  2.8328 -1.0511
16356TIP3   OH270558   6.488   4.693   2.539  0.0697 -0.0040 -0.3993
16356TIP3    H170559   6.393   4.690   2.545  0.2074 -0.4188  2.2436
16356TIP3    H270560   6.510   4.786   2.547 -0.1399  0.1557 -1.6525
16357TIP3   OH270561   1.975   0.989  13.747  0.6860  0.7598  0.3283
16357TIP3    H170562   2.002   1.069  13.790  0.0313  1.8092 -1.1755
16357TIP3    H270563   2.014   0.993  13.660  1.1573 -0.8533  0.4365
16358TIP3   OH270564   1.410   0.794   3.782 -0.5135  0.6440  0.0369
16358TIP3    H170565   1.353   0.858   3.824  1.8640  2.8206  0.0131
16358TIP3    H270566   1.498   0.829   3.791  0.7092 -1.9144 -1.2729
16359TIP3   OH270567   6.149   1.978  15.659 -0.2395 -0.1677 -0.5691
16359TIP3    H170568   6.126   1.964  15.567 -2.8670 -0.1501  0.0426
16359TIP3    H270569   6.138   2.073  15.672  0.7377 -0.0740 -0.3736
16360TIP3   OH270570   2.815   4.049   5.903 -0.6585 -0.1843 -0.1321
16360TIP3    H170571   2.754   4.104   5.953 -0.4998 -1.6498  1.7296
16360TIP3    H270572   2.901   4.067   5.940 -0.4739 -0.9645 -0.1603
16361TIP3   OH270573   5.322   4.297  14.800  0.0590  0.1684  0.3670
16361TIP3    H170574   5.410   4.262  14.816  0.1990  0.4181  0.1382
16361TIP3    H270575   5.289   4.318  14.888 -1.0586 -2.9879  0.7655
16362TIP3   OH270576   4.765   3.175  12.392  0.3502 -0.0715 -0.1051
16362TIP3    H170577   4.852   3.189  12.354  0.0756 -1.4343 -1.2912
16362TIP3    H270578   4.726   3.106  12.337 -1.3512  0.3065  0.6076
16363TIP3   OH270579   0.124   1.512   5.480 -0.4931 -0.1714  0.6769
16363TIP3    H170580   0.199   1.482   5.429 -0.3101  0.1207  0.7717
16363TIP3    H270581   0.072   1.562   5.417 -0.2586  0.2036  0.7778
16364TIP3   OH270582   3.991   4.837   3.836  0.1317  0.3894  0.4821
16364TIP3    H170583   4.061   4.811   3.776 -1.4432  0.3106 -1.3672
16364TIP3    H270584   4.031   4.834   3.922  2.7077  1.3167 -0.6302
16365TIP3   OH270585   2.277   2.115   1.128 -0.5729  0.4878  0.4138
16365TIP3    H170586   2.330   2.097   1.051  1.3405  0.5351  1.6706
16365TIP3    H270587   2.251   2.207   1.118 -1.8137 -0.0007 -1.0079
16366TIP3   OH270588   2.747   3.077   4.098  0.5291 -0.7782  0.1003
16366TIP3    H170589   2.691   3.143   4.139  1.6231  0.5245 -0.4650
16366TIP3    H270590   2.760   3.012   4.167  1.6341  0.9444  1.5739
16367TIP3   OH270591   6.302   5.317   2.463  0.5985 -0.1099 -0.1090
16367TIP3    H170592   6.233   5.283   2.406  1.2403 -0.7319 -0.5221
16367TIP3    H270593   6.320   5.404   2.429  1.4903 -0.7567 -1.3276
16368TIP3   OH270594   0.458   3.787  17.200 -0.0535  0.0917  0.0580
16368TIP3    H170595   0.375   3.824  17.231  0.5233  0.7507  0.8386
16368TIP3    H270596   0.467   3.704  17.248 -0.8275 -0.5629 -0.9039
16369TIP3   OH270597   0.381   4.047   4.668 -0.3036 -0.3648  0.5184
16369TIP3    H170598   0.301   4.034   4.618  0.4989  1.3901 -1.3125
16369TIP3    H270599   0.383   4.141   4.687  0.4159 -0.6841  2.1442
16370TIP3   OH270600   3.801   3.182  14.639 -0.1991  0.1137  0.3531
16370TIP3    H170601   3.717   3.195  14.684  0.4505  0.2838  1.5371
16370TIP3    H270602   3.833   3.099  14.672  0.9671  0.9311  1.3108
16371TIP3   OH270603   4.616   2.726  12.636  0.2518 -0.2090 -0.0354
16371TIP3    H170604   4.528   2.688  12.636  0.8115 -1.5227  0.3358
16371TIP3    H270605   4.672   2.657  12.673  1.6728  0.0528 -1.6538
16372TIP3   OH270606   0.996   3.764   0.660  0.6174 -0.0458  0.3232
16372TIP3    H170607   1.016   3.681   0.705  3.2912  0.5848  0.3676
16372TIP3    H270608   1.046   3.760   0.579  1.4627  1.8919  0.7312
16373TIP3   OH270609   1.249   5.498  16.510 -0.2651  0.6046 -0.0018
16373TIP3    H170610   1.181   5.555  16.477 -1.1853 -0.1669  0.5284
16373TIP3    H270611   1.231   5.489  16.603 -0.1938 -0.6137 -0.0867
16374TIP3   OH270612   4.393   5.135  12.886  0.4295 -0.4825  0.4020
16374TIP3    H170613   4.487   5.116  12.890  0.4873 -0.2413  0.1530
16374TIP3    H270614   4.360   5.112  12.973  0.9706  0.8235  0.9504
16375TIP3   OH270615   0.864   4.364   0.573  0.1560 -0.4538 -0.1996
16375TIP3    H170616   0.871   4.290   0.634 -0.7049 -1.8429 -1.7486
16375TIP3    H270617   0.794   4.418   0.609  0.7096 -0.4373  0.8795
16376TIP3   OH270618   3.853   6.510  16.033 -0.0813  0.1575 -0.2405
16376TIP3    H170619   3.902   6.566  15.974 -0.2862  0.3381 -0.2396
16376TIP3    H270620   3.784   6.472  15.978 -1.3004  1.6223  0.2511
16377TIP3   OH270621   4.100   3.637  16.725 -0.5910  0.4271  0.1645
16377TIP3    H170622   4.018   3.664  16.764  0.2575  0.2571  2.1194
16377TIP3    H270623   4.079   3.557  16.677 -1.4017 -0.0532  1.3130
16378TIP3   OH270624   3.479   0.570   2.429  0.5589 -0.1094  0.1966
16378TIP3    H170625   3.566   0.544   2.398  0.9067 -1.5664  2.3041
16378TIP3    H270626   3.496   0.641   2.491  0.4694 -1.9069  2.3305
16379TIP3   OH270627   6.249   5.823  16.087  0.1440  0.2820  0.3090
16379TIP3    H170628   6.203   5.906  16.077 -0.4783  0.1300  1.8139
16379TIP3    H270629   6.309   5.820  16.012 -0.3872  1.7113 -0.1945
16380TIP3   OH270630   6.071   5.988  15.242 -0.0086 -0.3121  0.1178
16380TIP3    H170631   6.144   5.973  15.182 -0.0835 -0.2619  0.0142
16380TIP3    H270632   5.997   6.006  15.185  0.4655  2.2732  0.2585
16381TIP3   OH270633   6.089   2.855  14.800  0.4935  0.5847  0.3110
16381TIP3    H170634   6.116   2.851  14.892 -3.4848 -1.6372  1.4843
16381TIP3    H270635   6.132   2.780  14.759 -1.3314 -1.1083  1.4412
16382TIP3   OH270636   0.016   1.278   3.103 -0.0389  0.7525  0.0662
16382TIP3    H170637   0.029   1.193   3.144 -0.0261  0.9986  0.5728
16382TIP3    H270638   0.006   1.339   3.176 -1.0344  1.0355 -0.2943
16383TIP3   OH270639   4.701   4.493  16.460 -0.3094 -0.0591  0.2257
16383TIP3    H170640   4.767   4.430  16.432 -0.4102 -0.0041 -0.1306
16383TIP3    H270641   4.750   4.575  16.470 -0.1882 -0.1802  0.6479
16384TIP3   OH270642   5.611   2.655   4.232 -0.1431 -0.6189  0.0028
16384TIP3    H170643   5.685   2.666   4.172 -1.1657  0.5643 -1.0649
16384TIP3    H270644   5.625   2.721   4.300 -1.4015  1.1084 -1.4125
16385TIP3   OH270645   5.331   0.244  11.906  0.4185 -0.1822 -0.1732
16385TIP3    H170646   5.393   0.300  11.953  0.7208  1.0274 -1.9845
16385TIP3    H270647   5.362   0.243  11.816 -1.7445 -0.1758 -0.9597
16386TIP3   OH270648   0.009   6.292  14.827  0.5229  0.0159 -0.3583
16386TIP3    H170649  -0.012   6.362  14.765 -0.1024 -1.9255 -2.4120
16386TIP3    H270650  -0.009   6.329  14.913 -1.3193  1.8629 -1.5076
16387TIP3   OH270651   3.434   2.429   0.718  0.2185  0.5720  0.0262
16387TIP3    H170652   3.342   2.431   0.693  0.1496 -1.3092  0.0906
16387TIP3    H270653   3.470   2.511   0.685 -0.6090 -0.3800 -3.3720
16388TIP3   OH270654   0.791   4.948  16.069 -0.1366  0.0144 -0.2542
16388TIP3    H170655   0.733   4.987  16.004 -0.5310  2.5984  1.5417
16388TIP3    H270656   0.843   4.884  16.021 -1.5108  0.7292 -2.7501
16389TIP3   OH270657   5.876   5.648   3.936  0.5333  0.4442 -0.3564
16389TIP3    H170658   5.915   5.732   3.913  1.4355 -0.2527 -1.3838
16389TIP3    H270659   5.875   5.598   3.855 -0.0256 -0.5423  0.2382
16390TIP3   OH270660   4.336   1.509  17.153  0.5291 -0.0257 -0.0567
16390TIP3    H170661   4.352   1.426  17.197  2.6797  0.1950 -0.3773
16390TIP3    H270662   4.325   1.572  17.224  0.6326 -0.2787  0.1835
16391TIP3   OH270663   0.265   1.081  13.158 -0.2800  0.3784  0.6620
16391TIP3    H170664   0.339   1.032  13.194 -0.1491  0.1972  0.1435
16391TIP3    H270665   0.190   1.025  13.172 -0.0167 -0.3164 -0.6293
16392TIP3   OH270666   4.505   2.471  16.863  0.5629  0.0934  0.3596
16392TIP3    H170667   4.599   2.453  16.853  0.7887 -0.1088  2.6021
16392TIP3    H270668   4.499   2.567  16.864  0.8813  0.1067  1.3193
16393TIP3   OH270669   6.065   4.309   0.921 -0.2020  0.3977 -0.2841
16393TIP3    H170670   6.045   4.244   0.989 -1.0756 -0.0743 -0.9836
16393TIP3    H270671   6.160   4.322   0.928 -0.1220 -0.4474  0.3236
16394TIP3   OH270672   2.266   2.121  12.235  0.2110  0.0544  0.2681
16394TIP3    H170673   2.311   2.050  12.280  1.6665 -0.0041 -1.2187
16394TIP3    H270674   2.233   2.082  12.154  2.9304  1.5011 -1.6340
16395TIP3   OH270675   6.702   6.297  14.087 -0.0620  0.5162  0.6781
16395TIP3    H170676   6.662   6.245  14.156  0.9031 -0.6817  0.3593
16395TIP3    H270677   6.755   6.362  14.132 -0.5404  0.6240  1.0779
16396TIP3   OH270678   2.488   2.784   2.696  0.6231 -0.1530 -0.1141
16396TIP3    H170679   2.475   2.803   2.788  0.1147  1.8457 -0.5769
16396TIP3    H270680   2.578   2.813   2.678  0.1446  1.0259 -0.6291
16397TIP3   OH270681   3.770   1.980  16.699  0.2612 -0.0603 -0.2688
16397TIP3    H170682   3.859   1.989  16.730  0.7024 -0.5786 -1.3381
16397TIP3    H270683   3.727   2.062  16.724  1.6295  1.1219 -1.6503
16398TIP3   OH270684   3.224   3.154   3.480 -0.5095 -0.4041 -0.3599
16398TIP3    H170685   3.166   3.224   3.510 -0.0178  0.2599 -0.9339
16398TIP3    H270686   3.256   3.114   3.560  0.8156  1.3805  0.0349
16399TIP3   OH270687   5.027   1.888  14.017 -0.3951  0.4351 -0.2024
16399TIP3    H170688   4.949   1.849  14.057  0.3676 -0.6625  0.2482
16399TIP3    H270689   5.033   1.847  13.930  0.0086  0.0458  0.0017
16400TIP3   OH270690   4.621   1.510  16.771  0.1991 -0.0264 -0.3288
16400TIP3    H170691   4.655   1.532  16.857 -0.1951 -0.6478 -0.0097
16400TIP3    H270692   4.692   1.533  16.711 -0.2565  2.1984 -0.0397
16401TIP3   OH270693   5.553   0.014  13.259 -0.0258  0.2322  0.4995
16401TIP3    H170694   5.588   0.060  13.183 -0.3320 -2.0543 -1.0499
16401TIP3    H270695   5.624   0.017  13.324  1.1351  0.0923 -0.7506
16402TIP3   OH270696   1.878   0.451  16.510 -0.0527  0.5262  0.2370
16402TIP3    H170697   1.840   0.394  16.577  0.9176  0.0697  0.4048
16402TIP3    H270698   1.910   0.390  16.443 -1.0100  0.9807 -0.6389
16403TIP3   OH270699   2.555   0.370  12.654 -0.1981  0.4371  0.3812
16403TIP3    H170700   2.615   0.443  12.642  0.4636 -0.2519 -0.5764
16403TIP3    H270701   2.605   0.293  12.627 -1.3391 -0.2003  0.0387
16404TIP3   OH270702   1.835   2.955  15.670 -0.4638  0.3262  0.0672
16404TIP3    H170703   1.897   3.000  15.612 -1.6122  2.1764  0.2250
16404TIP3    H270704   1.810   3.021  15.735  0.2985 -1.5137  2.3182
16405TIP3   OH270705   2.446   0.290   2.057 -0.5243  0.4302 -0.2050
16405TIP3    H170706   2.517   0.300   1.993 -2.2222 -0.9554 -2.3897
16405TIP3    H270707   2.430   0.378   2.090  0.8320  1.0668 -1.1908
16406TIP3   OH270708   0.729   0.632   5.838 -0.0609 -0.0543 -0.3236
16406TIP3    H170709   0.638   0.619   5.813 -0.4076 -0.1011  0.9264
16406TIP3    H270710   0.771   0.665   5.759 -1.4942  1.4434 -0.4748
16407TIP3   OH270711   4.895   0.558   4.038  1.1887  0.6883  0.0060
16407TIP3    H170712   4.850   0.484   3.996 -0.0257  2.1568 -1.3468
16407TIP3    H270713   4.987   0.534   4.036  0.6143 -1.9325  1.9090
16408TIP3   OH270714   0.130   3.434   0.206  0.2421 -0.0350 -0.1892
16408TIP3    H170715   0.175   3.479   0.278 -0.8187 -0.1680  0.5584
16408TIP3    H270716   0.164   3.345   0.209  1.0613  0.2608 -0.5856
16409TIP3   OH270717   0.564   6.628   3.193 -0.1715  0.1095  0.4390
16409TIP3    H170718   0.496   6.574   3.234  0.1794  0.7249  1.8402
16409TIP3    H270719   0.552   6.613   3.099 -2.1925  0.1521  0.6659
16410TIP3   OH270720   3.527   3.615   0.061 -0.1873  0.4803  0.5761
16410TIP3    H170721   3.505   3.587   0.150 -1.1990 -2.4732 -0.5595
16410TIP3    H270722   3.442   3.635   0.021  0.1154 -0.0360 -0.3203
16411TIP3   OH270723   2.919   6.439  12.570 -0.0298 -0.6790  0.1808
16411TIP3    H170724   2.965   6.450  12.654  2.0317 -0.0690 -0.9966
16411TIP3    H270725   2.882   6.525  12.551  0.6092 -0.4766 -0.1592
16412TIP3   OH270726   3.188   2.306   4.124 -0.0838  0.2336 -0.5037
16412TIP3    H170727   3.157   2.241   4.061  0.1012 -0.4795  0.1312
16412TIP3    H270728   3.279   2.282   4.140 -0.1995  0.2669  0.2145
16413TIP3   OH270729   1.448   5.509  10.121 -0.2138 -0.2447  0.2487
16413TIP3    H170730   1.418   5.595  10.150  0.7354  0.3600 -0.5360
16413TIP3    H270731   1.539   5.504  10.151 -0.3779 -1.1271  0.6160
16414TIP3   OH270732   4.453   0.581  12.242  0.1248  0.6358  0.0916
16414TIP3    H170733   4.473   0.557  12.332 -1.6220 -0.7825  0.1214
16414TIP3    H270734   4.378   0.527  12.218 -0.3327  2.0096 -1.7457
16415TIP3   OH270735   0.613   6.213   1.632 -0.2832  0.4334  0.1840
16415TIP3    H170736   0.579   6.265   1.558  0.8032  1.4698  0.4017
16415TIP3    H270737   0.632   6.128   1.594 -1.6659  0.3078 -0.2841
16416TIP3   OH270738   1.451   5.287  16.069  0.7080 -0.2512  0.2814
16416TIP3    H170739   1.396   5.209  16.064 -0.6119  0.7150 -0.5281
16416TIP3    H270740   1.447   5.313  16.161  0.0091 -0.3278  0.2750
16417TIP3   OH270741   0.191   3.633  12.662 -0.3381  0.6305  0.7795
16417TIP3    H170742   0.173   3.541  12.643  1.4918  0.1546  1.2893
16417TIP3    H270743   0.199   3.637  12.757 -2.3944  1.7037  0.9316
16418TIP3   OH270744   4.432   6.440  16.083 -0.6255  0.2927 -0.1344
16418TIP3    H170745   4.347   6.431  16.040 -1.4478  1.6894  1.1635
16418TIP3    H270746   4.430   6.526  16.124 -0.0444 -1.1201  3.0397
16419TIP3   OH270747   4.653   1.080   2.132  0.3030  0.6215 -0.1646
16419TIP3    H170748   4.601   1.012   2.090 -0.9072  0.4936  1.5040
16419TIP3    H270749   4.715   1.032   2.187 -0.5559  0.8581  1.0179
16420TIP3   OH270750   6.674   3.590  14.630  0.7385  0.0848 -0.7195
16420TIP3    H170751   6.597   3.547  14.668 -0.2264  0.5013 -2.1787
16420TIP3    H270752   6.643   3.675  14.602  2.1922  0.9973  0.3582
16421TIP3   OH270753   0.715   2.814   0.007  0.2373 -0.3310 -0.7749
16421TIP3    H170754   0.738   2.762   0.084  0.7623  0.8930 -0.0824
16421TIP3    H270755   0.647   2.764  -0.037 -0.5958 -0.6953  0.8919
16422TIP3   OH270756   3.807   3.221   2.605  0.1082 -0.1259 -0.3556
16422TIP3    H170757   3.763   3.220   2.690 -1.0222 -0.0513 -0.9344
16422TIP3    H270758   3.744   3.183   2.545  1.7612 -2.2750 -0.7791
16423TIP3   OH270759   0.160   1.718   6.016  0.3618 -0.1649 -0.1997
16423TIP3    H170760   0.169   1.726   5.921  0.0283  0.8675 -0.1519
16423TIP3    H270761   0.157   1.623   6.032 -0.6539 -0.3336 -1.3172
16424TIP3   OH270762   2.737   5.046  16.258  0.1384  0.3345  0.7326
16424TIP3    H170763   2.772   5.130  16.290 -1.5888  1.1601  0.5182
16424TIP3    H270764   2.723   4.995  16.337  0.0645  0.6959  0.9568
16425TIP3   OH270765   2.620   1.247   3.517 -0.5720  0.3298 -0.4120
16425TIP3    H170766   2.578   1.202   3.443 -0.7234 -0.5131  0.1834
16425TIP3    H270767   2.663   1.323   3.477 -0.3246 -0.3322 -1.4280
16426TIP3   OH270768   3.550   5.865   3.484 -0.7274 -0.6700  0.7017
16426TIP3    H170769   3.601   5.813   3.422 -1.5450 -2.0953  1.2007
16426TIP3    H270770   3.608   5.876   3.559  0.8418  2.3771 -0.8787
16427TIP3   OH270771   2.444   1.533   1.639  0.5452 -0.0322 -0.1310
16427TIP3    H170772   2.360   1.500   1.669  0.6546  1.0814  1.4381
16427TIP3    H270773   2.508   1.467   1.668  0.5018  0.3919  0.9207
16428TIP3   OH270774   1.435   2.763  12.409 -0.7369  0.0690  0.4518
16428TIP3    H170775   1.467   2.727  12.326 -0.4563  3.1035 -0.8186
16428TIP3    H270776   1.510   2.758  12.467 -0.0045  0.7059 -0.4165
16429TIP3   OH270777   6.579   6.214   2.548  0.3003 -0.4015  0.4040
16429TIP3    H170778   6.624   6.178   2.472  0.8265  0.0152  0.5087
16429TIP3    H270779   6.492   6.175   2.547  0.2578 -0.2748 -0.4952
16430TIP3   OH270780   3.936   3.029  11.863  0.5845  0.3525  0.6086
16430TIP3    H170781   3.945   3.123  11.877  0.5827  0.5867 -0.8503
16430TIP3    H270782   3.841   3.014  11.862  0.5575  0.5560 -0.4695
16431TIP3   OH270783   6.632   6.768  11.653 -0.1219  0.0463 -0.4584
16431TIP3    H170784   6.591   6.748  11.569 -0.8612  1.3843 -0.4338
16431TIP3    H270785   6.623   6.863  11.662 -0.5379 -0.1374  1.3715
16432TIP3   OH270786   6.737   4.392   3.570  0.1515  0.0226  0.0548
16432TIP3    H170787   6.793   4.425   3.640 -0.9653  1.0657  0.4657
16432TIP3    H270788   6.798   4.366   3.501  1.1793  0.3590  0.8304
16433TIP3   OH270789   5.269   1.458   5.943 -0.1832  0.4372 -0.9005
16433TIP3    H170790   5.249   1.395   6.012  0.2404  0.7570 -0.4857
16433TIP3    H270791   5.190   1.459   5.888 -0.6332  0.4031 -0.2598
16434TIP3   OH270792   0.704   1.062   6.507  0.1697 -0.5671  0.9070
16434TIP3    H170793   0.703   1.121   6.582  0.5412 -0.2160  0.6333
16434TIP3    H270794   0.795   1.035   6.499  0.3559  0.3590 -0.1784
16435TIP3   OH270795   0.431   0.219   5.993  0.8098  0.4008 -0.2260
16435TIP3    H170796   0.345   0.204   6.034 -0.3489  1.8378 -2.0321
16435TIP3    H270797   0.461   0.302   6.031  1.2588  0.0615  0.1628
16436TIP3   OH270798   4.111   5.518   2.507 -0.2346 -0.5025 -0.4272
16436TIP3    H170799   4.134   5.598   2.554 -1.3320 -0.4612  0.0595
16436TIP3    H270800   4.031   5.487   2.551  1.3126 -2.9753  0.7389
16437TIP3   OH270801   2.047   2.460  12.817 -0.6867  0.2809 -0.5847
16437TIP3    H170802   2.030   2.416  12.900  0.6362 -0.1991 -0.5488
16437TIP3    H270803   2.101   2.536  12.840 -2.4314  1.5883 -0.7200
16438TIP3   OH270804   0.085   2.155  15.927 -0.0684 -0.1815 -0.1837
16438TIP3    H170805   0.108   2.065  15.903 -0.7210 -1.0504  2.3819
16438TIP3    H270806   0.067   2.198  15.843  0.4026 -2.3880 -1.4457
16439TIP3   OH270807   0.256   0.674  11.638  0.3362 -0.1915  0.5789
16439TIP3    H170808   0.283   0.604  11.579  2.1786  0.4970  0.5612
16439TIP3    H270809   0.234   0.630  11.720 -0.5861 -0.9789 -0.0801
16440TIP3   OH270810   2.061   1.567  16.202  0.4371 -0.7060 -0.2369
16440TIP3    H170811   2.087   1.623  16.275 -2.3285  0.4743 -0.1080
16440TIP3    H270812   2.007   1.623  16.146  0.6710 -2.2180 -2.0367
16441TIP3   OH270813   1.472   1.779  15.170  0.3701  0.4031 -0.1822
16441TIP3    H170814   1.552   1.744  15.133  0.3964  0.6458 -0.3607
16441TIP3    H270815   1.485   1.777  15.265  0.7755  0.8870 -0.2268
16442TIP3   OH270816   3.955   5.912   4.721 -0.8798 -0.3411  0.0897
16442TIP3    H170817   3.911   5.833   4.751 -1.5172  1.2524  3.6881
16442TIP3    H270818   4.045   5.902   4.752 -0.7035 -0.1164 -0.3457
16443TIP3   OH270819   3.044   3.967   2.392 -0.0706 -0.2477  0.2185
16443TIP3    H170820   3.019   4.055   2.421 -1.8518 -0.9162  0.8192
16443TIP3    H270821   3.040   3.913   2.471  1.4541 -0.7761 -0.0598
16444TIP3   OH270822   1.842   4.448   5.599 -0.1999 -0.2719  0.2494
16444TIP3    H170823   1.817   4.426   5.689 -0.2785 -2.0481 -0.1819
16444TIP3    H270824   1.846   4.363   5.555 -0.6179  0.6223 -1.5361
16445TIP3   OH270825   3.038   4.375   3.916 -0.5797 -0.4614 -0.2393
16445TIP3    H170826   2.984   4.454   3.916 -0.5227 -0.3848 -2.4871
16445TIP3    H270827   3.110   4.395   3.855  0.4992 -1.5441  0.6381
16446TIP3   OH270828   0.194   6.638   3.125 -0.0266  0.6897 -0.1034
16446TIP3    H170829   0.167   6.647   3.216  0.9027 -0.4704  0.3064
16446TIP3    H270830   0.165   6.551   3.099 -0.3842  1.0546 -0.9525
16447TIP3   OH270831   0.961   6.579  12.535 -0.7680 -0.0920 -0.1377
16447TIP3    H170832   0.950   6.662  12.488  0.6522 -0.8505 -1.8696
16447TIP3    H270833   0.965   6.604  12.627  0.3689  1.8472 -0.6798
16448TIP3   OH270834   3.311   5.496  15.730  0.0879  0.1368 -0.0982
16448TIP3    H170835   3.341   5.581  15.696 -2.0668  0.8575 -0.3082
16448TIP3    H270836   3.336   5.433  15.663 -0.7360  1.0146 -1.2532
16449TIP3   OH270837   1.863   1.959   4.605 -0.0168  0.2835 -0.0804
16449TIP3    H170838   1.928   1.926   4.543 -1.6197 -2.5796 -0.3251
16449TIP3    H270839   1.915   1.996   4.677  1.8515 -0.0119 -1.2357
16450TIP3   OH270840   6.013   5.004  16.938 -0.1249 -0.0803  0.1687
16450TIP3    H170841   5.987   5.002  16.846 -0.2888 -0.4725  0.2229
16450TIP3    H270842   6.017   5.097  16.960  3.4606  0.1564 -1.2192
16451TIP3   OH270843   1.280   5.698   1.063 -0.3829 -0.3009 -0.7412
16451TIP3    H170844   1.189   5.718   1.084 -0.1416  0.4824 -0.4292
16451TIP3    H270845   1.290   5.724   0.972 -0.4138 -0.1968 -0.7147
16452TIP3   OH270846   1.562   3.697  11.980 -0.4586 -0.0671 -0.1770
16452TIP3    H170847   1.544   3.644  11.902 -0.6836 -0.7851  0.3529
16452TIP3    H270848   1.492   3.673  12.041  0.3081 -0.2829  0.6284
16453TIP3   OH270849   6.756   0.313   4.995 -0.4118 -0.1037 -0.1179
16453TIP3    H170850   6.814   0.286   4.924  1.0658  0.1074  0.9862
16453TIP3    H270851   6.777   0.404   5.012 -1.8613  0.3114 -0.4475
16454TIP3   OH270852   4.591   4.617   5.435  0.2302  0.3280  1.1425
16454TIP3    H170853   4.522   4.551   5.431 -0.9887  1.6245  0.5492
16454TIP3    H270854   4.649   4.596   5.361  0.2187 -0.4693  1.3538
16455TIP3   OH270855   3.335   4.763  15.232 -0.1983  0.2420  0.1696
16455TIP3    H170856   3.358   4.817  15.307  0.2943  1.1538 -0.6358
16455TIP3    H270857   3.240   4.770  15.225 -0.0521  1.7714 -0.5017
16456TIP3   OH270858   5.809   6.544  15.300  0.0146 -0.0501 -0.0417
16456TIP3    H170859   5.728   6.494  15.291  0.1389 -0.5274  1.3341
16456TIP3    H270860   5.846   6.515  15.384 -0.0597  2.5550  0.9433
16457TIP3   OH270861   1.771   0.367   3.161 -0.0536 -1.0003 -0.2311
16457TIP3    H170862   1.807   0.298   3.106  1.5172  0.4669 -1.1260
16457TIP3    H270863   1.829   0.442   3.145 -0.9756  0.1477  1.6399
16458TIP3   OH270864   6.255   5.341  15.753 -0.3393  0.1680 -0.7278
16458TIP3    H170865   6.330   5.356  15.696  0.7988 -0.0562  0.6669
16458TIP3    H270866   6.249   5.246  15.760  0.4430  0.2103  0.6765
16459TIP3   OH270867   5.464   6.139  15.892 -0.3413 -0.2781 -0.0173
16459TIP3    H170868   5.548   6.121  15.850 -0.1025 -0.0415  0.3580
16459TIP3    H270869   5.403   6.146  15.819  0.0126 -0.1953 -0.3086
16460TIP3   OH270870   3.097   4.929   3.195 -0.4181 -0.2727  0.1664
16460TIP3    H170871   3.062   4.843   3.175 -1.1640  0.0975 -0.1218
16460TIP3    H270872   3.023   4.978   3.231  0.1569  0.0432  0.9358
16461TIP3   OH270873   6.545   3.100   4.454 -0.8985  0.0062 -0.1297
16461TIP3    H170874   6.479   3.044   4.413 -2.0918  1.2637  0.0404
16461TIP3    H270875   6.514   3.112   4.544  0.8171 -1.3388  0.6646
16462TIP3   OH270876   3.007   5.642   4.391  0.0722  0.1233  0.8352
16462TIP3    H170877   2.979   5.733   4.387 -0.5144 -0.0925 -0.1473
16462TIP3    H270878   2.927   5.593   4.412  0.4307 -0.1492  1.6100
16463TIP3   OH270879   3.682   1.621   2.170 -0.2090 -0.1887 -0.0640
16463TIP3    H170880   3.691   1.716   2.160  2.0380  0.0802  3.4971
16463TIP3    H270881   3.738   1.584   2.102 -0.7085  1.0307 -1.1563
16464TIP3   OH270882   5.498   5.566  16.516 -0.0322  0.0070  0.7777
16464TIP3    H170883   5.446   5.616  16.453  0.1302  1.4147  1.7382
16464TIP3    H270884   5.434   5.533  16.579  0.1597  1.3252  1.6828
16465TIP3   OH270885   4.061   4.530  12.264  0.3270 -0.7114  0.1989
16465TIP3    H170886   4.066   4.491  12.177 -0.7713  0.8721 -0.5913
16465TIP3    H270887   4.129   4.597  12.265  1.6499 -2.0363  1.2618
16466TIP3   OH270888   4.962   1.230  10.891 -0.2527 -0.0668 -0.4367
16466TIP3    H170889   4.888   1.290  10.888  0.6083  1.3471  3.5188
16466TIP3    H270890   5.036   1.281  10.858  0.0783  0.3977  1.0134
16467TIP3   OH270891   4.093   4.670   1.180  0.3231  0.6312  0.2962
16467TIP3    H170892   4.120   4.660   1.271  1.4842  1.1285  0.0163
16467TIP3    H270893   4.115   4.587   1.139 -0.8327  0.1539  0.6099
16468TIP3   OH270894   5.305   4.109   3.319  0.3629  0.0688 -0.1257
16468TIP3    H170895   5.250   4.168   3.267  0.7802  1.4832  1.0143
16468TIP3    H270896   5.243   4.057   3.370 -0.0066 -0.5681 -1.1907
16469TIP3   OH270897   3.241   3.545  10.897  0.0675  0.4093 -1.0673
16469TIP3    H170898   3.256   3.557  10.991  0.3323  1.4318 -1.2363
16469TIP3    H270899   3.232   3.634  10.863 -1.3788  0.0053 -1.7864
16470TIP3   OH270900   0.854   4.658   2.471  0.4670 -0.3616 -0.3915
16470TIP3    H170901   0.814   4.674   2.386  1.2031 -1.2499 -0.9191
16470TIP3    H270902   0.940   4.700   2.467  0.4763 -0.3423 -0.0600
16471TIP3   OH270903   0.173   0.055   2.360  0.4751  0.1593 -0.0212
16471TIP3    H170904   0.216   0.031   2.277 -0.1548 -0.2765 -0.2199
16471TIP3    H270905   0.099   0.110   2.333 -1.9659 -3.0441 -0.0143
16472TIP3   OH270906   1.029   2.235   6.112  0.5305  0.8713 -0.0074
16472TIP3    H170907   0.951   2.251   6.059 -0.8420 -0.1017  1.6573
16472TIP3    H270908   1.083   2.176   6.060 -0.6520  0.1713 -0.4468
16473TIP3   OH270909   5.323   5.181   0.283 -0.4459 -0.2257  0.2585
16473TIP3    H170910   5.290   5.091   0.290 -4.2604  1.1278  0.5587
16473TIP3    H270911   5.302   5.221   0.367  1.5135  0.8948  0.2442
16474TIP3   OH270912   2.208   6.375  15.440 -0.2182  0.4557  0.1729
16474TIP3    H170913   2.249   6.344  15.521 -1.4381 -3.4642 -0.5692
16474TIP3    H270914   2.279   6.374  15.376  0.1814  1.0608  0.5999
16475TIP3   OH270915   6.504   2.733   1.718  0.2031 -0.1407 -0.3245
16475TIP3    H170916   6.520   2.805   1.779 -0.6704 -0.1065 -0.1305
16475TIP3    H270917   6.546   2.761   1.636  1.3154 -0.1524  0.2276
16476TIP3   OH270918   1.045   2.654  14.070  0.0576 -0.0796  0.1385
16476TIP3    H170919   0.956   2.687  14.061 -0.2087 -0.7478  0.3389
16476TIP3    H270920   1.036   2.559  14.076  0.8580 -0.2217 -0.8535
16477TIP3   OH270921   6.327   2.657  16.481  0.3709  0.2494  0.2833
16477TIP3    H170922   6.326   2.562  16.472  0.2955  0.3858 -1.2045
16477TIP3    H270923   6.376   2.673  16.561  0.4390 -1.0407  0.5082
16478TIP3   OH270924   0.032   2.583   1.030 -0.4824  0.1286  0.5551
16478TIP3    H170925  -0.011   2.640   0.966  1.9462 -1.7396 -2.8641
16478TIP3    H270926  -0.028   2.510   1.041 -0.9248  0.4697  0.4379
16479TIP3   OH270927   4.351   5.442   1.286  0.2945 -0.3810 -0.1705
16479TIP3    H170928   4.382   5.439   1.376  1.9504  3.1198 -0.5328
16479TIP3    H270929   4.430   5.459   1.234 -1.0413  0.3662 -1.9934
16480TIP3   OH270930   0.356   6.023  14.455  0.2952  0.3597  0.0459
16480TIP3    H170931   0.296   5.954  14.485 -0.2787  0.4800 -0.8138
16480TIP3    H270932   0.349   6.092  14.521  0.7935 -0.3531  0.8544
16481TIP3   OH270933   5.271   1.461   0.267 -0.6259 -0.2136 -0.4259
16481TIP3    H170934   5.195   1.417   0.231 -0.2564 -0.6747 -0.6403
16481TIP3    H270935   5.321   1.393   0.311 -2.2342  0.7105  3.0154
16482TIP3   OH270936   5.526   1.813  13.708  0.5823 -0.8759 -0.1766
16482TIP3    H170937   5.591   1.867  13.664  0.0545  0.1343  0.2610
16482TIP3    H270938   5.565   1.726  13.713  2.6999  0.1555  1.8230
16483TIP3   OH270939   2.861   0.752   1.573 -0.0174 -0.6578 -0.1955
16483TIP3    H170940   2.766   0.750   1.578 -0.1083  0.4394 -1.2257
16483TIP3    H270941   2.883   0.690   1.504  0.0358 -1.1667  0.2785
16484TIP3   OH270942   3.807   6.038   2.788  0.3526 -0.1847  0.4225
16484TIP3    H170943   3.778   6.062   2.700 -0.8393 -1.7226  0.3605
16484TIP3    H270944   3.873   6.104   2.811 -0.7684  1.4134 -0.8139
16485TIP3   OH270945   1.245   6.141   4.506 -0.3564 -0.1148 -0.7008
16485TIP3    H170946   1.167   6.084   4.506  0.5986 -1.4967  1.5305
16485TIP3    H270947   1.214   6.223   4.469 -2.6864 -0.9361 -0.6873
16486TIP3   OH270948   4.872   1.116   4.876 -0.2550 -0.3231  0.1651
16486TIP3    H170949   4.892   1.205   4.846  0.1011  0.2853  2.1682
16486TIP3    H270950   4.926   1.060   4.821  0.1583  0.7562 -0.5455
16487TIP3   OH270951   2.011   4.661  11.736  0.8939  0.0756  0.1789
16487TIP3    H170952   2.086   4.720  11.729  1.6259 -0.6162  1.9120
16487TIP3    H270953   1.991   4.659  11.829 -1.1418  0.0609 -0.2498
16488TIP3   OH270954   5.674   4.617   0.673  0.4195  0.3593 -0.4326
16488TIP3    H170955   5.750   4.610   0.730  1.3249  0.8101 -1.5605
16488TIP3    H270956   5.711   4.623   0.585 -0.9004  1.1684 -0.9382
16489TIP3   OH270957   4.663   0.613   1.395 -0.5752  0.5064 -0.0373
16489TIP3    H170958   4.720   0.550   1.439 -1.5412  0.4741  1.1850
16489TIP3    H270959   4.575   0.574   1.399 -0.6434  0.3377 -2.3017
16490TIP3   OH270960   1.285   2.543  12.404 -0.4874  0.4278 -0.2160
16490TIP3    H170961   1.334   2.624  12.398  1.9372 -0.9895 -0.0964
16490TIP3    H270962   1.319   2.488  12.333 -0.5024 -1.2745  1.0519
16491TIP3   OH270963   6.605   4.487  16.915  0.0979  0.3384  0.6844
16491TIP3    H170964   6.628   4.397  16.894  0.2468  0.1470  1.6362
16491TIP3    H270965   6.533   4.480  16.978 -3.4187  0.9518 -3.1005
16492TIP3   OH270966   3.256   5.468   3.855 -0.2999  0.4525 -0.2388
16492TIP3    H170967   3.201   5.488   3.780 -0.3525 -0.4599 -0.4474
16492TIP3    H270968   3.248   5.374   3.867 -1.6091  0.7857  1.9301
16493TIP3   OH270969   2.718   2.996   5.165  0.0130  0.1623 -0.5536
16493TIP3    H170970   2.651   2.943   5.121 -0.7064  1.8948 -1.6233
16493TIP3    H270971   2.798   2.945   5.157 -0.5856 -0.6084 -1.8695
16494TIP3   OH270972   0.181   5.432   5.693  0.0237 -0.2365  0.1981
16494TIP3    H170973   0.211   5.400   5.778 -0.5838 -0.2163  0.4214
16494TIP3    H270974   0.161   5.524   5.708 -0.4408 -0.3232  0.1307
16495TIP3   OH270975   1.207   3.976  16.816  0.1890  0.3097  0.1945
16495TIP3    H170976   1.198   3.978  16.720  1.0673 -1.5354  0.0406
16495TIP3    H270977   1.142   3.912  16.845  0.6983  0.0217  0.7139
16496TIP3   OH270978   6.280   0.390   4.101  0.2737  0.2606 -0.2589
16496TIP3    H170979   6.219   0.354   4.037  0.5808  1.5809 -1.3094
16496TIP3    H270980   6.340   0.318   4.121  0.2275 -0.1329 -1.5169
16497TIP3   OH270981   0.698   1.105  12.362 -0.6012 -0.0823  0.0435
16497TIP3    H170982   0.697   1.031  12.301 -0.8522 -0.7331  0.8128
16497TIP3    H270983   0.608   1.109  12.395  0.0056 -1.0730  1.9233
16498TIP3   OH270984   5.977   6.091  17.167 -0.0345 -0.4942  0.6338
16498TIP3    H170985   5.953   6.169  17.216  1.0525  1.3068 -1.5724
16498TIP3    H270986   6.070   6.103  17.147 -0.6168 -0.7158 -2.5222
16499TIP3   OH270987   1.433   6.474  15.577  0.2242  0.2724 -0.0899
16499TIP3    H170988   1.410   6.546  15.519 -0.7605  0.3434  0.3770
16499TIP3    H270989   1.357   6.465  15.635  0.2521 -1.2790 -0.2843
16500TIP3   OH270990   3.800   6.620   4.069 -0.4908 -0.0723 -0.3795
16500TIP3    H170991   3.787   6.539   4.118  0.3948 -1.0758 -1.7668
16500TIP3    H270992   3.733   6.618   4.000 -2.1053  1.6032  1.0548
16501TIP3   OH270993   5.998   4.473  14.076  0.1852 -0.2756 -0.2965
16501TIP3    H170994   6.076   4.433  14.039  0.8739  0.9154 -0.1386
16501TIP3    H270995   5.972   4.414  14.147  1.7564  0.0597  0.5677
16502TIP3   OH270996   0.174   6.418   0.761 -0.8020 -0.6538 -0.0352
16502TIP3    H170997   0.117   6.417   0.684 -1.6407 -0.1025  0.5719
16502TIP3    H270998   0.230   6.341   0.750 -0.3443 -0.1237 -1.6179
16503TIP3   OH270999   4.325   3.315  13.644  0.5377 -0.0715  0.3353
16503TIP3    H171000   4.369   3.232  13.623 -0.6014 -0.3344 -1.0458
16503TIP3    H271001   4.310   3.310  13.739 -2.3275 -2.8714 -0.1700
16504TIP3   OH271002   6.795   1.860   1.757  0.1664 -0.7152 -1.3759
16504TIP3    H171003   6.728   1.850   1.689 -1.5322  0.4475  0.0791
16504TIP3    H271004   6.745   1.868   1.839  2.0456  1.1972 -0.3675
16505TIP3   OH271005   5.625   3.409  16.759 -0.0212 -0.3968  0.1825
16505TIP3    H171006   5.701   3.380  16.809  1.9600  0.8303 -2.0865
16505TIP3    H271007   5.659   3.467  16.692 -2.9736  0.3175 -0.8053
16506TIP3   OH271008   6.320   3.625   2.047  0.1306 -0.5606 -0.1169
16506TIP3    H171009   6.368   3.569   2.107 -0.2476 -0.9683 -0.1952
16506TIP3    H271010   6.232   3.632   2.085  0.4077  0.6316  0.3196
16507TIP3   OH271011   4.020   6.355  14.894  0.1202  0.1083  0.3088
16507TIP3    H171012   4.025   6.326  14.803  1.6077 -0.1509  0.4639
16507TIP3    H271013   3.985   6.279  14.941 -0.7976  0.2952 -0.0619
16508TIP3   OH271014   5.273   4.667   0.249 -0.0571 -0.2599  0.2940
16508TIP3    H171015   5.199   4.625   0.293 -0.5972  0.1498 -0.2219
16508TIP3    H271016   5.322   4.708   0.320 -0.6936  0.0459  0.5656
16509TIP3   OH271017   3.424   5.184   5.005  0.3493 -0.4617 -0.0833
16509TIP3    H171018   3.402   5.277   5.016  0.4242 -0.6713  2.0149
16509TIP3    H271019   3.344   5.138   5.027  0.3699 -0.9098 -0.9375
16510TIP3   OH271020   6.607   3.568   6.283  0.3210 -0.5847  0.3313
16510TIP3    H171021   6.578   3.485   6.322  0.4798  0.6004  3.1457
16510TIP3    H271022   6.590   3.633   6.351  0.3133  1.6986 -1.7869
16511TIP3   OH271023   5.974   4.901  12.987 -0.1294  0.4790 -0.0816
16511TIP3    H171024   6.025   4.834  13.032  0.2687  0.4289 -0.6024
16511TIP3    H271025   6.009   4.984  13.020 -0.6173  0.4321  0.5553
16512TIP3   OH271026   4.108   3.003  16.926  0.1214 -0.1050  0.7957
16512TIP3    H171027   4.165   3.073  16.896  0.0202 -0.8809 -1.3084
16512TIP3    H271028   4.142   2.924  16.884 -1.7483 -0.7765  0.4996
16513TIP3   OH271029   3.049   3.634  13.361 -0.8554  0.2169  0.0367
16513TIP3    H171030   2.996   3.630  13.440 -1.7187 -2.8107 -0.6453
16513TIP3    H271031   2.987   3.622  13.289  0.2872  0.0710 -0.9487
16514TIP3   OH271032   6.452   0.168  11.534  0.4381  0.8993  0.6399
16514TIP3    H171033   6.534   0.195  11.493  0.0199  0.5267 -0.4430
16514TIP3    H271034   6.410   0.111  11.470 -0.6956  1.1208  1.1696
16515TIP3   OH271035   3.277   6.632   1.211 -0.5827 -0.4755 -0.5252
16515TIP3    H171036   3.244   6.614   1.123 -1.2310  0.7069 -0.5314
16515TIP3    H271037   3.371   6.617   1.205 -0.7225 -1.0834 -1.2443
16516TIP3   OH271038   0.010   3.527  17.271  0.4463  0.1752  0.1496
16516TIP3    H171039   0.049   3.486  17.348 -0.0194  0.3517  0.4861
16516TIP3    H271040   0.077   3.522  17.203 -0.2215 -2.7302 -0.3413
16517TIP3   OH271041   5.208   4.470  16.499  0.2208 -0.1721 -0.0207
16517TIP3    H171042   5.234   4.392  16.451  0.0784  0.0326 -0.4337
16517TIP3    H271043   5.245   4.459  16.586 -2.2890 -2.1078  0.8642
16518TIP3   OH271044   6.051   6.592  12.116 -0.1164 -0.0924  0.0901
16518TIP3    H171045   6.048   6.659  12.184 -0.3491 -0.2653  0.2497
16518TIP3    H271046   6.144   6.584  12.094 -0.1262  0.5501 -0.1987
16519TIP3   OH271047   4.740   5.829  16.987 -0.5032  0.2834 -0.5075
16519TIP3    H171048   4.688   5.829  16.907  0.2683  0.9579 -1.0172
16519TIP3    H271049   4.699   5.761  17.042 -1.6758  0.5421 -1.0387
16520TIP3   OH271050   5.362   5.087   5.821  0.5978 -0.0184  0.1981
16520TIP3    H171051   5.384   5.047   5.737  2.4411  0.8872  0.2300
16520TIP3    H271052   5.323   5.016   5.872  1.5868 -1.1541 -0.6025
16521TIP3   OH271053   4.372   6.086   5.482  0.5704  0.0517  0.7517
16521TIP3    H171054   4.292   6.138   5.479 -0.5251 -1.4994  2.3880
16521TIP3    H271055   4.370   6.035   5.401 -0.1694 -0.0967  0.8600
16522TIP3   OH271056   0.568   6.135  15.703 -0.4306 -0.0638  0.7871
16522TIP3    H171057   0.565   6.230  15.705  0.2516 -0.0493  1.1801
16522TIP3    H271058   0.476   6.108  15.708 -0.8035  0.6095 -1.6968
16523TIP3   OH271059   2.365   0.588  16.113 -0.0409  0.3333 -0.8693
16523TIP3    H171060   2.285   0.586  16.166 -0.5516  0.9025 -1.6019
16523TIP3    H271061   2.435   0.567  16.174 -0.7051  0.2557 -0.1244
16524TIP3   OH271062   5.137   6.562   0.468  0.2156  0.4608  0.1494
16524TIP3    H171063   5.063   6.502   0.478 -0.6243  1.0620 -2.0042
16524TIP3    H271064   5.213   6.505   0.456 -0.2402 -0.1805  0.2689
16525TIP3   OH271065   3.664   5.981   0.506  0.2811  0.0243 -0.2313
16525TIP3    H171066   3.578   5.981   0.463 -0.4918  0.4651  1.2479
16525TIP3    H271067   3.719   5.926   0.451 -1.4054 -1.5852 -0.3401
16526TIP3   OH271068   3.859   6.028   1.646  0.1844  0.0693 -0.3942
16526TIP3    H171069   3.791   6.082   1.687 -1.7444 -0.6663 -2.5326
16526TIP3    H271070   3.871   5.955   1.706 -2.3379 -0.8049 -0.9057
16527TIP3   OH271071   3.329   3.020  16.108  0.3841  0.4260 -0.2382
16527TIP3    H171072   3.407   2.969  16.083  0.6140 -0.2894  1.8642
16527TIP3    H271073   3.364   3.093  16.159 -0.4049 -0.8487  2.2088
16528TIP3   OH271074   6.460   3.764   5.257 -0.2364 -0.4591 -1.0250
16528TIP3    H171075   6.545   3.735   5.291  0.2891  0.2931 -1.6710
16528TIP3    H271076   6.400   3.750   5.330  0.4706 -0.8400 -0.4987
16529TIP3   OH271077   2.469   2.921   1.916  0.3557 -0.0346 -0.2837
16529TIP3    H171078   2.455   2.973   1.994 -0.3165  0.4672 -0.7330
16529TIP3    H271079   2.383   2.919   1.873  0.3150 -1.6535 -0.1805
16530TIP3   OH271080   3.759   2.613  13.155 -0.8105  0.3642  0.4832
16530TIP3    H171081   3.703   2.681  13.116 -0.3665  0.4125 -0.0844
16530TIP3    H271082   3.813   2.583  13.082 -0.3342  0.0777  0.9535
16531TIP3   OH271083   2.197   1.620  13.213 -0.2338  0.5234  0.3533
16531TIP3    H171084   2.248   1.562  13.269  2.2410  0.7388 -1.5867
16531TIP3    H271085   2.177   1.567  13.136 -0.0736  1.4686 -0.3524
16532TIP3   OH271086   0.393   3.342  11.361  0.3691 -0.8087 -0.4069
16532TIP3    H171087   0.300   3.368  11.361 -0.2883 -2.8725  2.9827
16532TIP3    H271088   0.411   3.319  11.270 -2.3573 -0.1199 -1.1845
16533TIP3   OH271089   1.008   0.856  15.968 -0.3713  0.3698 -0.2957
16533TIP3    H171090   0.947   0.785  15.987 -0.0958  0.1276 -0.3130
16533TIP3    H271091   1.094   0.814  15.963 -0.0846  0.8288  0.5468
16534TIP3   OH271092   3.903   0.726  11.583 -1.2793  0.0367 -0.4504
16534TIP3    H171093   3.964   0.781  11.632 -2.4200  2.2433 -1.4537
16534TIP3    H271094   3.958   0.677  11.522  0.0197 -1.8142  2.1209
16535TIP3   OH271095   3.907   6.297  11.759  0.0246  0.7788 -0.3416
16535TIP3    H171096   3.830   6.331  11.714  0.1611 -1.1905 -2.1146
16535TIP3    H271097   3.981   6.340  11.716  0.0666  0.1711 -0.8892
16536TIP3   OH271098   4.078   2.226  12.694 -0.4144 -0.3591 -0.4427
16536TIP3    H171099   4.035   2.312  12.693  1.3492  0.6004  1.5776
16536TIP3    H271100   4.153   2.237  12.636  1.0182  0.1638  1.4586
16537TIP3   OH271101   4.647   4.761   3.502 -0.0602 -0.4685 -0.0310
16537TIP3    H171102   4.580   4.710   3.549 -0.1641 -1.1768 -0.9201
16537TIP3    H271103   4.729   4.718   3.524 -0.1735 -1.1899 -0.9816
16538TIP3   OH271104   6.606   1.301  11.811  0.1397  0.2065 -0.1492
16538TIP3    H171105   6.587   1.370  11.873  0.1397 -0.9988  1.2140
16538TIP3    H271106   6.527   1.247  11.808  1.7981 -2.5841  2.6215
16539TIP3   OH271107   2.670   0.030  13.782 -0.0975 -0.4662  0.1657
16539TIP3    H171108   2.737   0.093  13.807  1.5404 -2.3884  0.8268
16539TIP3    H271109   2.645   0.054  13.693  2.2156 -0.3083 -0.4687
16540TIP3   OH271110   4.576   1.661   1.211 -0.2145 -0.0436 -0.2779
16540TIP3    H171111   4.529   1.734   1.171  1.2478  1.0562 -0.0427
16540TIP3    H271112   4.609   1.696   1.294 -1.0114 -1.5205  0.6837
16541TIP3   OH271113   1.847   0.357  15.136 -0.0380  0.0003 -0.3899
16541TIP3    H171114   1.810   0.397  15.215 -0.3247 -1.9020  0.4816
16541TIP3    H271115   1.942   0.364  15.147 -0.0443 -1.2830  0.7240
16542TIP3   OH271116   4.034   0.986   2.957 -0.4812 -0.4211  0.2207
16542TIP3    H171117   3.983   1.061   2.989  1.3245  0.8314  0.2607
16542TIP3    H271118   4.125   1.009   2.979  0.4921 -0.9396 -3.0623
16543TIP3   OH271119   4.844   5.783   3.598 -0.3990 -0.3007 -0.1101
16543TIP3    H171120   4.887   5.832   3.669 -0.9033 -0.7693  0.5278
16543TIP3    H271121   4.820   5.849   3.534 -0.2538  0.1745  0.3217
16544TIP3   OH271122   0.943   4.272   5.045  0.0676 -0.2531  0.3626
16544TIP3    H171123   0.850   4.297   5.050 -0.6577 -2.2545 -2.2648
16544TIP3    H271124   0.974   4.309   4.962  1.3820 -0.3855  0.7835
16545TIP3   OH271125   4.806   2.525  13.509 -0.1465  0.2944  0.1348
16545TIP3    H171126   4.872   2.530  13.440  0.9732  1.2901  1.2486
16545TIP3    H271127   4.798   2.614  13.542 -0.3416 -0.2367  1.5746
16546TIP3   OH271128   3.865   0.862  15.467 -0.0764 -0.0971  0.6886
16546TIP3    H171129   3.916   0.862  15.386  0.3436 -0.1700  0.9497
16546TIP3    H271130   3.809   0.785  15.460  0.1144 -0.2256  0.5651
16547TIP3   OH271131   3.467   4.737  16.511  0.6985 -0.0017  0.9605
16547TIP3    H171132   3.525   4.661  16.515 -0.1220 -0.6783  0.3500
16547TIP3    H271133   3.383   4.701  16.482  0.6538  1.3406 -0.6755
16548TIP3   OH271134   6.776   4.003  12.138 -0.1227 -0.1117  0.1423
16548TIP3    H171135   6.731   3.940  12.082 -1.0729 -0.3850  1.2009
16548TIP3    H271136   6.723   4.082  12.133  1.9142  1.1820 -2.4398
16549TIP3   OH271137   5.156   4.262   1.478  0.0865 -0.1133  0.1833
16549TIP3    H171138   5.206   4.306   1.547  0.5559 -0.1452 -0.1328
16549TIP3    H271139   5.070   4.302   1.482  0.1619  0.0057  0.6765
16550TIP3   OH271140   6.377   3.006   5.866  0.2390 -0.1152 -0.6015
16550TIP3    H171141   6.396   2.932   5.924 -0.8259  0.4339  0.4787
16550TIP3    H271142   6.428   2.989   5.787 -0.1790 -2.1226 -0.4598
16551TIP3   OH271143   1.653   1.234  14.396 -0.2521  0.5682 -0.1611
16551TIP3    H171144   1.725   1.187  14.437  0.0039  0.5877 -0.5870
16551TIP3    H271145   1.694   1.286  14.327 -0.6124  0.9462 -0.0927
16552TIP3   OH271146   5.454   1.855  14.990 -0.3275  0.1786 -0.2745
16552TIP3    H171147   5.370   1.884  14.955 -0.6518  0.0168  0.3587
16552TIP3    H271148   5.497   1.935  15.020 -0.6895  0.1536  0.3264
16553TIP3   OH271149   3.227   5.564  10.768  0.3944 -0.0430 -0.5131
16553TIP3    H171150   3.133   5.556  10.748  0.6308 -0.6692 -1.3753
16553TIP3    H271151   3.267   5.486  10.729  1.3447  0.4475 -0.5252
16554TIP3   OH271152   0.063   3.198   1.408  0.6726  0.4834 -0.5971
16554TIP3    H171153   0.099   3.147   1.481 -0.3399  0.7496  0.0904
16554TIP3    H271154  -0.026   3.165   1.396  0.4776  1.1453 -1.0469
16555TIP3   OH271155   2.774   5.506  15.578 -0.0615  0.2208  0.2396
16555TIP3    H171156   2.811   5.420  15.600  0.2068 -0.3597 -2.3169
16555TIP3    H271157   2.834   5.569  15.619  0.0243 -0.7804  1.7098
16556TIP3   OH271158   6.433   1.825   0.548 -0.0047 -0.8249 -0.5868
16556TIP3    H171159   6.372   1.772   0.497  0.8608 -2.3463 -0.0642
16556TIP3    H271160   6.511   1.770   0.558  1.0946  0.7161 -0.4187
16557TIP3   OH271161   4.326   1.306  15.422  0.2995  0.3102  0.3111
16557TIP3    H171162   4.397   1.350  15.469  0.8753 -0.4249  0.1584
16557TIP3    H271163   4.355   1.215  15.416  0.1703  0.3567 -1.3361
16558TIP3   OH271164   5.921   5.884  13.417  0.5006  0.1074  0.6315
16558TIP3    H171165   5.914   5.808  13.358 -2.9327 -0.5194  1.7212
16558TIP3    H271166   5.981   5.855  13.486  1.4289 -0.5822 -0.4504
16559TIP3   OH271167   0.233   1.015   0.175  0.2554  0.0716 -0.7688
16559TIP3    H171168   0.322   0.996   0.204 -0.8218 -0.7205  2.2063
16559TIP3    H271169   0.212   1.100   0.212 -0.4215 -0.0184 -0.9230
16560TIP3   OH271170   1.148   5.037  15.123 -0.1684 -0.0912  0.1548
16560TIP3    H171171   1.085   5.033  15.195  0.0211  2.3685  0.5079
16560TIP3    H271172   1.206   5.110  15.146  1.2891 -0.7378 -1.3818
16561TIP3   OH271173   1.285   5.276   1.983 -0.3338 -0.4778  0.0089
16561TIP3    H171174   1.302   5.341   1.915  0.3901 -0.9639 -0.2755
16561TIP3    H271175   1.371   5.245   2.009 -0.6538 -0.9580  0.5056
16562TIP3   OH271176   1.904   5.162  14.256 -0.1195 -1.0255  0.7198
16562TIP3    H171177   1.936   5.074  14.277  0.6822 -0.3294  2.4365
16562TIP3    H271178   1.976   5.203  14.208  0.1311 -0.7353  1.3482
16563TIP3   OH271179   4.717   4.016   3.837 -0.7255  0.4001 -0.0429
16563TIP3    H171180   4.810   4.033   3.824  0.0491 -2.3015  1.6489
16563TIP3    H271181   4.673   4.077   3.778  2.0955  1.8796 -0.6817
16564TIP3   OH271182   3.383   5.027  13.509  0.3217 -0.2660 -0.3038
16564TIP3    H171183   3.359   5.117  13.486  1.2297  0.2204  0.6115
16564TIP3    H271184   3.338   5.011  13.592 -3.0277 -2.0493 -2.3516
16565TIP3   OH271185   3.064   3.344  11.733 -0.2514  0.1624 -0.5010
16565TIP3    H171186   3.154   3.311  11.737 -0.1649  0.3755 -0.7045
16565TIP3    H271187   3.036   3.326  11.643 -0.8948 -1.1741 -0.0398
16566TIP3   OH271188   3.688   0.254  13.308 -0.0022  0.6539  0.3225
16566TIP3    H171189   3.642   0.184  13.262 -2.4876  1.7435  1.1124
16566TIP3    H271190   3.747   0.291  13.242 -1.6414  0.5041 -1.2531
16567TIP3   OH271191   4.368   3.876   2.235 -0.2307 -0.3029  0.0805
16567TIP3    H171192   4.337   3.944   2.175 -0.6927  0.1399  0.8262
16567TIP3    H271193   4.290   3.845   2.279  0.5267  1.9760  3.1984
16568TIP3   OH271194   4.540   2.699  12.192  0.5703  0.1378 -0.3357
16568TIP3    H171195   4.562   2.695  12.099  1.9846  0.4284 -0.0166
16568TIP3    H271196   4.480   2.625  12.206  1.5894 -0.8602 -1.1496
16569TIP3   OH271197   3.324   3.944   3.104  0.4374  0.3401 -0.0778
16569TIP3    H171198   3.260   4.009   3.075  0.6415  1.1451  1.2518
16569TIP3    H271199   3.375   3.924   3.025 -0.2977  1.0167 -0.7339
16570TIP3   OH271200   0.839   1.431  14.936  0.2386 -0.1181 -0.0545
16570TIP3    H171201   0.908   1.448  15.000 -0.0163  0.4091  0.0886
16570TIP3    H271202   0.758   1.430  14.987 -0.1749  2.0966 -0.5777
16571TIP3   OH271203   5.886   1.651   2.025 -0.1334  0.2427 -0.0061
16571TIP3    H171204   5.898   1.736   2.068 -0.6845  0.5800 -0.5159
16571TIP3    H271205   5.835   1.671   1.947 -1.4785 -0.7657  0.6067
16572TIP3   OH271206   1.178   1.127  10.984  0.3365 -0.3537  0.9080
16572TIP3    H171207   1.164   1.096  11.073  2.1624 -0.6840  1.0986
16572TIP3    H271208   1.142   1.215  10.983  1.1736  0.0126  2.2433
16573TIP3   OH271209   1.768   4.705  15.468  0.0273  0.0560  0.2759
16573TIP3    H171210   1.797   4.780  15.417  0.8669  1.6302  2.9761
16573TIP3    H271211   1.727   4.647  15.404 -0.4929  2.7193 -1.9085
16574TIP3   OH271212   4.280   6.722   5.725  0.0361 -0.0004  0.0932
16574TIP3    H171213   4.218   6.649   5.722  0.7547 -0.6079 -0.6371
16574TIP3    H271214   4.226   6.800   5.730 -0.7654 -0.5653  0.3549
16575TIP3   OH271215   0.369   0.791   5.474 -0.3589 -0.2265  0.8946
16575TIP3    H171216   0.402   0.771   5.561  1.3953  1.4233  0.6354
16575TIP3    H271217   0.373   0.886   5.468  0.4455 -0.3783 -1.3208
16576TIP3   OH271218   0.195   1.922  17.109 -0.0599  0.0767 -0.3428
16576TIP3    H171219   0.114   1.872  17.101  0.4649 -0.6872 -0.9822
16576TIP3    H271220   0.212   1.925  17.204  0.3658 -1.7406 -0.3409
16577TIP3   OH271221   2.459   3.776  12.013 -0.0777  0.0631 -0.4604
16577TIP3    H171222   2.518   3.800  12.085 -0.1767 -1.1980  0.0541
16577TIP3    H271223   2.380   3.826  12.029 -0.8996 -1.7733  1.5336
16578TIP3   OH271224   0.223   6.228   5.706  0.5290  0.5796  0.2549
16578TIP3    H171225   0.282   6.205   5.778 -0.2963 -0.0770  0.7314
16578TIP3    H271226   0.228   6.153   5.647  0.7089  0.8331 -0.0519
16579TIP3   OH271227   2.477   5.621  13.860 -0.0285 -0.2285  0.0457
16579TIP3    H171228   2.451   5.694  13.917  0.0508 -1.3657  1.5914
16579TIP3    H271229   2.446   5.543  13.906  1.7948 -1.3062 -0.5049
16580TIP3   OH271230   3.611   5.456   3.774 -0.1681  0.0180 -1.2272
16580TIP3    H171231   3.541   5.517   3.752  0.8607  1.1670 -1.3540
16580TIP3    H271232   3.688   5.511   3.788  0.2620 -1.0444  0.8758
16581TIP3   OH271233   3.959   5.981  11.386  0.6015 -0.3918 -0.1211
16581TIP3    H171234   3.997   5.942  11.308  0.9846 -0.1854 -0.0423
16581TIP3    H271235   3.995   6.070  11.389  0.3242 -0.2847  0.1033
16582TIP3   OH271236   2.664   4.375   2.780  0.1782 -0.0535 -0.2603
16582TIP3    H171237   2.665   4.304   2.845 -0.4338 -0.6865 -0.9389
16582TIP3    H271238   2.748   4.419   2.792  0.4810 -0.7709  0.2993
16583TIP3   OH271239   1.266   3.661  16.556  0.3470 -0.3394 -0.1198
16583TIP3    H171240   1.260   3.751  16.522  0.0118  0.6739  2.5014
16583TIP3    H271241   1.351   3.629  16.524  1.0715  1.3860  0.0250
16584TIP3   OH271242   4.117   4.879   4.064  0.3762 -0.1227 -0.5819
16584TIP3    H171243   4.208   4.906   4.050 -0.2345  1.7751 -1.1145
16584TIP3    H271244   4.096   4.911   4.152 -0.6701  2.1743 -1.6089
16585TIP3   OH271245   4.851   6.133  15.294  0.2339  0.3791  0.5024
16585TIP3    H171246   4.761   6.148  15.323 -0.0128 -2.5232  1.3779
16585TIP3    H271247   4.852   6.165  15.204 -1.1407  2.2043  1.1031
16586TIP3   OH271248   4.110   3.277  11.148 -0.0295 -0.0083  0.2116
16586TIP3    H171249   4.030   3.284  11.096  0.2548 -0.4047 -0.2842
16586TIP3    H271250   4.176   3.322  11.095  0.6596 -1.9433 -0.6055
16587TIP3   OH271251   4.595   1.322  13.273  0.1306 -0.0632 -0.9410
16587TIP3    H171252   4.612   1.230  13.293  0.7658  0.3594  0.4941
16587TIP3    H271253   4.502   1.333  13.291  0.5337  0.1249  1.0899
16588TIP3   OH271254   6.817   3.949   1.508  0.3874  0.5377 -0.0903
16588TIP3    H171255   6.773   3.939   1.424  0.1059 -0.3083  0.1490
16588TIP3    H271256   6.776   4.025   1.549 -0.0307  0.4623 -0.3731
16589TIP3   OH271257   5.461   3.981  14.352 -0.5933 -0.3936 -0.0124
16589TIP3    H171258   5.434   3.939  14.270 -0.1712 -0.4217 -0.1350
16589TIP3    H271259   5.542   4.027  14.331 -0.5803 -0.2510  0.3439
16590TIP3   OH271260   0.256   0.456   6.491 -0.3577 -0.3096  0.3314
16590TIP3    H171261   0.287   0.545   6.474 -2.9965  0.4471 -0.6768
16590TIP3    H271262   0.231   0.457   6.583 -1.2966  0.2844  0.0741
16591TIP3   OH271263   5.081   1.299  16.866  0.5596  0.2613 -0.2832
16591TIP3    H171264   5.157   1.286  16.922  0.7252 -0.0554 -0.5738
16591TIP3    H271265   5.111   1.273  16.779  0.5274  1.4388 -0.6610
16592TIP3   OH271266   2.077   5.631   3.013 -0.1055  0.3247  0.1370
16592TIP3    H171267   2.150   5.589   3.058 -0.1241 -1.1244 -1.1287
16592TIP3    H271268   2.004   5.626   3.075  0.3909  0.1043  0.6952
16593TIP3   OH271269   4.314   3.317  12.265 -0.1630 -0.4540  0.0824
16593TIP3    H171270   4.295   3.237  12.217  0.7501 -0.6135 -0.0275
16593TIP3    H271271   4.368   3.289  12.339  1.1067  0.1924 -0.5771
16594TIP3   OH271272   2.631   0.288   1.848 -0.2661 -0.0784 -0.2290
16594TIP3    H171273   2.565   0.320   1.787 -2.3691 -2.0956  0.9071
16594TIP3    H271274   2.680   0.223   1.798 -1.6975 -1.4112  0.0778
16595TIP3   OH271275   3.197   5.809  12.676 -0.0003  0.2813 -1.3089
16595TIP3    H171276   3.204   5.871  12.748  1.6486 -0.6644 -0.6490
16595TIP3    H271277   3.229   5.726  12.711 -0.6706 -0.5801 -2.6609
16596TIP3   OH271278   1.370   5.140  16.812  0.1160 -0.0084  0.0689
16596TIP3    H171279   1.274   5.136  16.811  0.0673  1.0772 -0.1652
16596TIP3    H271280   1.394   5.143  16.719  0.4000 -0.7201  0.1158
16597TIP3   OH271281   2.414   4.414  11.106  0.5333  0.5274  0.0635
16597TIP3    H171282   2.470   4.385  11.178  0.7176  0.1146 -0.2483
16597TIP3    H271283   2.458   4.492  11.072  0.6086  0.5432  0.1965
16598TIP3   OH271284   4.430   6.749  15.115  0.5025 -0.2063  0.4925
16598TIP3    H171285   4.488   6.675  15.099  0.6407  0.3611 -1.9100
16598TIP3    H271286   4.345   6.709  15.133  0.9289 -0.9684  0.8383
16599TIP3   OH271287   2.366   2.598  10.542  0.4913 -0.7279  0.0093
16599TIP3    H171288   2.317   2.603  10.461  1.3707 -0.3920 -0.5069
16599TIP3    H271289   2.300   2.577  10.609 -1.0388  3.6630  0.0301
16600TIP3   OH271290   5.924   5.907   2.313 -0.0565  0.1679  0.1311
16600TIP3    H171291   5.989   5.911   2.244  0.5552  1.7840  0.7708
16600TIP3    H271292   5.972   5.929   2.393 -1.3687  1.4136  0.6124
16601TIP3   OH271293   5.517   1.360  12.688  0.1438 -0.3978 -0.3047
16601TIP3    H171294   5.485   1.441  12.650  0.6593 -0.8166 -1.6438
16601TIP3    H271295   5.580   1.327  12.624 -0.0511 -1.8470  0.2462
16602TIP3   OH271296   1.214   0.563   6.270  0.0172 -0.2043 -0.4797
16602TIP3    H171297   1.301   0.579   6.305  0.3584 -0.4692 -1.1863
16602TIP3    H271298   1.201   0.469   6.278 -0.3295 -0.1245 -0.0904
16603TIP3   OH271299   6.762   6.382   1.513  0.2893  0.0751  0.0230
16603TIP3    H171300   6.781   6.289   1.518  0.8899 -0.1529 -4.3815
16603TIP3    H271301   6.839   6.421   1.473 -1.1373  1.9871 -0.9805
16604TIP3   OH271302   5.481   2.460   2.452  0.6186 -0.1182 -0.0293
16604TIP3    H171303   5.474   2.544   2.406  3.1386  0.7832  1.1372
16604TIP3    H271304   5.492   2.484   2.544  1.0447 -1.7253  0.3540
16605TIP3   OH271305   4.936   1.123  15.907  0.3205 -0.0809 -0.1131
16605TIP3    H171306   4.922   1.162  15.820  1.9096 -1.3006 -0.9534
16605TIP3    H271307   4.943   1.198  15.966  0.1309  0.8000 -1.1855
16606TIP3   OH271308   1.238   5.902  17.260 -0.0466 -0.2426 -0.1267
16606TIP3    H171309   1.156   5.867  17.295 -0.4660  0.9079  0.0696
16606TIP3    H271310   1.264   5.840  17.192 -1.3851 -0.3010 -0.5961
16607TIP3   OH271311   4.778   5.866  10.974 -0.8044  0.0942 -0.3022
16607TIP3    H171312   4.859   5.832  10.936  1.0494  1.3409  2.4005
16607TIP3    H271313   4.715   5.795  10.961  1.2494 -1.7354 -0.6414
16608TIP3   OH271314   3.422   3.386  13.543  0.2527  0.3486  0.2846
16608TIP3    H171315   3.494   3.347  13.593 -0.2446 -0.1129  0.6402
16608TIP3    H271316   3.357   3.411  13.608 -0.2632  0.0258 -0.0986
16609TIP3   OH271317   5.748   2.358   0.436  0.5284 -0.0448 -0.1245
16609TIP3    H171318   5.709   2.380   0.351  1.7725  1.0026 -0.4338
16609TIP3    H271319   5.833   2.401   0.435  0.0658  1.0072  2.1439
16610TIP3   OH271320   5.812   1.695   3.402  0.1186 -0.1152 -0.2668
16610TIP3    H171321   5.873   1.726   3.469  0.2627  0.0626 -0.4793
16610TIP3    H271322   5.728   1.734   3.425  0.5143  1.2554 -1.1142
16611TIP3   OH271323   5.612   1.044   1.643  0.0371 -0.8695  0.0978
16611TIP3    H171324   5.681   1.054   1.577 -2.1229  0.2962 -2.0958
16611TIP3    H271325   5.572   0.959   1.623  1.2544 -1.8966  1.8424
16612TIP3   OH271326   3.202   6.228  15.640  0.0699  0.5194 -0.2172
16612TIP3    H171327   3.241   6.151  15.682 -0.5079  0.6746  0.6162
16612TIP3    H271328   3.206   6.209  15.546  0.6483 -0.1805 -0.0563
16613TIP3   OH271329   0.797   2.412   5.830 -0.1160 -0.1789  0.6430
16613TIP3    H171330   0.775   2.461   5.909  1.9319 -1.5054  2.0876
16613TIP3    H271331   0.844   2.335   5.862  3.1567  0.6229 -2.0225
16614TIP3   OH271332   4.280   4.993   2.366  0.1827 -0.1668 -0.2073
16614TIP3    H171333   4.305   5.066   2.423 -0.6949  2.5164 -3.1122
16614TIP3    H271334   4.267   5.033   2.280  0.7703 -3.9513 -2.1799
16615TIP3   OH271335   5.897   0.265   1.775  0.6909 -0.1138 -1.0267
16615TIP3    H171336   5.805   0.293   1.771 -0.0653 -2.5889 -2.8662
16615TIP3    H271337   5.907   0.229   1.863  0.3110  1.4959 -0.3186
16616TIP3   OH271338   6.164   5.203  16.371  0.2990  0.0409  0.1136
16616TIP3    H171339   6.166   5.245  16.284  0.6401 -1.2393 -0.5072
16616TIP3    H271340   6.230   5.251  16.422  2.3581 -1.2056 -1.2959
16617TIP3   OH271341   1.211   1.862   2.055 -0.0523  0.0203 -0.3254
16617TIP3    H171342   1.126   1.890   2.023 -0.0676  0.9336  0.4767
16617TIP3    H271343   1.209   1.767   2.050 -0.9078  0.0612 -0.8361
16618TIP3   OH271344   4.645   4.998   0.197  0.1152  0.1468 -0.0440
16618TIP3    H171345   4.629   5.028   0.107  0.5733 -0.1442 -0.2218
16618TIP3    H271346   4.596   4.916   0.203  0.2826  0.0423 -0.1040
16619TIP3   OH271347   2.949   6.735  15.470 -0.1095 -0.6591 -0.2131
16619TIP3    H171348   2.912   6.656  15.510  0.6698 -0.9714 -0.0908
16619TIP3    H271349   2.891   6.756  15.397 -1.4764 -0.1738  0.9840
16620TIP3   OH271350   2.626   0.690   3.420  0.2340  0.2895  0.8436
16620TIP3    H171351   2.626   0.721   3.330  2.4247 -1.7258  0.1028
16620TIP3    H271352   2.568   0.614   3.420  2.4311 -1.4196  0.4712
16621TIP3   OH271353   2.694   5.575  14.575  0.5177  0.1468 -0.5705
16621TIP3    H171354   2.664   5.504  14.518  0.9894 -1.9334  1.7168
16621TIP3    H271355   2.784   5.591  14.547  0.6444 -0.6394 -0.6203
16622TIP3   OH271356   5.892   1.866   1.747  1.0196 -0.6805  0.4092
16622TIP3    H171357   5.935   1.854   1.662 -0.4469  1.8894 -0.7257
16622TIP3    H271358   5.800   1.845   1.731  0.3833  1.6170  0.8801
16623TIP3   OH271359   3.845   2.340   1.381 -0.2971  0.3619  0.6085
16623TIP3    H171360   3.861   2.432   1.362  2.0068 -0.0255  0.5897
16623TIP3    H271361   3.886   2.325   1.466 -1.2365 -0.5063  0.9304
16624TIP3   OH271362   1.223   4.370  10.992 -0.1870  0.1707 -0.4016
16624TIP3    H171363   1.269   4.451  10.970  2.1204 -1.1200 -0.4743
16624TIP3    H271364   1.239   4.312  10.917 -0.1053 -1.0509  0.5436
16625TIP3   OH271365   0.768   0.434  15.105 -0.0098  0.2757 -0.1733
16625TIP3    H171366   0.707   0.472  15.042  0.4899  2.1058  0.4144
16625TIP3    H271367   0.854   0.446  15.065  0.2520  0.8474  0.5619
16626TIP3   OH271368   5.408   1.582  14.254  0.4522  0.0004 -0.7230
16626TIP3    H171369   5.346   1.650  14.279 -0.1728 -1.4858  2.0452
16626TIP3    H271370   5.493   1.627  14.248  0.3618  0.7849  2.7576
16627TIP3   OH271371   0.434   5.128   3.435 -0.0563  0.4780 -0.4696
16627TIP3    H171372   0.427   5.220   3.407  2.4697  0.3274 -1.6955
16627TIP3    H271373   0.467   5.133   3.524  2.4281  0.7524 -1.3686
16628TIP3   OH271374   5.281   0.847  12.675 -0.7191  0.2311  0.0012
16628TIP3    H171375   5.198   0.862  12.721 -1.7442 -0.2933 -1.6105
16628TIP3    H271376   5.309   0.761  12.705 -0.7049  0.4437  0.6185
16629TIP3   OH271377   0.104   5.847  14.899 -0.0631 -0.0216  0.0832
16629TIP3    H171378   0.075   5.831  14.989  0.5960  0.7792  0.4419
16629TIP3    H271379   0.143   5.764  14.872  1.3722  0.2752  1.1801
16630TIP3   OH271380   3.362   6.759   5.639 -0.7766  0.2477  0.5290
16630TIP3    H171381   3.268   6.742   5.646 -1.1024  1.9746  0.6203
16630TIP3    H271382   3.374   6.843   5.683  0.4728  1.0777 -1.3506
16631TIP3   OH271383   5.357   2.090  11.456  0.1373  0.8192 -0.4500
16631TIP3    H171384   5.275   2.102  11.408 -0.7699 -1.2368  0.5501
16631TIP3    H271385   5.340   2.126  11.543 -0.1503 -0.8339  0.1827
16632TIP3   OH271386   2.175   2.734  11.462 -0.0087  0.4935 -0.1031
16632TIP3    H171387   2.212   2.747  11.549  0.5721 -0.1891 -0.2473
16632TIP3    H271388   2.208   2.807  11.411  0.2143  0.5116  0.0665
16633TIP3   OH271389   4.698   6.052  14.024 -0.1054 -0.3109 -0.7060
16633TIP3    H171390   4.702   6.088  14.113  1.4581  0.2184 -0.9820
16633TIP3    H271391   4.659   6.122  13.972  0.8915  0.1590 -0.8251
16634TIP3   OH271392   2.293   1.694   4.642 -0.0060  0.1084  0.1147
16634TIP3    H171393   2.313   1.603   4.619  1.3225  0.2579  0.5815
16634TIP3    H271394   2.264   1.734   4.560  1.9006 -0.0906 -0.6913
16635TIP3   OH271395   4.169   4.120  15.853 -0.0459  0.1244  0.0412
16635TIP3    H171396   4.264   4.131  15.851  0.4233 -2.9222  2.0391
16635TIP3    H271397   4.138   4.187  15.914  1.1466 -0.6229  1.4953
16636TIP3   OH271398   0.691   5.431   6.077  0.1636 -0.1154  0.6297
16636TIP3    H171399   0.755   5.496   6.106 -0.0181 -0.5033  1.9271
16636TIP3    H271400   0.611   5.481   6.061  0.9117  0.4405 -1.4500
16637TIP3   OH271401   2.432   1.232   3.729 -0.1025  0.0681  0.5858
16637TIP3    H171402   2.481   1.253   3.649 -1.3592 -0.9560 -0.4794
16637TIP3    H271403   2.358   1.179   3.699 -0.2644 -0.8517  2.5185
16638TIP3   OH271404   1.271   4.949   2.969  0.3463  0.7499  0.0333
16638TIP3    H171405   1.206   4.893   2.927  0.8534 -0.9817  1.5302
16638TIP3    H271406   1.355   4.920   2.932  0.5623  0.9618  0.3532
16639TIP3   OH271407   0.877   3.888  13.962  0.6102  0.5052 -0.0527
16639TIP3    H171408   0.816   3.943  14.012 -0.5174 -0.0361 -0.8153
16639TIP3    H271409   0.885   3.808  14.014  1.8181  1.1474  0.7777
16640TIP3   OH271410   6.765   5.917   4.039 -0.0811 -0.9967 -0.1954
16640TIP3    H171411   6.827   5.936   3.968 -0.0978 -1.3302 -0.2986
16640TIP3    H271412   6.719   6.000   4.053  0.4412 -0.7246 -0.0661
16641TIP3   OH271413   5.260   0.841  15.276  0.1286  0.2716 -0.4173
16641TIP3    H171414   5.294   0.931  15.284 -0.8052  0.7255 -1.3826
16641TIP3    H271415   5.333   0.792  15.239  0.3812  0.8203 -0.6625
16642TIP3   OH271416   6.655   1.107   2.805  0.1117 -0.4072 -0.0262
16642TIP3    H171417   6.594   1.079   2.873 -0.6814  0.8209 -0.2192
16642TIP3    H271418   6.675   1.027   2.757 -0.0301 -1.1215  1.0883
16643TIP3   OH271419   4.748   6.632   3.964 -0.0468  0.1272 -0.4110
16643TIP3    H171420   4.802   6.557   3.989 -0.5651 -0.0668  0.1518
16643TIP3    H271421   4.799   6.709   3.993  0.0491 -0.0424 -0.1277
16644TIP3   OH271422   6.613   3.519   5.809 -0.7407  0.1431 -0.3152
16644TIP3    H171423   6.628   3.428   5.835 -0.0577  0.4749  0.4565
16644TIP3    H271424   6.682   3.537   5.745 -2.2246 -0.5707 -2.1711
16645TIP3   OH271425   1.121   4.702  16.607  0.2909 -0.5970  0.5981
16645TIP3    H171426   1.193   4.644  16.583  0.9853  0.7593 -0.7127
16645TIP3    H271427   1.147   4.738  16.692  2.5766  2.0136 -1.1147
16646TIP3   OH271428   2.898   5.045   3.405 -0.4173  0.1687 -0.0039
16646TIP3    H171429   2.857   5.074   3.486 -2.4363 -1.6565 -0.3245
16646TIP3    H271430   2.830   4.994   3.361  1.8760 -2.0463 -1.0878
16647TIP3   OH271431   5.845   0.579  11.698  0.5364 -0.1954 -0.1389
16647TIP3    H171432   5.816   0.656  11.746 -1.0530 -0.7282 -0.2345
16647TIP3    H271433   5.890   0.525  11.764  1.4611  0.6810 -0.0288
16648TIP3   OH271434   4.485   4.913   6.231 -0.5628 -0.2867 -0.3881
16648TIP3    H171435   4.446   4.953   6.154  0.6967  2.0619  0.1426
16648TIP3    H271436   4.541   4.981   6.268 -1.1186 -1.3553  2.6002
16649TIP3   OH271437   5.394   1.191  13.146 -0.2826  0.4385 -0.1175
16649TIP3    H171438   5.478   1.199  13.100  0.3938 -0.2039  0.9805
16649TIP3    H271439   5.329   1.181  13.076  0.7205 -0.4914 -0.9315
16650TIP3   OH271440   6.104   3.489   6.595  0.3968  0.1254  0.0963
16650TIP3    H171441   6.123   3.396   6.597  1.4794  0.2959 -0.9460
16650TIP3    H271442   6.041   3.503   6.665 -1.2710 -1.7046 -0.9917
16651TIP3   OH271443   1.509   5.627  10.997 -0.2131 -0.4850  0.0560
16651TIP3    H171444   1.595   5.594  10.971  0.1542  0.5747 -0.1132
16651TIP3    H271445   1.479   5.679  10.922 -1.1456 -1.1165 -0.0130
16652TIP3   OH271446   6.366   1.908   2.665 -0.3859 -0.8899 -0.1594
16652TIP3    H171447   6.367   1.813   2.675  2.1955 -0.6883  1.9486
16652TIP3    H271448   6.276   1.934   2.685 -0.7505 -2.7431  0.6572
16653TIP3   OH271449   6.488   1.410   5.247 -0.0264  0.1119  0.4569
16653TIP3    H171450   6.457   1.473   5.183 -0.3163  0.8100  1.2697
16653TIP3    H271451   6.456   1.325   5.216 -1.4307  0.6357  0.4801
16654TIP3   OH271452   4.875   3.842  14.205 -0.1188  0.3128 -0.1459
16654TIP3    H171453   4.921   3.781  14.148  0.9811  2.1358 -1.2524
16654TIP3    H271454   4.885   3.927  14.163  2.1943  2.0255  3.5985
16655TIP3   OH271455   5.440   1.689  12.892 -0.3360 -0.3567 -0.4553
16655TIP3    H171456   5.413   1.710  12.982 -0.9238 -1.1486 -0.4423
16655TIP3    H271457   5.508   1.622  12.903 -0.4623 -0.5082 -0.6065
16656TIP3   OH271458   2.764   5.308  16.406 -0.7878  0.3017  0.4770
16656TIP3    H171459   2.669   5.304  16.417 -0.6516 -0.5005  1.4885
16656TIP3    H271460   2.798   5.307  16.495  0.1916 -0.3518  0.1067
16657TIP3   OH271461   1.931   4.151   2.032 -0.3143 -0.1670 -0.1889
16657TIP3    H171462   1.846   4.192   2.018  0.2991  1.0917 -0.2997
16657TIP3    H271463   1.926   4.113   2.119 -0.6130  0.8730  0.2582
16658TIP3   OH271464   3.298   3.224   6.523 -0.1185  0.0761 -0.1058
16658TIP3    H171465   3.356   3.246   6.596 -0.3202  0.9518 -0.1998
16658TIP3    H271466   3.351   3.241   6.445 -0.3110  0.3571 -0.1794
16659TIP3   OH271467   6.500   5.778   5.053 -0.8498  0.0193 -0.1880
16659TIP3    H171468   6.434   5.741   5.112  0.0465 -0.1868  0.7050
16659TIP3    H271469   6.584   5.750   5.090 -0.2437  0.5783 -1.1037
16660TIP3   OH271470   5.447   2.364  15.736 -0.1494 -0.0912  0.0933
16660TIP3    H171471   5.445   2.269  15.750 -1.3138 -0.4274 -2.0850
16660TIP3    H271472   5.534   2.381  15.700  0.1609 -0.2752  0.7396
16661TIP3   OH271473   3.485   0.617   4.262 -0.0904  0.4655 -0.2401
16661TIP3    H171474   3.512   0.553   4.196  0.0971 -1.9121  2.0896
16661TIP3    H271475   3.394   0.639   4.239  0.0768 -0.0970 -1.4548
16662TIP3   OH271476   6.364   3.040   5.326  0.2760  0.1358  0.2535
16662TIP3    H171477   6.449   2.996   5.336 -0.2063 -0.7095  0.6376
16662TIP3    H271478   6.331   3.048   5.415 -0.0917  0.3935  0.0927
16663TIP3   OH271479   3.590   5.479   0.969 -0.0427  0.2047 -0.7187
16663TIP3    H171480   3.599   5.571   0.992  3.3024 -0.5178  1.2104
16663TIP3    H271481   3.529   5.444   1.035  1.1048  0.4078  0.4675
16664TIP3   OH271482   4.733   0.631   3.791 -0.0064 -0.7609  0.3458
16664TIP3    H171483   4.734   0.724   3.768 -2.4441 -1.1604 -1.5710
16664TIP3    H271484   4.786   0.625   3.871 -0.9890  2.4842  1.3013
16665TIP3   OH271485   1.602   2.596   3.426 -0.5470 -0.0576  0.2183
16665TIP3    H171486   1.640   2.671   3.472 -0.2488 -0.7705  1.1437
16665TIP3    H271487   1.539   2.635   3.365  1.1008  1.0801 -0.8023
16666TIP3   OH271488   5.726   0.710  15.010  0.0691 -0.5100  0.1016
16666TIP3    H171489   5.758   0.620  14.999  0.5428 -0.4122  0.6346
16666TIP3    H271490   5.716   0.743  14.922 -0.8390 -1.3500 -0.1225
16667TIP3   OH271491   6.517   2.571   3.319 -0.4225  0.0062 -0.0128
16667TIP3    H171492   6.521   2.538   3.229 -0.1503  1.4154 -0.5384
16667TIP3    H271493   6.424   2.565   3.343 -0.7070  0.8742 -0.8765
16668TIP3   OH271494   5.003   2.765  11.467 -0.2575 -0.2090 -0.4133
16668TIP3    H171495   4.953   2.768  11.386 -2.2537 -0.4737  0.7716
16668TIP3    H271496   5.035   2.854  11.480 -0.1739 -0.1025 -1.3109
16669TIP3   OH271497   0.180   6.188   4.582  0.1019  0.6086 -0.6395
16669TIP3    H171498   0.110   6.128   4.607  0.6042  0.2604 -0.0672
16669TIP3    H271499   0.245   6.133   4.537  0.4478  0.7667 -0.3320
16670TIP3   OH271500   3.973   6.270   5.732 -0.2860 -0.1909 -0.2089
16670TIP3    H171501   3.988   6.331   5.804 -0.7110  1.1107 -1.2054
16670TIP3    H271502   4.060   6.247   5.701 -0.0665 -1.5559  1.3696
16671TIP3   OH271503   0.013   2.485   2.613 -0.0035 -0.3393  0.0513
16671TIP3    H171504  -0.051   2.415   2.601  1.9807 -2.2433  0.2679
16671TIP3    H271505   0.068   2.480   2.535  0.3861  0.7266  0.2535
16672TIP3   OH271506   1.563   6.460  10.980 -0.3328  0.3637 -0.1278
16672TIP3    H171507   1.617   6.498  10.911 -0.5846 -1.6254 -1.4456
16672TIP3    H271508   1.625   6.413  11.036 -0.3363  0.5378  0.0207
16673TIP3   OH271509   3.488   4.184  12.372 -0.2253  0.5334  0.2389
16673TIP3    H171510   3.570   4.212  12.331  1.3548 -0.1394  2.8164
16673TIP3    H271511   3.443   4.134  12.305  1.2273  1.3696 -1.3938
16674TIP3   OH271512   1.529   0.827   1.626 -0.6382 -0.6858  0.4565
16674TIP3    H171513   1.558   0.791   1.709 -0.4850 -1.8414 -0.0824
16674TIP3    H271514   1.581   0.781   1.560 -1.4484 -0.4975 -0.3297
16675TIP3   OH271515   2.421   2.898  15.902  0.1994 -0.3042  0.2575
16675TIP3    H171516   2.333   2.929  15.923 -0.2714 -0.3585 -1.5165
16675TIP3    H271517   2.473   2.977  15.892  0.1632 -0.2463  0.5316
16676TIP3   OH271518   1.472   3.048  12.425 -0.0523 -0.1394 -0.3815
16676TIP3    H171519   1.427   2.968  12.454 -0.3612  0.1293 -0.1177
16676TIP3    H271520   1.429   3.071  12.343 -0.6229  0.3046  0.0400
16677TIP3   OH271521   2.655   2.652  14.480 -0.2433 -0.4404 -0.0465
16677TIP3    H171522   2.703   2.735  14.481 -0.3032 -0.3880 -1.1061
16677TIP3    H271523   2.607   2.651  14.563  0.3572  0.2275  0.3162
16678TIP3   OH271524   4.165   3.167  13.377  0.0902  0.2419  0.5976
16678TIP3    H171525   4.187   3.256  13.350  0.8135 -0.5091 -1.4502
16678TIP3    H271526   4.133   3.175  13.466  2.3789  2.2726  1.2866
16679TIP3   OH271527   5.888   2.839  16.426 -0.4413 -0.9946  0.0433
16679TIP3    H171528   5.908   2.848  16.333  0.0037 -3.3753 -0.1096
16679TIP3    H271529   5.970   2.861  16.471 -0.9104  1.1008 -0.0295
16680TIP3   OH271530   5.447   1.553  11.734 -0.0107 -0.5426 -0.2104
16680TIP3    H171531   5.387   1.606  11.682 -2.7205 -1.3368  1.9886
16680TIP3    H271532   5.469   1.479  11.677  0.0319  0.4784 -1.5473
16681TIP3   OH271533   5.139   6.330  16.325  0.0413 -0.0891 -0.2795
16681TIP3    H171534   5.145   6.303  16.234 -2.4948 -0.1296 -0.4752
16681TIP3    H271535   5.092   6.259  16.369  1.2843 -0.0994  1.0864
16682TIP3   OH271536   6.625   2.613   6.249 -0.1606 -0.1813  0.4782
16682TIP3    H171537   6.649   2.706   6.254  2.7325 -0.8821  0.3055
16682TIP3    H271538   6.623   2.584   6.340  0.3839 -0.2954  0.4552
16683TIP3   OH271539   5.247   4.718   4.514 -0.0119 -0.1936  0.2313
16683TIP3    H171540   5.215   4.667   4.440 -0.4703 -0.0158  0.3045
16683TIP3    H271541   5.341   4.703   4.515  0.0903  0.3496 -0.8084
16684TIP3   OH271542   1.862   3.301  14.225  0.3579 -0.6531  0.1109
16684TIP3    H171543   1.789   3.240  14.214  1.8366 -2.1605 -1.6227
16684TIP3    H271544   1.828   3.367  14.286 -2.4002 -1.3775 -0.5358
16685TIP3   OH271545   2.263   0.309  13.802 -0.3353 -0.6128 -0.2191
16685TIP3    H171546   2.261   0.227  13.852 -0.1222  0.5920  1.8126
16685TIP3    H271547   2.356   0.333  13.799 -0.4719 -0.0599 -0.1552
16686TIP3   OH271548   0.349   3.182  12.681 -0.0635  0.4209  0.1500
16686TIP3    H171549   0.444   3.189  12.693 -0.0669  1.2127 -0.2228
16686TIP3    H271550   0.320   3.126  12.752  1.3055 -3.9569 -2.5630
16687TIP3   OH271551   3.609   3.767  11.835  0.0938  0.1403  0.0627
16687TIP3    H171552   3.628   3.800  11.923  2.1373 -1.4226  0.2292
16687TIP3    H271553   3.667   3.817  11.778  0.5654 -0.5866 -0.1019
16688TIP3   OH271554   2.287   5.969  10.958  0.1716 -0.9418  0.0336
16688TIP3    H171555   2.284   6.030  11.031 -0.3392 -2.4969  1.3297
16688TIP3    H271556   2.227   6.006  10.893 -1.1032 -0.7275  1.3170
16689TIP3   OH271557   5.464   2.409  16.101  0.0167  0.7310  0.0446
16689TIP3    H171558   5.419   2.445  16.025 -0.5398 -0.0095  0.0164
16689TIP3    H271559   5.396   2.361  16.149  0.4706  0.7795  0.7434
16690TIP3   OH271560   4.130   1.591   0.276  0.0745  0.8222 -0.1769
16690TIP3    H171561   4.221   1.586   0.306  0.2507  1.9431 -0.5263
16690TIP3    H271562   4.081   1.618   0.354 -0.0812 -0.5399  0.2162
16691TIP3   OH271563   5.556   5.429  10.511 -0.9303  0.5359 -0.1701
16691TIP3    H171564   5.649   5.406  10.505 -1.1812 -0.7051  0.5233
16691TIP3    H271565   5.554   5.524  10.501  0.3454  0.4911 -0.9316
16692TIP3   OH271566   2.194   5.696   3.634  0.2207  0.1002 -0.9300
16692TIP3    H171567   2.171   5.604   3.636 -1.2740  0.4778 -0.0968
16692TIP3    H271568   2.277   5.701   3.682  0.2948 -0.7930 -0.9559
16693TIP3   OH271569   0.562   6.335  12.073 -0.1379 -0.2225 -0.1702
16693TIP3    H171570   0.609   6.255  12.050 -1.1855 -0.7897 -0.3662
16693TIP3    H271571   0.498   6.307  12.139  0.1077  0.6273  0.4427
16694TIP3   OH271572   6.324   0.153  12.593 -0.3047 -0.3140 -0.4281
16694TIP3    H171573   6.312   0.094  12.667 -1.7280 -0.3077 -0.6278
16694TIP3    H271574   6.239   0.197  12.584  0.9595  2.4039  0.2700
16695TIP3   OH271575   0.318   1.386   5.027 -1.1700 -0.8959  0.2698
16695TIP3    H171576   0.355   1.311   4.980 -3.2803 -2.0184  0.3292
16695TIP3    H271577   0.322   1.458   4.965 -1.0425 -1.5860 -0.5312
16696TIP3   OH271578   1.103   2.479   6.289 -0.0620  0.4925 -0.5255
16696TIP3    H171579   1.037   2.418   6.321  0.4976  0.6711  1.0271
16696TIP3    H271580   1.178   2.424   6.265  0.0720  0.4731 -0.0752
16697TIP3   OH271581   4.726   1.380  14.331  0.3270  0.3025 -0.6281
16697TIP3    H171582   4.757   1.468  14.307 -0.2973  0.1022 -2.2125
16697TIP3    H271583   4.638   1.375  14.295 -0.1072 -0.5540  0.5088
16698TIP3   OH271584   4.394   5.050   4.840  0.4536 -0.1811 -0.1796
16698TIP3    H171585   4.316   5.102   4.819  0.1312 -0.2807  0.7618
16698TIP3    H271586   4.409   5.065   4.933 -0.1961 -2.5046  0.3287
16699TIP3   OH271587   0.173   5.372   0.245 -0.8706  0.0169  0.0862
16699TIP3    H171588   0.116   5.406   0.176  1.3578  3.4534 -0.2186
16699TIP3    H271589   0.261   5.396   0.216  0.1882  0.8083  3.7150
16700TIP3   OH271590   1.208   5.805  11.454  0.4636  0.1068 -0.3285
16700TIP3    H171591   1.207   5.755  11.536 -1.8112  1.3086  0.4216
16700TIP3    H271592   1.188   5.740  11.386  1.3669 -0.7058  0.1652
16701TIP3   OH271593   2.591   0.987  11.463  0.0614 -0.3757 -0.5081
16701TIP3    H171594   2.598   1.004  11.557  0.9950 -0.8700 -0.4845
16701TIP3    H271595   2.595   0.892  11.456  1.6168 -0.2638 -1.1780
16702TIP3   OH271596   0.957   1.577   4.407 -0.0508 -0.1498  0.6406
16702TIP3    H171597   0.898   1.569   4.482 -1.5701 -0.3016 -0.5679
16702TIP3    H271598   1.041   1.603   4.446 -0.4157 -1.6782  2.5454
16703TIP3   OH271599   6.534   0.328  16.399  0.2020  0.8051  0.3914
16703TIP3    H171600   6.523   0.317  16.305 -0.3293 -0.1149  0.5557
16703TIP3    H271601   6.464   0.388  16.425 -0.4957 -0.0259  0.4211
16704TIP3   OH271602   5.536   6.630  12.893  0.0061  0.1268 -0.4039
16704TIP3    H171603   5.446   6.614  12.865  0.3582  0.0071 -1.4766
16704TIP3    H271604   5.560   6.552  12.943 -0.3713  0.0159 -0.3967
16705TIP3   OH271605   0.750   4.214  16.944  0.3728  0.1953  0.3208
16705TIP3    H171606   0.750   4.300  16.903 -1.6561 -1.0728 -2.5616
16705TIP3    H271607   0.674   4.214  17.001 -0.4797 -0.1158 -0.7826
16706TIP3   OH271608   4.644   2.303   0.234 -0.2387  0.4175  0.4352
16706TIP3    H171609   4.669   2.258   0.315  0.5385 -0.2271 -0.1608
16706TIP3    H271610   4.708   2.274   0.169 -1.0355  0.7067 -0.4902
16707TIP3   OH271611   2.399   6.587  14.956 -0.5483 -0.4582 -0.3902
16707TIP3    H171612   2.466   6.529  14.993 -0.5936 -0.0940  0.2846
16707TIP3    H271613   2.447   6.646  14.899 -0.4987 -1.1456 -1.0652
16708TIP3   OH271614   5.344   1.303   5.519  0.1893 -0.9786  0.0497
16708TIP3    H171615   5.431   1.295   5.558 -0.0049  1.1465  0.9883
16708TIP3    H271616   5.361   1.325   5.428  0.6307 -0.7549  0.1839
16709TIP3   OH271617   4.028   5.675   5.798 -0.1327 -0.6628 -0.1533
16709TIP3    H171618   4.113   5.639   5.824 -0.4420 -1.0588  0.3203
16709TIP3    H271619   4.001   5.621   5.724  1.3698  1.3198 -2.2011
16710TIP3   OH271620   6.046   3.157  11.717  0.1391 -0.1084 -0.2907
16710TIP3    H171621   6.121   3.209  11.688  1.9130 -1.3436  1.9356
16710TIP3    H271622   6.009   3.207  11.790 -0.5016 -0.0882 -0.6239
16711TIP3   OH271623   3.097   2.651  10.822 -0.3849 -0.8245  0.2073
16711TIP3    H171624   3.148   2.723  10.858 -1.2239 -1.0197  1.8100
16711TIP3    H271625   3.142   2.629  10.740  1.5924 -0.4264  1.1600
16712TIP3   OH271626   5.529   3.029  12.029  0.4216 -0.2613  0.5156
16712TIP3    H171627   5.467   3.043  12.100  1.4602  0.3814  1.3086
16712TIP3    H271628   5.615   3.044  12.068  0.8927  2.5408 -1.4339
16713TIP3   OH271629   4.868   5.697   3.891  0.0536  0.2588 -0.5035
16713TIP3    H171630   4.777   5.667   3.890 -0.9526  3.1053 -0.0486
16713TIP3    H271631   4.916   5.626   3.933 -2.0839 -1.0030 -0.0948
16714TIP3   OH271632   2.188   1.660  10.568 -0.4417 -0.0960  0.6655
16714TIP3    H171633   2.234   1.741  10.585  0.0635 -0.6771  2.1009
16714TIP3    H271634   2.255   1.601  10.533 -0.0910 -0.9148  2.6762
16715TIP3   OH271635   5.666   6.612   5.003  0.5323  0.1811 -0.0334
16715TIP3    H171636   5.690   6.610   5.095 -1.7070  1.5330  0.6105
16715TIP3    H271637   5.670   6.705   4.979  2.7463 -0.3264 -1.7698
16716TIP3   OH271638   1.958   0.968   4.316 -0.2416  0.4341  0.2021
16716TIP3    H171639   2.006   0.904   4.368 -1.9258 -0.5029  0.6474
16716TIP3    H271640   2.020   1.040   4.303  0.5158  0.2850  2.7303
16717TIP3   OH271641   1.457   2.575  15.980 -0.3252  0.7018 -0.4036
16717TIP3    H171642   1.410   2.580  15.897  0.0114  0.8764 -0.5849
16717TIP3    H271643   1.485   2.483  15.986 -2.0733  0.1917  0.4826
16718TIP3   OH271644   1.587   3.554   4.907  0.0920  0.0768 -0.0784
16718TIP3    H171645   1.661   3.614   4.912 -0.5437  0.7853  1.0839
16718TIP3    H271646   1.510   3.611   4.912 -0.5185 -0.8636  1.7238
16719TIP3   OH271647   5.202   1.115  14.716 -0.2885 -0.2342  0.0247
16719TIP3    H171648   5.277   1.145  14.769 -1.9769  0.8590  1.8783
16719TIP3    H271649   5.160   1.049  14.771 -1.5492  0.2610 -0.3429
16720TIP3   OH271650   1.564   0.355  16.699  0.0870  0.4946  0.2571
16720TIP3    H171651   1.471   0.364  16.679 -0.3357 -0.5451  1.6744
16720TIP3    H271652   1.567   0.304  16.780  1.9959 -1.9882 -1.2929
16721TIP3   OH271653   0.786   6.347  12.620  0.3548 -0.0883 -0.0840
16721TIP3    H171654   0.877   6.318  12.619 -0.5064 -2.8802 -0.9345
16721TIP3    H271655   0.782   6.417  12.554  1.8554  0.0206 -0.0635
16722TIP3   OH271656   1.120   6.243  15.032 -0.2021  0.6670 -0.4525
16722TIP3    H171657   1.200   6.288  15.061  0.3525 -0.3189 -0.4497
16722TIP3    H271658   1.142   6.150  15.034 -1.8689  0.2816  1.1195
16723TIP3   OH271659   1.933   5.857  12.670  0.2187 -0.1935  0.1395
16723TIP3    H171660   1.946   5.870  12.764  2.0182 -0.0664 -0.1040
16723TIP3    H271661   1.967   5.770  12.652 -1.4941 -0.8105 -0.1494
16724TIP3   OH271662   5.287   5.642  13.120 -0.2149 -0.1657 -0.1217
16724TIP3    H171663   5.257   5.715  13.174  0.7186 -0.5510  0.9330
16724TIP3    H271664   5.373   5.669  13.089  1.2126 -1.8233  2.2719
16725TIP3   OH271665   2.304   3.309   4.761  0.3762  0.0358  0.3641
16725TIP3    H171666   2.311   3.377   4.694 -0.0556  0.9923  1.2832
16725TIP3    H271667   2.242   3.245   4.725 -0.5835  1.0255  0.2599
16726TIP3   OH271668   0.420   0.440   1.852  0.5100  0.4306 -0.0123
16726TIP3    H171669   0.477   0.516   1.845  3.1938 -1.5627 -0.3149
16726TIP3    H271670   0.415   0.421   1.945 -0.7556  1.3786  0.1289
16727TIP3   OH271671   1.232   2.847  16.008  0.5206 -0.6074  0.2829
16727TIP3    H171672   1.188   2.830  16.091 -0.0673 -0.2214  0.0539
16727TIP3    H271673   1.220   2.766  15.957 -0.9651 -0.0814 -0.2328
16728TIP3   OH271674   3.756   0.537  12.458 -0.2854  0.0859  0.3567
16728TIP3    H171675   3.669   0.498  12.456 -0.6452  0.8823  0.1084
16728TIP3    H271676   3.744   0.624  12.420  0.5881  0.2619  0.4687
16729TIP3   OH271677   0.072   4.141   3.802 -0.3129  0.2444  0.2623
16729TIP3    H171678   0.127   4.138   3.881 -0.1750  2.7527  0.3164
16729TIP3    H271679   0.085   4.056   3.761  1.8506 -0.0658  1.4781
16730TIP3   OH271680   1.475   5.728  11.336 -0.0123 -0.5854 -0.0209
16730TIP3    H171681   1.434   5.778  11.406 -0.3417 -1.0822  0.1488
16730TIP3    H271682   1.408   5.664  11.310  0.1612 -0.4981 -0.6849
16731TIP3   OH271683   1.289   2.316   1.132  0.1818 -0.0258 -0.0657
16731TIP3    H171684   1.244   2.260   1.195 -0.5391  1.1553  0.4804
16731TIP3    H271685   1.363   2.264   1.102 -0.3984 -1.2120  0.5489
16732TIP3   OH271686   4.966   4.699   4.296 -0.1131  0.4354 -0.5128
16732TIP3    H171687   4.981   4.622   4.350  4.1005  3.3250  2.7996
16732TIP3    H271688   5.043   4.703   4.239 -0.2844  2.0961 -0.6550
16733TIP3   OH271689   5.456   4.910   5.601 -0.0686  0.2833  0.6018
16733TIP3    H171690   5.540   4.952   5.584  0.3929 -0.4795  0.9661
16733TIP3    H271691   5.420   4.893   5.514  1.7502 -2.5404  0.3255
16734TIP3   OH271692   3.094   4.012   4.181 -0.0474  0.2142 -0.2740
16734TIP3    H171693   3.091   4.071   4.257 -1.3606  0.7796 -0.7597
16734TIP3    H271694   3.103   3.925   4.219 -1.4232  0.4189  0.5676
16735TIP3   OH271695   1.758   4.158   0.166 -0.1536 -0.0693 -0.3747
16735TIP3    H171696   1.847   4.188   0.184 -1.0562  1.5305  1.6191
16735TIP3    H271697   1.730   4.115   0.247 -1.8599  1.1190 -0.3230
16736TIP3   OH271698   5.905   2.381   4.236 -0.4699 -0.1549 -0.6194
16736TIP3    H171699   5.977   2.426   4.280 -1.2028  0.1919  0.2565
16736TIP3    H271700   5.926   2.386   4.143  0.0150  1.0326 -0.4559
16737TIP3   OH271701   1.003   2.199   5.543  0.3467  0.3468 -0.3724
16737TIP3    H171702   1.003   2.252   5.463 -1.1033 -0.8622 -1.1900
16737TIP3    H271703   0.931   2.137   5.532  1.6308 -1.4342  0.8182
16738TIP3   OH271704   0.826   3.783   4.458 -0.0146  0.0700 -0.1053
16738TIP3    H171705   0.850   3.715   4.521  1.1099  1.1549  0.6787
16738TIP3    H271706   0.731   3.786   4.462  0.0383  0.1927  1.6632
16739TIP3   OH271707   0.613   0.947   2.277 -0.0058 -0.3101 -0.0372
16739TIP3    H171708   0.602   0.975   2.186 -2.0358 -2.7061 -0.5694
16739TIP3    H271709   0.706   0.927   2.284 -0.1007 -1.6303 -2.0669
16740TIP3   OH271710   4.920   2.460   2.032  0.0334  0.0687 -0.1350
16740TIP3    H171711   4.899   2.506   2.113  3.3211  1.4898  0.0258
16740TIP3    H271712   4.955   2.529   1.975  2.3727 -1.7231 -0.9491
16741TIP3   OH271713   5.787   4.512  11.795 -0.4554  0.6263  0.2468
16741TIP3    H171714   5.797   4.417  11.803 -1.4876  0.4693 -0.2990
16741TIP3    H271715   5.844   4.535  11.721  0.3018  0.5322  0.7895
16742TIP3   OH271716   0.735   6.736   4.619  0.0384  0.0301 -0.0895
16742TIP3    H171717   0.677   6.675   4.666 -0.2106  0.1315 -0.2634
16742TIP3    H271718   0.769   6.684   4.546 -2.6342  0.9761 -2.1018
16743TIP3   OH271719   0.401   5.879   1.297 -0.5538 -0.0701 -0.1762
16743TIP3    H171720   0.400   5.964   1.253  1.3728 -0.0340 -0.2029
16743TIP3    H271721   0.366   5.817   1.233 -3.3331  0.9090  0.3485
16744TIP3   OH271722   4.108   0.445   1.067  0.0583 -0.1126 -0.2382
16744TIP3    H171723   4.061   0.480   0.991 -1.1081  0.8154  0.9003
16744TIP3    H271724   4.074   0.356   1.076  2.5427 -1.3956 -2.7257
16745TIP3   OH271725   3.822   2.222  16.986 -0.3208 -0.3687  0.1789
16745TIP3    H171726   3.803   2.237  16.893  1.6314 -0.1050 -0.1881
16745TIP3    H271727   3.735   2.222  17.028 -1.0126  3.2832 -1.0790
16746TIP3   OH271728   5.912   0.905   3.067 -0.6781  0.4415 -0.3285
16746TIP3    H171729   5.827   0.905   3.023  0.2946  0.6960 -2.2829
16746TIP3    H271730   5.976   0.898   2.996  0.9438  0.3523  1.0938
16747TIP3   OH271731   0.003   4.247   4.369  0.4926 -0.2711 -0.2565
16747TIP3    H171732   0.018   4.216   4.280  1.4209  0.9784 -0.5454
16747TIP3    H271733   0.089   4.275   4.399 -0.2851  1.8173  0.0694
16748TIP3   OH271734   6.114   4.252  11.718  0.0362 -0.1489  0.2501
16748TIP3    H171735   6.190   4.227  11.665  0.3949 -0.2187  0.7968
16748TIP3    H271736   6.054   4.293  11.656  0.4220 -0.3040 -0.2277
16749TIP3   OH271737   2.895   5.817   1.194  0.5643 -0.3976 -0.2762
16749TIP3    H171738   2.903   5.782   1.282 -0.7703 -0.3089 -0.1035
16749TIP3    H271739   2.834   5.758   1.150  0.7031 -0.0596 -0.9270
16750TIP3   OH271740   3.133   2.778   2.242  0.6758 -0.5791  0.4226
16750TIP3    H171741   3.043   2.807   2.225  1.0719  1.0226  0.9709
16750TIP3    H271742   3.182   2.807   2.165  1.0789  0.2030  0.9735
16751TIP3   OH271743   5.945   0.569  15.129  1.1037 -0.2046  0.0209
16751TIP3    H171744   5.928   0.651  15.176 -1.0905 -0.2889 -0.5747
16751TIP3    H271745   6.034   0.579  15.095  0.5142  2.3551 -0.8796
16752TIP3   OH271746   3.574   0.463   0.679  0.2396 -0.3075 -0.3546
16752TIP3    H171747   3.562   0.537   0.738 -2.8370 -1.2514  0.2864
16752TIP3    H271748   3.600   0.502   0.596 -0.5513  1.4377  0.2005
16753TIP3   OH271749   5.110   3.029  13.579 -0.2554 -0.2078  0.0876
16753TIP3    H171750   5.165   3.018  13.656  1.9105  1.9121 -1.1210
16753TIP3    H271751   5.104   2.941  13.541  1.4974 -0.6275  0.7672
16754TIP3   OH271752   4.756   3.696  14.549  0.1401  0.3939 -0.5946
16754TIP3    H171753   4.713   3.779  14.528 -0.1720  0.7042  1.2149
16754TIP3    H271754   4.829   3.720  14.606 -0.3535 -0.6301  0.4897
16755TIP3   OH271755   0.332   4.487  16.706 -0.0872  0.0443 -0.0620
16755TIP3    H171756   0.244   4.517  16.684  0.1971 -0.2974 -1.7105
16755TIP3    H271757   0.388   4.563  16.692 -0.5271  1.2532  4.1886
16756TIP3   OH271758   4.038   5.166   1.476 -0.1980 -0.2351  0.0126
16756TIP3    H171759   3.947   5.165   1.506 -0.1800 -0.7272  0.0641
16756TIP3    H271760   4.056   5.258   1.457 -0.4436 -0.0205  0.8016
16757TIP3   OH271761   2.072   6.803  13.786 -0.4300  0.5045  0.0854
16757TIP3    H171762   2.108   6.823  13.872 -0.5732  1.0490  0.0194
16757TIP3    H271763   2.132   6.738  13.749 -0.3747  0.2638  0.5995
16758TIP3   OH271764   3.862   2.602  16.082  0.2679 -0.4376 -0.6414
16758TIP3    H171765   3.806   2.560  16.147  1.4703  0.5692  1.0624
16758TIP3    H271766   3.932   2.643  16.132  0.9303  0.8218 -2.5184
16759TIP3   OH271767   4.742   1.152  16.294  0.4660 -0.1764  0.2058
16759TIP3    H171768   4.681   1.108  16.353 -0.6200 -1.7038 -1.9970
16759TIP3    H271769   4.696   1.229  16.263  0.2956 -0.4175 -0.1431
16760TIP3   OH271770   6.586   3.155   3.199 -0.1219 -0.1231  0.0965
16760TIP3    H171771   6.642   3.128   3.272 -0.5260 -2.4338 -0.4077
16760TIP3    H271772   6.581   3.077   3.143 -1.2505  1.0718 -1.4895
16761TIP3   OH271773   6.203   0.392   2.878 -0.8288  0.6474 -0.8866
16761TIP3    H171774   6.177   0.479   2.847 -2.2474  1.5232  2.5481
16761TIP3    H271775   6.127   0.337   2.859 -2.0174  1.3599  1.6088
16762TIP3   OH271776   4.969   2.208   0.975  1.1262  0.3353 -0.0195
16762TIP3    H171777   5.033   2.203   0.904  2.4133 -0.5118  1.1620
16762TIP3    H271778   4.987   2.130   1.029 -0.1896  0.6618  0.9269
16763TIP3   OH271779   0.135   2.625   4.629 -0.5340  0.0282 -0.3797
16763TIP3    H171780   0.047   2.597   4.601 -0.6429 -2.2886  2.0797
16763TIP3    H271781   0.119   2.704   4.681 -0.9511  0.5605 -1.2842
16764TIP3   OH271782   0.159   4.036  12.737  0.5406  0.2518 -0.5777
16764TIP3    H171783   0.115   3.989  12.807 -0.5240  0.9655 -0.7576
16764TIP3    H271784   0.147   3.981  12.660  1.1336 -0.2059 -0.3474
16765TIP3   OH271785   2.670   0.660   1.020 -0.3074 -0.1497 -0.5775
16765TIP3    H171786   2.679   0.682   0.928  1.2847  0.1450 -0.3619
16765TIP3    H271787   2.751   0.615   1.042 -0.3768  0.3900  0.8479
16766TIP3   OH271788   0.402   0.963  14.244  0.5730  0.2399 -0.1920
16766TIP3    H171789   0.440   0.922  14.167  0.7021 -1.7478  0.9071
16766TIP3    H271790   0.404   0.895  14.311 -2.6881  0.8202  0.5769
16767TIP3   OH271791   5.856   2.498   0.101 -0.0334 -0.4041 -0.5964
16767TIP3    H171792   5.889   2.587   0.088 -0.9709  0.0606  0.1164
16767TIP3    H271793   5.901   2.467   0.180 -0.8081  0.0002  0.0162
16768TIP3   OH271794   0.771   4.286   2.716  0.1167 -0.2889  0.3134
16768TIP3    H171795   0.699   4.345   2.691  0.3348  0.6861  1.9089
16768TIP3    H271796   0.850   4.335   2.692  0.2806 -0.7003  0.0106
16769TIP3   OH271797   3.149   1.543   2.131 -0.3380 -0.0422  0.2675
16769TIP3    H171798   3.145   1.490   2.210 -0.4571  2.2693  1.8841
16769TIP3    H271799   3.221   1.506   2.080 -1.1970 -2.4617  0.7496
16770TIP3   OH271800   5.913   1.381   0.445 -0.2341  0.0007 -0.2541
16770TIP3    H171801   5.936   1.348   0.532  0.6188 -0.6022 -0.6987
16770TIP3    H271802   5.882   1.470   0.460 -1.1191 -0.4623  0.7939
16771TIP3   OH271803   5.951   1.539   5.697  0.2726 -0.6915  0.3659
16771TIP3    H171804   5.960   1.448   5.725 -0.2549 -0.5727  0.9286
16771TIP3    H271805   6.038   1.577   5.706  0.2184 -0.7900  1.3743
16772TIP3   OH271806   5.001   0.157   6.309  0.6205  0.3901  0.0949
16772TIP3    H171807   4.972   0.068   6.329 -1.5429  0.6479 -1.7231
16772TIP3    H271808   5.019   0.155   6.215 -0.3914  2.1310 -0.1451
16773TIP3   OH271809   6.207   2.319   3.500  0.7055  0.2985 -0.2257
16773TIP3    H171810   6.159   2.397   3.475 -0.9869 -0.1827  1.4296
16773TIP3    H271811   6.141   2.250   3.503  1.7184 -0.6426  0.8566
16774TIP3   OH271812   5.361   3.279  11.943 -0.8505 -0.7777 -0.1024
16774TIP3    H171813   5.376   3.331  11.864  0.6268  0.6644  1.0949
16774TIP3    H271814   5.427   3.210  11.939 -2.1479 -1.9904 -1.1718
16775TIP3   OH271815   0.598   0.675   3.937 -0.0905  0.5485 -0.0570
16775TIP3    H171816   0.661   0.651   3.869  0.8141  1.2352  0.5193
16775TIP3    H271817   0.579   0.594   3.982  2.5062  0.7643  1.5187
16776TIP3   OH271818   1.479   6.507  11.296  0.2424 -0.0739  0.1196
16776TIP3    H171819   1.430   6.495  11.377 -1.0751 -0.9706 -0.8015
16776TIP3    H271820   1.468   6.599  11.274 -0.0058  0.0007  0.5670
16777TIP3   OH271821   3.524   2.641   4.681 -0.3070 -0.0599  0.4678
16777TIP3    H171822   3.522   2.625   4.776  1.4360  1.3821  0.7919
16777TIP3    H271823   3.474   2.722   4.670 -0.6854 -0.3418  0.1270
16778TIP3   OH271824   3.624   4.616  14.622 -0.2979  0.9347  0.2680
16778TIP3    H171825   3.627   4.536  14.673 -0.3948 -0.4336 -1.7831
16778TIP3    H271826   3.716   4.636  14.603 -0.2190  1.8726  1.6015
16779TIP3   OH271827   0.918   3.472   4.185 -0.3797 -0.1713 -0.0707
16779TIP3    H171828   0.894   3.562   4.166 -0.1029 -0.1107 -0.1459
16779TIP3    H271829   0.977   3.479   4.261  0.1712 -0.2290 -0.4923
16780TIP3   OH271830   0.651   0.244   1.114 -0.5039  0.6400  0.0574
16780TIP3    H171831   0.586   0.271   1.179  0.6970  0.8074  1.2136
16780TIP3    H271832   0.691   0.325   1.085  1.3255  0.3325  1.6390
16781TIP3   OH271833   3.911   5.225   4.212 -0.3328 -0.2981  0.0384
16781TIP3    H171834   3.896   5.293   4.279  0.4562 -0.2461  0.1644
16781TIP3    H271835   3.997   5.246   4.175 -0.4388 -0.7639 -0.4833
16782TIP3   OH271836   1.965   1.034   1.319 -0.3586 -0.1431 -0.1882
16782TIP3    H171837   1.953   0.993   1.233  0.0544  1.1550 -0.8870
16782TIP3    H271838   1.880   1.024   1.363 -0.9252  0.1728 -1.1919
16783TIP3   OH271839   5.134   0.598   2.289 -0.7288  0.1054  0.1412
16783TIP3    H171840   5.094   0.617   2.374 -1.1128  0.2042 -0.0581
16783TIP3    H271841   5.107   0.508   2.269  0.9412 -0.6042  1.0015
16784TIP3   OH271842   4.423   0.052  12.782  0.2501  0.4200 -0.5568
16784TIP3    H171843   4.391   0.032  12.870  1.3797 -0.1432 -0.2606
16784TIP3    H271844   4.359   0.014  12.723 -0.9124  1.4558  0.0212
16785TIP3   OH271845   5.167   4.872   2.712 -0.5202 -0.6250  0.6098
16785TIP3    H171846   5.080   4.901   2.739  0.5525  3.2728  0.0551
16785TIP3    H271847   5.171   4.892   2.619  0.7203 -1.4507  0.4768
16786TIP3   OH271848   5.085   1.338   1.178 -0.2903 -0.3629  0.1335
16786TIP3    H171849   5.044   1.355   1.263 -0.0300  2.5510 -0.2632
16786TIP3    H271850   5.179   1.340   1.196 -0.2022 -4.0187  0.4877
16787TIP3   OH271851   6.146   4.226   3.673 -0.2707 -0.3861 -0.3371
16787TIP3    H171852   6.123   4.133   3.675 -1.0483 -0.1980 -0.1655
16787TIP3    H271853   6.187   4.242   3.758  1.7497 -1.0313 -1.1727
16788TIP3   OH271854   1.097   1.470   0.602 -0.1295  0.0588  0.0377
16788TIP3    H171855   1.061   1.556   0.581  2.0625  0.8305 -0.6685
16788TIP3    H271856   1.096   1.466   0.698  0.2861  1.1150  0.0929
16789TIP3   OH271857   1.125   6.321   4.728  0.4956 -0.2348  0.1832
16789TIP3    H171858   1.043   6.371   4.738  0.5471 -0.0471 -0.2782
16789TIP3    H271859   1.101   6.248   4.671  0.2387 -1.1845  1.5169
16790TIP3   OH271860   5.063   2.261   4.995  0.3160  0.1281 -0.0206
16790TIP3    H171861   5.018   2.255   4.911  1.0776  0.7925 -0.4909
16790TIP3    H271862   5.123   2.335   4.984  0.8772 -0.1882  0.8950
16791TIP3   OH271863   0.143   0.927   6.094 -0.6590 -0.1012  0.1921
16791TIP3    H171864   0.147   0.881   6.009  2.2237  0.4814 -0.0378
16791TIP3    H271865   0.191   0.870   6.154  1.0008  1.4841  0.4231
16792TIP3   OH271866   2.721   5.143  12.760  0.0499 -0.0379 -0.0990
16792TIP3    H171867   2.710   5.176  12.849 -0.1323 -0.0597 -0.1127
16792TIP3    H271868   2.689   5.213  12.704 -0.1976 -0.1782 -0.1348
16793TIP3   OH271869   3.662   3.386   0.726 -0.4634 -0.1664  0.7401
16793TIP3    H171870   3.621   3.331   0.793 -1.4022  0.3880  0.6322
16793TIP3    H271871   3.717   3.326   0.676  0.4749 -0.5316  2.1792
16794TIP3   OH271872   5.607   2.284   5.307 -0.5926 -0.2393 -0.1389
16794TIP3    H171873   5.699   2.271   5.330 -0.5705 -1.5901 -0.9250
16794TIP3    H271874   5.608   2.293   5.212 -0.9420  2.8782  0.1318
16795TIP3   OH271875   3.433   0.454   5.456  0.4813  0.2304 -0.1658
16795TIP3    H171876   3.439   0.537   5.408 -2.6690 -0.1211 -1.3469
16795TIP3    H271877   3.413   0.480   5.546  0.3025  0.8007 -0.3630
16796TIP3   OH271878   6.816   4.936  14.487 -0.2574 -0.6471  0.6362
16796TIP3    H171879   6.749   4.868  14.494 -0.6497 -0.2700  0.5780
16796TIP3    H271880   6.843   4.934  14.395 -1.5873  0.5108  0.1993
16797TIP3   OH271881   6.486   2.727  13.064  0.2994 -0.5423  0.5690
16797TIP3    H171882   6.448   2.641  13.044  0.2474 -0.6994  1.3304
16797TIP3    H271883   6.463   2.781  12.989  0.5561 -1.2661 -0.0393
16798TIP3   OH271884   5.370   3.831   0.793 -0.0612 -0.3257  0.1546
16798TIP3    H171885   5.383   3.876   0.877  0.4518 -1.9134  0.9261
16798TIP3    H271886   5.457   3.826   0.754 -0.0627 -0.9977  0.2391
16799TIP3   OH271887   5.212   2.347  12.021 -0.4464  0.3242 -0.4439
16799TIP3    H171888   5.276   2.278  12.009 -0.9818 -0.0093 -1.5087
16799TIP3    H271889   5.173   2.331  12.107  1.2074  0.8040  0.4128
16800TIP3   OH271890   2.068   1.954  11.229 -0.5368 -0.1256  0.0053
16800TIP3    H171891   2.082   1.868  11.188 -2.2852 -1.4316  2.0217
16800TIP3    H271892   1.973   1.968  11.223 -0.5789  0.5316  1.7921
16801TIP3   OH271893   5.440   5.914   0.590  0.1401 -0.4498  0.6111
16801TIP3    H171894   5.399   5.863   0.660  3.2609 -0.9232  2.1663
16801TIP3    H271895   5.412   6.004   0.606 -1.0093 -0.8827  1.0944
16802TIP3   OH271896   1.446   4.952   1.109  0.1185  0.2667  0.1363
16802TIP3    H171897   1.473   5.011   1.039  0.7872  0.2453  0.3666
16802TIP3    H271898   1.372   4.904   1.073 -0.1480  0.9322 -0.2094
16803TIP3   OH271899   0.811   3.935   0.852 -0.0898  0.1580 -0.5370
16803TIP3    H171900   0.783   4.009   0.904 -0.4954  0.3711 -1.0539
16803TIP3    H271901   0.859   3.973   0.778  1.9390 -0.2145  0.5481
16804TIP3   OH271902   0.517   4.559  13.048  0.7104 -0.2206  0.2943
16804TIP3    H171903   0.486   4.594  13.131  0.9380 -0.2281  0.3832
16804TIP3    H271904   0.611   4.579  13.047  0.5723  0.4621 -0.2975
16805TIP3   OH271905   1.491   6.532   2.792 -0.4016 -0.3086  0.1752
16805TIP3    H171906   1.412   6.511   2.742 -1.0535  1.0753  0.5791
16805TIP3    H271907   1.560   6.539   2.727 -1.3190  1.8748 -0.6098
16806TIP3   OH271908   3.999   2.989   1.389 -0.1424 -0.3849  0.3967
16806TIP3    H171909   3.999   2.985   1.293  0.6797 -1.6022  0.4362
16806TIP3    H271910   4.074   2.936   1.415 -1.3083 -1.3983  1.7743
16807TIP3   OH271911   1.352   4.198  15.959 -0.3097 -0.1900  0.2456
16807TIP3    H171912   1.276   4.242  15.920 -0.7398 -0.9890  0.1577
16807TIP3    H271913   1.314   4.126  16.011  0.3658 -0.3766  0.4915
16808TIP3   OH271914   5.243   1.008   2.761  0.6938 -0.0789  0.0560
16808TIP3    H171915   5.154   1.010   2.726  1.5520 -0.2750 -2.2264
16808TIP3    H271916   5.243   0.934   2.822 -0.3441 -0.9222 -0.9481
16809TIP3   OH271917   3.097   2.265   6.521  0.3148  0.3510 -0.3898
16809TIP3    H171918   3.188   2.291   6.530  0.7054  0.0272 -3.0629
16809TIP3    H271919   3.047   2.345   6.541  1.2449  0.9871 -0.5748
16810TIP3   OH271920   4.861   0.435   6.386  0.1971 -0.2790  0.0614
16810TIP3    H171921   4.928   0.489   6.429  0.2430  1.4796 -2.1447
16810TIP3    H271922   4.893   0.425   6.296 -2.4347  0.5095 -1.0008
16811TIP3   OH271923   0.242   1.843  16.455  0.1478 -0.1610 -0.1002
16811TIP3    H171924   0.297   1.885  16.520  0.6644 -1.9406  0.6303
16811TIP3    H271925   0.191   1.914  16.417  1.4340  1.1978  0.6914
16812TIP3   OH271926   3.723   0.275  12.210  0.4709 -0.8516  0.2568
16812TIP3    H171927   3.655   0.287  12.276 -2.3492 -2.7189 -2.1834
16812TIP3    H271928   3.790   0.222  12.254  0.7074  1.4725  2.8542
16813TIP3   OH271929   4.453   5.030  14.510 -0.0406  0.0007  0.4022
16813TIP3    H171930   4.538   5.075  14.511  1.4581 -2.7101 -0.2974
16813TIP3    H271931   4.417   5.045  14.597  0.7002  2.0074  0.3870
16814TIP3   OH271932   1.620   3.166   4.791 -0.0346 -0.2003  0.3201
16814TIP3    H171933   1.603   3.155   4.885 -2.8464  1.2208  0.0438
16814TIP3    H271934   1.537   3.199   4.756  0.7700 -1.2964 -2.7799
16815TIP3   OH271935   1.011   4.992   2.218  0.0761  0.7018 -0.5209
16815TIP3    H171936   1.084   5.018   2.162  0.5441 -0.3398 -0.4255
16815TIP3    H271937   0.984   5.072   2.262  0.9147  1.1717 -0.8525
16816TIP3   OH271938   0.827   4.835  12.585  0.5742 -0.0653  0.0317
16816TIP3    H171939   0.850   4.903  12.522 -2.5766  0.9057 -0.1555
16816TIP3    H271940   0.775   4.880  12.651 -1.9483 -2.3331 -0.3267
16817TIP3   OH271941   3.280   3.151  11.046  0.3147  0.5890 -0.1750
16817TIP3    H171942   3.290   3.056  11.052 -0.1756  0.4985 -0.7377
16817TIP3    H271943   3.238   3.176  11.128 -0.3718  0.2021 -0.4039
16818TIP3   OH271944   4.017   6.126  12.557  0.2828  0.3490  0.5321
16818TIP3    H171945   3.992   6.037  12.582  0.9780  0.6302  2.2871
16818TIP3    H271946   4.102   6.116  12.514 -1.0348 -0.1662 -2.0063
16819TIP3   OH271947   3.128   6.789   4.938 -0.6040 -0.3372  0.1627
16819TIP3    H171948   3.077   6.774   5.017 -0.3304 -3.8643 -0.2747
16819TIP3    H271949   3.219   6.780   4.965 -0.4286  0.3709 -0.1722
16820TIP3   OH271950   0.039   1.503  13.965 -0.2654 -0.4659 -0.2392
16820TIP3    H171951  -0.027   1.571  13.975 -1.2648 -1.3711 -0.5355
16820TIP3    H271952   0.019   1.441  14.036  2.0762  0.6860  1.4998
16821TIP3   OH271953   2.549   3.462   3.603  0.2573  0.5290 -0.1031
16821TIP3    H171954   2.638   3.429   3.617  0.3469 -0.4081 -2.7314
16821TIP3    H271955   2.548   3.492   3.513 -2.0064  0.8516 -0.0038
16822TIP3   OH271956   6.175   2.292   5.227 -0.1278 -0.1820 -1.0887
16822TIP3    H171957   6.189   2.276   5.321  2.1304 -1.2156 -1.5745
16822TIP3    H271958   6.222   2.374   5.210  0.2393 -0.4826 -1.5140
16823TIP3   OH271959   6.532   2.963  17.099 -0.2016  0.4425 -0.0087
16823TIP3    H171960   6.545   3.024  17.027  2.2168  1.3644  1.1249
16823TIP3    H271961   6.562   2.878  17.065 -0.8316  0.4848 -0.6678
16824TIP3   OH271962   5.317   3.970  12.259 -0.7029  0.1153  0.0067
16824TIP3    H171963   5.337   4.023  12.182  0.9103 -0.8945 -0.3000
16824TIP3    H271964   5.225   3.989  12.278  0.3002  4.5836  1.1376
16825TIP3   OH271965   5.569   4.117  16.556 -0.1330 -0.1850 -0.4024
16825TIP3    H171966   5.590   4.207  16.580  0.0214  0.1874 -1.9183
16825TIP3    H271967   5.527   4.081  16.634 -1.7160  1.6877 -0.3522
16826TIP3   OH271968   6.029   6.349  15.716  0.2001  1.1283 -0.1733
16826TIP3    H171969   6.094   6.314  15.656 -0.2682  0.5816 -0.3647
16826TIP3    H271970   6.066   6.432  15.746  0.6610  1.1649 -0.8307
16827TIP3   OH271971   4.306   3.634   1.199 -0.0828 -0.7625  0.2271
16827TIP3    H171972   4.368   3.589   1.257  0.8098  1.7133  1.2650
16827TIP3    H271973   4.238   3.666   1.258  0.4234  1.0995 -0.1792
16828TIP3   OH271974   0.890   1.080  13.886  0.1574  0.1019 -0.3298
16828TIP3    H171975   0.880   1.009  13.823  0.3023 -0.2259  0.0178
16828TIP3    H271976   0.861   1.158  13.839  0.6899 -0.0717 -0.9515
16829TIP3   OH271977   5.160   5.953  16.564 -0.1004 -0.0337 -0.6802
16829TIP3    H171978   5.165   5.977  16.657  0.5189  0.5181 -0.8600
16829TIP3    H271979   5.106   6.021  16.525 -1.0520 -0.7132 -0.5799
16830TIP3   OH271980   5.799   0.734  16.365  0.0935 -0.3382  0.2522
16830TIP3    H171981   5.751   0.659  16.328 -1.4673  0.7076  0.1234
16830TIP3    H271982   5.791   0.803  16.300  1.7878 -0.1221  0.2345
16831TIP3   OH271983   1.473   5.877   0.444 -0.1281  0.3478  0.5254
16831TIP3    H171984   1.462   5.794   0.397 -0.3600  1.7520 -1.9798
16831TIP3    H271985   1.568   5.889   0.450 -0.0688  1.2412 -1.6469
16832TIP3   OH271986   2.171   3.780   5.605 -0.5583 -0.5075  0.2725
16832TIP3    H171987   2.216   3.864   5.605  0.9482 -1.2653 -1.2983
16832TIP3    H271988   2.093   3.793   5.551 -0.0247 -0.2631 -0.4406
16833TIP3   OH271989   1.089   0.085  15.694  0.2611 -0.2374 -0.1761
16833TIP3    H171990   1.180   0.113  15.699  0.1088  0.8997 -2.9174
16833TIP3    H271991   1.090   0.013  15.630 -0.6254 -0.8970  0.5373
16834TIP3   OH271992   5.880   0.067   3.092 -1.0026  0.0870  0.1801
16834TIP3    H171993   5.920  -0.018   3.074 -0.7906  0.1865  0.1814
16834TIP3    H271994   5.826   0.053   3.169 -1.0833 -0.0825  0.0933
16835TIP3   OH271995   4.408   2.054  17.192  0.5268  0.3787  0.0786
16835TIP3    H171996   4.319   2.073  17.162  0.0233 -0.1830  1.1920
16835TIP3    H271997   4.397   2.021  17.281  1.7798 -0.4666 -0.0649
16836TIP3   OH271998   4.616   5.073   5.419 -0.0034 -0.6170  0.5056
16836TIP3    H171999   4.589   5.043   5.506  0.2759 -0.5511  0.6118
16836TIP3    H272000   4.616   4.993   5.366  1.3601 -0.9149  0.9433
16837TIP3   OH272001   3.979   1.301   2.993  0.3202 -0.4981 -0.3349
16837TIP3    H172002   3.998   1.267   2.905 -0.8650  1.5380 -1.4045
16837TIP3    H272003   4.064   1.330   3.026  0.4447  0.8242 -1.7386
16838TIP3   OH272004   5.742   0.462  14.816 -0.1214 -0.1966  0.1393
16838TIP3    H172005   5.700   0.430  14.896 -0.8852 -1.9738 -0.9321
16838TIP3    H272006   5.831   0.427  14.821  0.3440  1.0657  0.9742
16839TIP3   OH272007   0.651   0.063   3.227 -0.1452 -0.2715  0.2705
16839TIP3    H172008   0.682   0.097   3.143 -2.6815 -2.4253 -1.6294
16839TIP3    H272009   0.635  -0.030   3.211 -3.7956 -0.0621  2.1572
16840TIP3   OH272010   3.607   0.252   6.424 -0.1529  0.1865 -0.2168
16840TIP3    H172011   3.621   0.200   6.504 -1.7589  0.0023 -0.0350
16840TIP3    H272012   3.677   0.318   6.426  0.1963 -0.1993  1.0185
16841TIP3   OH272013   5.143   4.633  11.580  0.1854 -0.1509  0.1571
16841TIP3    H172014   5.210   4.620  11.647 -0.1161  0.7415  0.6384
16841TIP3    H272015   5.114   4.723  11.592  1.1752  0.5262 -2.1146
16842TIP3   OH272016   6.206   2.223   4.968 -0.3643  0.4002  0.4482
16842TIP3    H172017   6.250   2.142   4.943  0.2694  0.6322  0.8135
16842TIP3    H272018   6.216   2.228   5.063  0.3913  1.3738  0.3189
16843TIP3   OH272019   5.372   5.810  16.748 -0.0112 -0.0662  0.1828
16843TIP3    H172020   5.277   5.799  16.756 -0.2546  1.1063 -0.9556
16843TIP3    H272021   5.408   5.739  16.801 -1.5150 -1.5059 -0.6630
16844TIP3   OH272022   0.853   4.065  16.747  0.2097 -0.0093 -0.2096
16844TIP3    H172023   0.808   4.115  16.679 -1.4600 -2.2085 -0.8044
16844TIP3    H272024   0.825   4.104  16.829 -0.5248  0.4730 -0.6865
16845TIP3   OH272025   1.366   0.594   1.353  0.1984  0.0429 -1.0459
16845TIP3    H172026   1.396   0.514   1.311 -0.1588  0.5683 -2.3257
16845TIP3    H272027   1.442   0.625   1.403  0.0318 -1.6176  0.2918
16846TIP3   OH272028   6.567   5.634   4.644 -0.1320  0.4445 -0.2024
16846TIP3    H172029   6.585   5.718   4.687  0.1750 -0.1829  0.9085
16846TIP3    H272030   6.551   5.657   4.552  1.4966  1.5632 -0.2294
16847TIP3   OH272031   4.574   2.630   1.270  0.0275  0.1207 -0.1878
16847TIP3    H172032   4.486   2.607   1.302 -0.5351  1.1160 -0.9840
16847TIP3    H272033   4.565   2.631   1.175  1.1243 -0.5805 -0.3101
16848TIP3   OH272034   0.444   5.722   4.615 -0.5181  0.7282 -0.2066
16848TIP3    H172035   0.416   5.749   4.528 -0.6052  0.0401 -0.3988
16848TIP3    H272036   0.367   5.678   4.652 -0.8257  1.9600  0.6320
16849TIP3   OH272037   2.751   1.745  16.537  0.2156  0.9227  0.0278
16849TIP3    H172038   2.750   1.832  16.577 -1.0932  0.4378  1.0751
16849TIP3    H272039   2.843   1.719  16.541  0.6774  2.4125 -0.6395
16850TIP3   OH272040   0.689   6.800   2.910 -0.2590  0.0509 -0.1842
16850TIP3    H172041   0.782   6.816   2.892 -0.5968  0.9203 -1.2003
16850TIP3    H272042   0.643   6.845   2.839 -1.5340  1.2177  1.3372
16851TIP3   OH272043   2.994   2.602  11.479  0.5312  0.0168 -0.4949
16851TIP3    H172044   3.039   2.518  11.489 -0.6701 -1.1152 -3.6338
16851TIP3    H272045   3.062   2.662  11.450  1.3243  0.0494  1.3848
16852TIP3   OH272046   2.852   1.142  12.512  0.0379  0.1496 -0.9516
16852TIP3    H172047   2.851   1.050  12.486 -0.5136  0.1555 -0.9503
16852TIP3    H272048   2.846   1.190  12.429  0.7560  0.1952 -0.9870
16853TIP3   OH272049   2.161   5.480   4.304 -0.0140 -0.4115  0.6911
16853TIP3    H172050   2.109   5.453   4.228 -0.9778 -1.8301  1.8217
16853TIP3    H272051   2.107   5.547   4.347  0.9600  1.0870 -0.3776
16854TIP3   OH272052   1.738   0.567  12.935  0.0910  0.2473 -0.0830
16854TIP3    H172053   1.819   0.538  12.893  0.3155  0.2498  0.3432
16854TIP3    H272054   1.695   0.486  12.961 -0.0257  0.2474 -0.2761
16855TIP3   OH272055   6.740   3.389   2.169  0.1391 -0.9039  0.2501
16855TIP3    H172056   6.741   3.295   2.186  0.9293 -0.7374  1.1557
16855TIP3    H272057   6.815   3.404   2.112  0.2876 -0.7456  0.4884
16856TIP3   OH272058   0.167   3.853   3.158  0.2993 -0.3953  0.1828
16856TIP3    H172059   0.176   3.758   3.152 -0.2207 -0.3771 -0.9383
16856TIP3    H272060   0.120   3.878   3.078 -0.3065  0.7073  0.8776
16857TIP3   OH272061   4.199   5.471  16.521  0.3056  0.5455  0.0024
16857TIP3    H172062   4.234   5.397  16.472 -0.7840 -0.2837  0.4638
16857TIP3    H272063   4.239   5.462  16.608  0.5233  0.7579 -0.0752
16858TIP3   OH272064   4.634   0.557   4.133  0.2660 -0.1243  0.2401
16858TIP3    H172065   4.608   0.633   4.186 -0.5881 -1.2236  1.4312
16858TIP3    H272066   4.719   0.582   4.097 -1.4560  2.7245 -2.0698
16859TIP3   OH272067   0.207   0.733  14.936 -0.2199  0.4902  0.0306
16859TIP3    H172068   0.146   0.803  14.958  0.8676  1.3737  0.2837
16859TIP3    H272069   0.293   0.775  14.937  0.5681 -1.1146  1.3878
16860TIP3   OH272070   6.513   0.003   2.475  0.4165  0.4205 -0.1633
16860TIP3    H172071   6.600  -0.024   2.448 -0.3069  0.0001 -2.1388
16860TIP3    H272072   6.471  -0.077   2.507  0.4704  0.4523 -0.0146
16861TIP3   OH272073   3.643   4.146   3.238 -0.0733  0.3432 -0.2039
16861TIP3    H172074   3.648   4.209   3.310  0.6169  1.8485 -1.5346
16861TIP3    H272075   3.634   4.200   3.160 -2.9776 -1.2981 -1.0985
16862TIP3   OH272076   1.853   6.019  12.173  0.0995  0.3344 -0.3456
16862TIP3    H172077   1.917   6.057  12.113  1.0434 -0.2749  0.2596
16862TIP3    H272078   1.904   5.993  12.250 -1.0857  1.1230  0.7466
16863TIP3   OH272079   1.328   4.656   3.085 -0.2154 -0.0430  0.7500
16863TIP3    H172080   1.282   4.697   3.011  0.4318 -2.7232 -1.2129
16863TIP3    H272081   1.415   4.636   3.051  0.1442 -1.1833  2.2885
16864TIP3   OH272082   2.657   1.549   6.223  0.1260 -0.0076 -0.4092
16864TIP3    H172083   2.654   1.606   6.146 -0.3053 -0.2316 -0.5615
16864TIP3    H272084   2.565   1.534   6.245  0.2515  0.4611  0.4529
16865TIP3   OH272085   4.080   1.311  16.952 -0.3897  0.2055  0.0331
16865TIP3    H172086   4.079   1.279  16.862 -0.1968 -0.1892  0.1723
16865TIP3    H272087   4.144   1.257  16.997 -0.0263  0.8186  0.2571
16866TIP3   OH272088   0.824   3.251   4.059 -0.2506  0.0152  0.2098
16866TIP3    H172089   0.742   3.229   4.103  0.6084 -0.5094  1.5905
16866TIP3    H272090   0.832   3.346   4.068  0.7373 -0.2662  2.7262
16867TIP3   OH272091   4.719   0.966  11.894  0.5321 -0.0704  0.3838
16867TIP3    H172092   4.729   0.885  11.945 -1.4890 -0.1220  0.7026
16867TIP3    H272093   4.644   1.010  11.933  0.3232  0.9547 -1.1602
16868TIP3   OH272094   5.342   4.264   1.686  0.1529 -0.3640 -0.1486
16868TIP3    H172095   5.357   4.333   1.751  0.1358  2.2414 -2.8223
16868TIP3    H272096   5.425   4.217   1.682  1.6174  2.2060 -1.3098
16869TIP3   OH272097   5.586   4.429  16.374  0.7326 -0.3067 -0.4907
16869TIP3    H172098   5.666   4.403  16.328  0.9740  0.8329 -0.7333
16869TIP3    H272099   5.608   4.422  16.466  1.7724  1.9035 -0.5361
16870TIP3   OH272100   1.398   3.449  13.700 -0.0371 -0.0398  0.7131
16870TIP3    H172101   1.399   3.533  13.655 -0.7701 -0.5153 -0.1931
16870TIP3    H272102   1.375   3.386  13.632  1.7596 -1.1458  1.1015
16871TIP3   OH272103   2.472   4.872  10.900  0.0817 -0.2788  0.4629
16871TIP3    H172104   2.400   4.814  10.876 -0.1621 -0.4381  1.5394
16871TIP3    H272105   2.439   4.960  10.883 -0.7564 -0.2919  1.9022
16872TIP3   OH272106   6.037   3.786  14.106  0.1184  0.3555 -0.0990
16872TIP3    H172107   6.120   3.741  14.125 -0.4578 -1.4870 -1.6881
16872TIP3    H272108   6.047   3.815  14.015 -0.4256  1.4550  0.1876
16873TIP3   OH272109   3.135   5.366   1.301  0.1520  0.3361 -0.2828
16873TIP3    H172110   3.194   5.406   1.237 -0.7269  0.7058 -0.8771
16873TIP3    H272111   3.186   5.295   1.339  0.8262  0.3613 -1.1125
16874TIP3   OH272112   3.240   6.271   6.068 -0.3090 -0.3354  0.0654
16874TIP3    H172113   3.268   6.360   6.091 -1.2019 -0.7488  2.8693
16874TIP3    H272114   3.316   6.234   6.022  0.2278  1.7102 -0.7838
16875TIP3   OH272115   4.322   1.396  15.840 -0.4699  0.3568 -0.2794
16875TIP3    H172116   4.308   1.317  15.788  0.7928 -0.1255  0.0772
16875TIP3    H272117   4.235   1.433  15.852 -0.8873 -0.0503 -1.9051
16876TIP3   OH272118   0.869   6.045  10.715 -0.3837 -0.2340 -0.1299
16876TIP3    H172119   0.945   5.989  10.702 -1.5605 -2.2869  1.6075
16876TIP3    H272120   0.905   6.128  10.746  1.1987 -0.7748 -0.4622
16877TIP3   OH272121   4.529   4.032   1.962  0.0731  0.1882  0.0121
16877TIP3    H172122   4.579   4.108   1.934 -1.5904  1.3310  0.1313
16877TIP3    H272123   4.594   3.961   1.965  1.4250  1.3551 -1.0514
16878TIP3   OH272124   2.421   1.526   6.337 -0.5383  0.3986  0.8231
16878TIP3    H172125   2.410   1.606   6.389  1.2458  1.2051 -0.0054
16878TIP3    H272126   2.356   1.533   6.268 -0.0219  1.4348  0.4232
16879TIP3   OH272127   2.497   2.033  14.432  0.5076  0.1105  0.0693
16879TIP3    H172128   2.430   2.068  14.490  1.7951  2.6723  0.0941
16879TIP3    H272129   2.556   2.107  14.415  3.6799 -2.1825  0.5329
16880TIP3   OH272130   4.382   6.149   4.865  0.3466  0.6918  0.2404
16880TIP3    H172131   4.435   6.177   4.791  1.5116 -0.4518  0.6163
16880TIP3    H272132   4.426   6.188   4.941 -0.3476  1.1488  0.4108
16881TIP3   OH272133   6.787   5.289   1.841 -0.1012 -0.5000  0.3035
16881TIP3    H172134   6.768   5.357   1.776  0.8194  0.0217  0.5697
16881TIP3    H272135   6.702   5.271   1.882 -0.1829  1.2544  0.9558
16882TIP3   OH272136   5.720   4.860  12.119 -0.1236 -0.1531  0.1634
16882TIP3    H172137   5.767   4.800  12.060 -0.2074 -0.7358  0.6818
16882TIP3    H272138   5.695   4.805  12.193 -1.3594  0.2099  0.0322
16883TIP3   OH272139   0.024   6.346  15.092 -0.0073  0.1047  0.4807
16883TIP3    H172140   0.081   6.411  15.133  1.3605 -0.8177  0.0323
16883TIP3    H272141   0.057   6.262  15.121 -0.2088 -0.4962 -0.9581
16884TIP3   OH272142   5.977   2.990  15.105 -0.4949 -0.2325 -0.1627
16884TIP3    H172143   5.903   2.989  15.165  1.0374 -0.2624  1.7870
16884TIP3    H272144   5.944   3.032  15.026 -2.7762 -0.9262  0.4023
16885TIP3   OH272145   4.192   3.286   4.874  0.9178  0.1451  0.1826
16885TIP3    H172146   4.189   3.350   4.803  2.4240 -1.2738 -1.2230
16885TIP3    H272147   4.102   3.278   4.903  0.4919  1.7775 -0.6561
16886TIP3   OH272148   1.674   0.482  12.478  0.6992  0.3250  0.1966
16886TIP3    H172149   1.760   0.514  12.507  1.3374 -0.5052 -0.7168
16886TIP3    H272150   1.673   0.499  12.384 -0.9353  2.0563  0.5013
16887TIP3   OH272151   5.302   1.181   0.238 -0.0273  0.0422  0.1898
16887TIP3    H172152   5.396   1.167   0.224  0.3934  1.6591  1.1892
16887TIP3    H272153   5.265   1.189   0.150  0.8497 -0.2179 -0.2041
16888TIP3   OH272154   4.562   3.495  14.191 -0.0851  0.3001  0.1647
16888TIP3    H172155   4.567   3.407  14.227 -1.0021  0.2394  0.1688
16888TIP3    H272156   4.641   3.539  14.222  0.8173 -0.7856 -0.5655
16889TIP3   OH272157   3.959   6.427   6.007  0.5423  0.0104 -0.1372
16889TIP3    H172158   3.900   6.362   6.045 -0.8312  0.6480 -1.1678
16889TIP3    H272159   3.980   6.486   6.080 -1.8791  1.0737 -0.2529
16890TIP3   OH272160   3.518   1.482  14.202  0.5074 -0.2149 -0.4725
16890TIP3    H172161   3.511   1.419  14.274 -1.7452  0.7518  0.1951
16890TIP3    H272162   3.587   1.543  14.230  1.2694 -1.1946 -0.2051
16891TIP3   OH272163   2.821   3.621  12.568 -0.1461  0.0956 -0.0032
16891TIP3    H172164   2.836   3.716  12.568  0.5151  0.0037 -0.8447
16891TIP3    H272165   2.739   3.610  12.520  1.9479 -0.0154 -3.8251
16892TIP3   OH272166   2.604   2.364   4.998 -0.2039 -0.2131 -0.1201
16892TIP3    H172167   2.686   2.408   4.975  1.2469 -2.1726  1.1019
16892TIP3    H272168   2.584   2.397   5.086 -1.3103  1.0459 -0.8282
16893TIP3   OH272169   6.144   3.092   6.357  0.1840  0.6172 -0.0186
16893TIP3    H172170   6.213   3.087   6.291  0.5572 -2.7201  0.5762
16893TIP3    H272171   6.190   3.099   6.440 -0.2660  1.8542  0.1429
16894TIP3   OH272172   2.496   0.153   3.279 -0.0199 -0.4237 -0.0721
16894TIP3    H172173   2.468   0.239   3.309 -0.9006 -1.6505  2.8139
16894TIP3    H272174   2.436   0.131   3.208 -0.4615  0.8909 -0.1140
16895TIP3   OH272175   2.564   1.790  12.511  0.5180 -0.1301  0.0554
16895TIP3    H172176   2.596   1.859  12.452  1.0259  0.5454  1.1172
16895TIP3    H272177   2.479   1.822  12.542  0.8952  0.1679  0.7919
16896TIP3   OH272178   6.619   5.210  13.388 -0.0440 -0.4652 -0.2910
16896TIP3    H172179   6.647   5.254  13.467  1.1006  0.0438 -0.9759
16896TIP3    H272180   6.558   5.271  13.346  2.0456  0.7794 -1.5767
16897TIP3   OH272181   0.978   5.282   4.397 -0.1114  0.0738 -0.8169
16897TIP3    H172182   0.943   5.309   4.482 -0.3366  1.5136 -1.3516
16897TIP3    H272183   0.983   5.363   4.346  1.7654 -0.4761 -1.5601
16898TIP3   OH272184   1.624   4.451   0.551 -0.3670  0.6305  0.8924
16898TIP3    H172185   1.659   4.373   0.508 -0.9586  1.8883 -1.9814
16898TIP3    H272186   1.692   4.477   0.613  0.4057 -1.3789  0.9346
16899TIP3   OH272187   2.254   3.019   6.499 -0.0627 -0.6272 -0.5895
16899TIP3    H172188   2.258   3.021   6.404  0.8994 -0.6537 -0.5506
16899TIP3    H272189   2.162   3.002   6.519 -0.5524  0.9087 -1.4834
16900TIP3   OH272190   0.016   0.548  14.906 -0.6994  0.4155  0.1078
16900TIP3    H172191   0.043   0.478  14.846  0.3000 -0.1950  1.2429
16900TIP3    H272192   0.093   0.605  14.912 -1.4116  1.4566 -0.5875
16901TIP3   OH272193   5.557   5.866  15.580  0.5450  0.3510  0.3605
16901TIP3    H172194   5.480   5.835  15.626  1.0219 -2.2579 -0.4981
16901TIP3    H272195   5.630   5.845  15.638  0.8537  0.0787 -0.1210
16902TIP3   OH272196   6.014   1.800   5.526  0.2573 -0.2687  0.0984
16902TIP3    H172197   6.056   1.739   5.588  1.6718  1.6260  1.0512
16902TIP3    H272198   5.972   1.743   5.462 -1.0118 -2.2999  2.6438
16903TIP3   OH272199   0.845   2.704  16.591  0.1994  0.1397  0.0528
16903TIP3    H172200   0.824   2.631  16.649 -0.8571  0.1321 -0.3334
16903TIP3    H272201   0.923   2.675  16.543  0.1815 -0.4599  0.3832
16904TIP3   OH272202   2.410   3.578  16.441 -0.4526 -0.1317  0.1751
16904TIP3    H172203   2.335   3.635  16.425  0.1382  0.1319 -1.8089
16904TIP3    H272204   2.460   3.623  16.510  0.1097  1.8838 -1.4849
16905TIP3   OH272205   5.608   2.881  12.517 -0.1902  0.0692 -0.7550
16905TIP3    H172206   5.537   2.944  12.530  0.0677  0.4381 -1.1332
16905TIP3    H272207   5.570   2.811  12.465 -0.8938 -0.8177  0.9046
16906TIP3   OH272208   1.340   6.760   0.970  0.2790 -0.0629  0.0941
16906TIP3    H172209   1.422   6.803   0.947  0.1733  0.4501  0.6888
16906TIP3    H272210   1.360   6.708   1.047  0.2622 -0.6311 -0.2800
16907TIP3   OH272211   3.342   0.641  11.681  0.4931 -0.4169  0.2549
16907TIP3    H172212   3.268   0.588  11.651  0.4154  0.2388 -0.7487
16907TIP3    H272213   3.414   0.578  11.691  0.4762 -0.6979 -1.1887
16908TIP3   OH272214   6.329   6.085  16.331 -0.2112  0.4274 -0.0851
16908TIP3    H172215   6.310   6.178  16.340  1.9124  1.1168 -2.1592
16908TIP3    H272216   6.276   6.057  16.256 -0.7143 -0.0055  0.4281
16909TIP3   OH272217   0.312   2.446   4.760  0.0726  0.1395  0.2925
16909TIP3    H172218   0.271   2.509   4.700 -2.9982 -1.0752  1.0450
16909TIP3    H272219   0.335   2.498   4.837  0.2473  0.8960 -0.2592
16910TIP3   OH272220   1.632   6.495   4.220 -0.1359  0.1100  0.1203
16910TIP3    H172221   1.622   6.569   4.160 -0.4410  0.1023  0.1587
16910TIP3    H272222   1.620   6.418   4.164 -0.9631  0.1118  0.2824
16911TIP3   OH272223   1.498   2.400   2.176  0.6113  0.6131 -0.4584
16911TIP3    H172224   1.494   2.369   2.267  1.6321 -2.8463 -1.5188
16911TIP3    H272225   1.570   2.349   2.137 -1.0082  0.7088 -3.6694
16912TIP3   OH272226   4.678   1.957   1.287 -0.3534 -0.0349 -0.2299
16912TIP3    H172227   4.676   1.969   1.192  0.9786 -0.6965 -0.3526
16912TIP3    H272228   4.724   1.874   1.300 -0.9326 -0.1718  0.9783
16913TIP3   OH272229   1.976   2.019   5.072 -0.2169 -0.0765  0.0110
16913TIP3    H172230   1.918   1.962   5.123  0.2283  1.5544  2.4085
16913TIP3    H272231   2.008   2.083   5.135  1.5755  1.0787 -2.0194
16914TIP3   OH272232   5.311   2.936  12.933 -0.0285  0.2988  0.3588
16914TIP3    H172233   5.374   2.874  12.898 -0.4917 -0.2317  0.4712
16914TIP3    H272234   5.229   2.888  12.939 -0.6602  1.2299 -0.5903
16915TIP3   OH272235   1.948   6.469   5.995 -0.0359 -0.2607 -0.1592
16915TIP3    H172236   2.014   6.407   5.962 -0.8227 -1.7602  1.0072
16915TIP3    H272237   1.913   6.510   5.916  1.5673 -0.1969 -0.8562
16916TIP3   OH272238   4.239   0.450   5.285  0.0116  0.3807  0.1042
16916TIP3    H172239   4.187   0.462   5.205  1.1603 -0.0188 -0.7159
16916TIP3    H272240   4.236   0.535   5.328 -1.2030  0.4055  0.0110
16917TIP3   OH272241   1.112   4.689  15.073 -0.4907  0.6630  0.0039
16917TIP3    H172242   1.176   4.726  15.133  0.5531  0.7044 -1.1124
16917TIP3    H272243   1.086   4.762  15.016 -0.7931  0.4172 -0.1799
16918TIP3   OH272244   6.035   0.636   1.656  0.2939 -0.0508  0.2697
16918TIP3    H172245   6.050   0.563   1.716 -0.7215  0.7164  1.4899
16918TIP3    H272246   5.947   0.620   1.621  0.2049  0.4104  0.2825
16919TIP3   OH272247   4.594   3.301   0.832  0.3899 -0.0647  0.2754
16919TIP3    H172248   4.602   3.208   0.811  1.3776 -0.0228  0.4372
16919TIP3    H272249   4.564   3.341   0.751 -0.4777 -0.5836  0.3295
16920TIP3   OH272250   6.141   3.913   0.795 -0.5761  0.2963  0.5084
16920TIP3    H172251   6.152   3.933   0.702 -0.0890 -0.7493  0.3341
16920TIP3    H272252   6.218   3.861   0.818 -1.1469 -0.2259  1.2778
16921TIP3   OH272253   4.110   5.197   0.119  0.2407  0.1761 -0.2139
16921TIP3    H172254   4.058   5.126   0.157 -0.7225  0.0475 -1.7468
16921TIP3    H272255   4.196   5.189   0.160 -0.4367 -0.6673  1.0753
16922TIP3   OH272256   6.800   4.778   4.071  0.3002 -0.1420 -0.0636
16922TIP3    H172257   6.717   4.731   4.073 -0.3931  1.0429 -0.7203
16922TIP3    H272258   6.853   4.735   4.138 -1.2337 -0.1563  1.1697
16923TIP3   OH272259   5.160   1.005   3.217  0.1005  0.2601  0.2863
16923TIP3    H172260   5.118   0.918   3.213 -0.6526  0.5649  1.3142
16923TIP3    H272261   5.189   1.013   3.308 -1.4135  1.7991  0.6675
16924TIP3   OH272262   0.160   4.686   4.266  0.0139  0.1384 -0.1373
16924TIP3    H172263   0.175   4.775   4.300 -0.0928  0.0969  0.0215
16924TIP3    H272264   0.188   4.629   4.338 -0.2099  0.0489 -0.1227
16925TIP3   OH272265   3.743   0.001   2.039  0.2966 -0.2251  0.3571
16925TIP3    H172266   3.786  -0.036   1.961  0.2615  0.3439  0.0615
16925TIP3    H272267   3.764  -0.060   2.109  0.4189 -0.6902 -0.0808
16926TIP3   OH272268   3.224   0.190  15.493 -0.3927 -0.1529 -0.7369
16926TIP3    H172269   3.260   0.265  15.446 -0.0589 -0.8987 -1.6837
16926TIP3    H272270   3.266   0.114  15.453  0.5188 -0.7710  1.3302
16927TIP3   OH272271   1.265   3.517   4.149  0.3122  0.1271  0.2034
16927TIP3    H172272   1.261   3.610   4.174 -0.5005  0.3283 -0.6549
16927TIP3    H272273   1.277   3.518   4.054 -0.3469 -0.6454  0.1049
16928TIP3   OH272274   2.729   3.478   3.313 -0.2338  0.1236 -0.0811
16928TIP3    H172275   2.809   3.489   3.363 -0.3916 -0.0543  0.2171
16928TIP3    H272276   2.756   3.484   3.221 -0.0450  1.0854  0.0370
16929TIP3   OH272277   6.340   6.733   6.240  0.0068 -0.4310 -0.4988
16929TIP3    H172278   6.291   6.657   6.270 -0.7503  0.0461 -0.5229
16929TIP3    H272279   6.399   6.698   6.173  0.3402 -1.1567  0.1559
16930TIP3   OH272280   4.047   1.959  11.380  0.1162  0.5741 -0.0079
16930TIP3    H172281   4.064   1.892  11.314 -1.1632  0.2599 -0.0400
16930TIP3    H272282   4.120   2.021  11.372  0.9640 -0.4638 -0.4199
16931TIP3   OH272283   4.057   5.502   3.006  1.1443 -0.5002  0.5591
16931TIP3    H172284   4.066   5.455   2.923 -0.4750 -0.2738  0.2353
16931TIP3    H272285   4.121   5.573   3.001  0.2550  0.2309 -1.0273
16932TIP3   OH272286   1.188   3.558   0.746 -0.5166  0.5280  0.1071
16932TIP3    H172287   1.105   3.520   0.774  0.2535 -0.1993  1.4968
16932TIP3    H272288   1.252   3.488   0.760  0.5357  1.5211  0.3846
16933TIP3   OH272289   5.855   0.662   2.374 -0.1155 -0.3139 -0.3695
16933TIP3    H172290   5.830   0.644   2.465  2.1267 -1.4160  0.0476
16933TIP3    H272291   5.865   0.757   2.371  0.2497 -0.3123  0.6687
16934TIP3   OH272292   6.758   1.329  14.545 -0.5553 -0.5217 -0.7310
16934TIP3    H172293   6.710   1.380  14.481 -1.4221  0.1485  0.4321
16934TIP3    H272294   6.697   1.260  14.573 -0.4784 -0.3214 -0.0439
16935TIP3   OH272295   4.735   3.977  14.803  0.5004 -0.0801  0.2266
16935TIP3    H172296   4.806   3.913  14.813 -0.2572 -0.7636  1.4087
16935TIP3    H272297   4.655   3.925  14.803 -0.1643  0.8875  1.7531
16936TIP3   OH272298   6.790   5.705  13.671 -0.0477  0.0509 -0.3547
16936TIP3    H172299   6.780   5.657  13.589 -0.9527  0.6407 -0.5944
16936TIP3    H272300   6.818   5.639  13.735  1.4409 -0.2625 -1.3143
16937TIP3   OH272301   3.724   6.195  13.062  0.3495  0.1369  0.1083
16937TIP3    H172302   3.783   6.182  12.988 -1.4139  1.3757 -1.5737
16937TIP3    H272303   3.730   6.289  13.081 -3.5928  1.0037 -2.3660
16938TIP3   OH272304   2.666   6.353  15.399  0.0094 -0.1632  0.3530
16938TIP3    H172305   2.661   6.257  15.396 -0.3961 -0.1324  0.0421
16938TIP3    H272306   2.585   6.383  15.358  0.5781  0.3182 -0.4492
16939TIP3   OH272307   1.596   1.036   5.563 -0.2329 -0.2726  0.3098
16939TIP3    H172308   1.551   1.027   5.479  0.4793 -0.7192 -0.0266
16939TIP3    H272309   1.537   1.089   5.616 -1.8920 -2.1053  0.3780
16940TIP3   OH272310   3.885   2.605   1.367 -0.0356  0.5658  0.5954
16940TIP3    H172311   3.905   2.654   1.287 -1.9679  0.7965  0.2238
16940TIP3    H272312   3.959   2.623   1.425  0.8478  1.3128 -0.7248
16941TIP3   OH272313   6.309   5.177  10.703 -0.2922  0.3373 -0.4724
16941TIP3    H172314   6.243   5.111  10.725  0.5991  0.0122  1.3631
16941TIP3    H272315   6.329   5.219  10.787  2.2336  0.0522 -0.9010
16942TIP3   OH272316   1.064   1.303   6.156 -0.2092 -0.0142 -0.5022
16942TIP3    H172317   1.036   1.380   6.207  1.3569 -0.9468  1.8558
16942TIP3    H272318   1.001   1.235   6.179 -1.1150  0.3082 -1.9650
16943TIP3   OH272319   1.331   1.644  11.494  0.0932 -0.6283 -0.0134
16943TIP3    H172320   1.427   1.647  11.494  0.0553  1.2495  0.8757
16943TIP3    H272321   1.309   1.621  11.404  1.3481  2.1307 -1.1175
16944TIP3   OH272322   3.256   1.198   5.024 -0.8806  0.5241 -0.3121
16944TIP3    H172323   3.339   1.230   4.988 -0.8507 -0.2333 -0.9356
16944TIP3    H272324   3.251   1.238   5.111  0.5231 -0.0408  0.0523
16945TIP3   OH272325   1.831   0.295   3.682 -0.0493 -0.5054  0.3105
16945TIP3    H172326   1.843   0.209   3.721 -2.8178 -1.2271 -0.2992
16945TIP3    H272327   1.831   0.279   3.588 -0.5051  0.1403  0.1926
16946TIP3   OH272328   5.972   6.297   0.626 -0.7271 -0.2331  0.0743
16946TIP3    H172329   6.025   6.278   0.703 -2.2192  1.1813  1.4937
16946TIP3    H272330   6.031   6.343   0.566  0.0891 -0.1817  0.9165
16947TIP3   OH272331   3.913   1.887   4.327  0.6726  0.4110 -0.1433
16947TIP3    H172332   3.918   1.972   4.283  2.6887  0.7780  0.7402
16947TIP3    H272333   3.901   1.824   4.257  0.9547  1.2556 -0.9574
16948TIP3   OH272334   4.119   6.440  16.025 -0.2027  0.1415  0.5391
16948TIP3    H172335   4.024   6.454  16.030 -0.1274  0.1693  2.0935
16948TIP3    H272336   4.142   6.464  15.935 -1.7606 -0.4710 -0.0351
16949TIP3   OH272337   1.664   2.795  14.787 -0.1872  0.0579  0.3014
16949TIP3    H172338   1.661   2.891  14.782  0.9175  0.0327 -1.6667
16949TIP3    H272339   1.671   2.776  14.880  0.4015  1.9423  0.6763
16950TIP3   OH272340   1.363   4.795   2.086 -0.1983  0.4222  0.0519
16950TIP3    H172341   1.311   4.865   2.047 -0.6571 -0.2706 -0.6023
16950TIP3    H272342   1.452   4.810   2.054 -0.0954  1.2923  0.7335
16951TIP3   OH272343   0.880   2.736  12.258  0.0449  0.4134  0.8751
16951TIP3    H172344   0.889   2.787  12.178 -0.3296 -1.0730 -0.1362
16951TIP3    H272345   0.834   2.794  12.319  0.1381  1.4773 -0.0526
16952TIP3   OH272346   3.032   5.979   5.625 -0.0957 -0.1491 -0.8650
16952TIP3    H172347   2.973   5.925   5.573  0.3170 -2.4321  0.9570
16952TIP3    H272348   2.996   5.976   5.714  1.1239  0.8731 -0.3169
16953TIP3   OH272349   4.399   1.515   3.390 -0.7388  0.2369  0.3985
16953TIP3    H172350   4.358   1.585   3.339  0.0580  0.0031 -0.5947
16953TIP3    H272351   4.493   1.532   3.382 -0.4830 -1.6523 -0.9334
16954TIP3   OH272352   0.293   3.289  16.297  0.4597  1.0618  0.0104
16954TIP3    H172353   0.335   3.307  16.213  0.3429 -0.4743 -0.3841
16954TIP3    H272354   0.288   3.375  16.340  2.1511  1.5686 -0.7820
16955TIP3   OH272355   3.603   3.469   3.308  0.2266 -0.5600 -0.3716
16955TIP3    H172356   3.529   3.413   3.333 -0.5233  0.0625 -1.2046
16955TIP3    H272357   3.677   3.431   3.356 -0.3512 -2.0197 -0.5811
16956TIP3   OH272358   1.312   6.520  14.884 -0.3512  0.1722  0.3985
16956TIP3    H172359   1.352   6.437  14.913  1.4114  0.1353 -1.9369
16956TIP3    H272360   1.325   6.520  14.789 -2.7099  1.9239  0.0358
16957TIP3   OH272361   3.119   5.341  15.024 -0.2400  0.4585 -0.4063
16957TIP3    H172362   3.105   5.423  14.977 -0.0421 -0.3637 -1.9128
16957TIP3    H272363   3.202   5.307  14.991 -1.6818 -1.7464 -1.9116
16958TIP3   OH272364   0.463   6.269   4.305 -0.5438  0.0289 -0.0418
16958TIP3    H172365   0.500   6.255   4.393  0.5683  0.0768 -0.4877
16958TIP3    H272366   0.524   6.329   4.263 -0.9417 -0.1835 -0.9316
16959TIP3   OH272367   6.146   2.624  16.715 -0.3783  0.0921 -0.4303
16959TIP3    H172368   6.147   2.599  16.623  0.1329  4.0770 -1.5942
16959TIP3    H272369   6.062   2.668  16.728 -0.6791 -0.8999  1.1723
16960TIP3   OH272370   1.069   3.585   2.560 -0.0069 -0.0961 -0.4129
16960TIP3    H172371   1.092   3.539   2.640 -1.3102  1.3782  0.8447
16960TIP3    H272372   0.973   3.582   2.557 -0.0554  1.4657 -0.9286
16961TIP3   OH272373   1.117   5.919  14.049 -0.2238  0.1818 -0.2166
16961TIP3    H172374   1.065   5.945  14.125  0.3584 -0.1719  0.3098
16961TIP3    H272375   1.193   5.874  14.086 -1.1372 -2.1475 -1.0894
16962TIP3   OH272376   1.085   3.771   5.007  0.0174  0.3623  0.2743
16962TIP3    H172377   1.021   3.705   5.034 -0.4045  0.8549  0.4698
16962TIP3    H272378   1.033   3.841   4.969  0.3992  1.0530  1.0200
16963TIP3   OH272379   4.533   5.985  15.142 -0.3821 -0.1872  0.3551
16963TIP3    H172380   4.586   5.906  15.137 -0.8130 -0.7135  3.0936
16963TIP3    H272381   4.517   6.010  15.051  3.4602 -0.7370 -0.5724
16964TIP3   OH272382   0.334   4.992   1.459  0.6364  0.0765 -0.2291
16964TIP3    H172383   0.350   5.026   1.370 -1.5359  0.4997 -0.4811
16964TIP3    H272384   0.284   5.062   1.502  1.1622 -0.3849  1.1497
16965TIP3   OH272385   4.338   5.539  10.702 -0.6536  0.1273 -0.9416
16965TIP3    H172386   4.268   5.599  10.675 -1.2373  0.2215  0.6796
16965TIP3    H272387   4.299   5.452  10.696 -1.5459  0.2915  1.6360
16966TIP3   OH272388   4.990   4.789   2.912 -0.0703  0.1533  0.4097
16966TIP3    H172389   5.070   4.739   2.927  1.9921  2.5611 -1.9642
16966TIP3    H272390   4.942   4.738   2.847  0.4450 -0.3312  0.4022
16967TIP3   OH272391   5.036   0.618   0.381 -0.2959 -0.5465  0.2314
16967TIP3    H172392   5.023   0.712   0.368  0.4610 -0.2152  1.6869
16967TIP3    H272393   4.947   0.583   0.393 -0.5307  0.0940  0.3758
16968TIP3   OH272394   1.906   3.865  15.892 -0.5436 -0.3622  0.5257
16968TIP3    H172395   1.830   3.848  15.949  0.1837  0.3412  1.7315
16968TIP3    H272396   1.947   3.942  15.931  0.1962 -0.1148 -0.7450
16969TIP3   OH272397   2.775   3.913  14.053  0.1643  1.0281  0.4848
16969TIP3    H172398   2.717   3.978  14.012 -1.3245 -0.1766  0.6248
16969TIP3    H272399   2.762   3.834  14.002  1.4167  0.6370  0.7709
16970TIP3   OH272400   0.977   5.801   5.059 -0.2532 -0.7234  0.0999
16970TIP3    H172401   1.041   5.755   5.005 -0.0494  0.4799 -0.7037
16970TIP3    H272402   1.000   5.893   5.049 -0.0267 -0.4954  2.4780
16971TIP3   OH272403   3.817   5.151  10.798  0.1046  0.1505  0.4499
16971TIP3    H172404   3.894   5.156  10.854  0.2409 -0.2071  0.2995
16971TIP3    H272405   3.853   5.153  10.709 -0.1037  0.6254  0.3740
16972TIP3   OH272406   3.330   0.976   0.297  0.5116 -1.3478  0.3370
16972TIP3    H172407   3.354   1.063   0.327  0.4982 -0.6672 -1.5710
16972TIP3    H272408   3.355   0.918   0.369  3.4473 -0.1275  0.3658
16973TIP3   OH272409   3.190   4.654  12.178 -0.1618 -0.1432 -0.3479
16973TIP3    H172410   3.118   4.649  12.115 -1.0371 -1.5358  0.7384
16973TIP3    H272411   3.224   4.565  12.183  1.7783  0.5212 -0.9636
16974TIP3   OH272412   0.296   2.414  17.217  0.7317  0.2206  0.1698
16974TIP3    H172413   0.392   2.419  17.220  0.9542  0.1157 -3.9570
16974TIP3    H272414   0.277   2.347  17.152 -2.1419  1.3621 -0.2565
16975TIP3   OH272415   0.859   0.874   0.914 -0.1919  0.2561  0.3089
16975TIP3    H172416   0.816   0.789   0.913  1.2058 -0.4691  0.0059
16975TIP3    H272417   0.815   0.922   0.984 -0.2890 -1.1027  1.2083
16976TIP3   OH272418   6.241   0.315  10.666  0.4772 -0.2376 -0.4896
16976TIP3    H172419   6.150   0.343  10.674  0.5424  0.2084 -1.2926
16976TIP3    H272420   6.277   0.326  10.754 -0.7968 -2.3879  0.3254
16977TIP3   OH272421   0.327   3.362   3.961  0.6833  0.3672 -0.4350
16977TIP3    H172422   0.365   3.383   3.876  0.0545  0.2935 -0.7359
16977TIP3    H272423   0.269   3.288   3.943 -1.1014  1.7043 -0.3450
16978TIP3   OH272424   3.609   4.099   1.623 -0.0934  0.0432 -0.1050
16978TIP3    H172425   3.559   4.088   1.543 -0.0806  0.3986 -0.1632
16978TIP3    H272426   3.550   4.147   1.682  0.4664  1.1999 -0.4647
16979TIP3   OH272427   6.350   5.874  16.871 -0.0963 -0.1867 -0.2497
16979TIP3    H172428   6.410   5.801  16.853 -1.6229 -0.9974 -2.2099
16979TIP3    H272429   6.373   5.941  16.807  0.0396  0.3068  0.3091
16980TIP3   OH272430   0.537   4.094  15.179  0.5200  0.2195 -0.0377
16980TIP3    H172431   0.580   4.043  15.110  2.2470  2.0500 -0.3739
16980TIP3    H272432   0.471   4.145  15.133  0.5743  0.2408 -0.0918
16981TIP3   OH272433   4.243   4.621  11.109  0.3800 -0.5978  0.1312
16981TIP3    H172434   4.177   4.564  11.150  0.9302 -0.4386  1.2602
16981TIP3    H272435   4.252   4.586  11.020  1.0851 -2.6216  0.9732
16982TIP3   OH272436   1.651   2.399  12.045 -0.3406 -0.0034  0.1826
16982TIP3    H172437   1.574   2.341  12.040  0.7363 -1.6942  2.3289
16982TIP3    H272438   1.649   2.448  11.963 -1.5703 -2.7724 -1.5394
16983TIP3   OH272439   3.814   4.504  12.659  0.2850  0.2020  0.2178
16983TIP3    H172440   3.730   4.511  12.704  0.3176 -1.0446  0.4901
16983TIP3    H272441   3.840   4.412  12.671  2.7667  1.0910  2.1037
16984TIP3   OH272442   2.633   1.816  14.263  0.1488  0.8871 -0.4683
16984TIP3    H172443   2.576   1.843  14.335  2.3899  2.4567  0.7876
16984TIP3    H272444   2.697   1.886  14.256  2.3152 -1.1084 -1.4069
16985TIP3   OH272445   2.512   1.310   5.663 -0.1999 -0.4812 -0.0590
16985TIP3    H172446   2.538   1.366   5.736  0.3314  0.0438 -0.6366
16985TIP3    H272447   2.591   1.302   5.610 -1.0700  0.7310 -1.5856
16986TIP3   OH272448   0.417   4.608   2.463 -0.0424 -0.4500  0.6004
16986TIP3    H172449   0.331   4.635   2.431  0.8758  2.5866  0.5064
16986TIP3    H272450   0.476   4.621   2.389  0.7743 -0.9030  1.1636
16987TIP3   OH272451   2.891   2.551   1.482 -0.1942  0.0303 -0.1503
16987TIP3    H172452   2.849   2.620   1.430  1.7255  0.2267 -1.4730
16987TIP3    H272453   2.826   2.481   1.485 -1.8429  1.5557  0.5116
16988TIP3   OH272454   5.939   0.703  16.089  0.1148  0.5957 -0.0999
16988TIP3    H172455   5.872   0.765  16.062 -2.1241 -1.6911  0.0098
16988TIP3    H272456   5.963   0.657  16.009 -0.6142 -0.6082  0.3574
16989TIP3   OH272457   5.877   5.950   4.713 -0.2171  0.6564  0.1812
16989TIP3    H172458   5.851   5.858   4.700 -0.6509  0.3826  2.6534
16989TIP3    H272459   5.920   5.975   4.632 -1.1263 -1.3967 -0.9626
16990TIP3   OH272460   3.010   5.014  15.744 -0.7877 -0.4524 -0.0419
16990TIP3    H172461   3.023   4.919  15.745  0.7815 -0.2488  0.6508
16990TIP3    H272462   2.985   5.036  15.833  1.2248  0.0724  0.4169
16991TIP3   OH272463   3.289   4.680   3.205 -0.4923  0.3168  0.3469
16991TIP3    H172464   3.212   4.623   3.204 -0.5338  0.3814 -1.6248
16991TIP3    H272465   3.252   4.768   3.195 -0.2538  0.4764  0.8640
16992TIP3   OH272466   2.790   4.039  13.511  0.5349 -0.2728 -0.2569
16992TIP3    H172467   2.760   4.116  13.462 -0.5540 -0.8663 -0.5495
16992TIP3    H272468   2.847   4.075  13.579  0.0926  0.7966 -0.4276
16993TIP3   OH272469   5.024   6.448  15.286 -0.0743 -0.0771  0.3805
16993TIP3    H172470   5.026   6.362  15.244  1.4566  0.5464 -0.8741
16993TIP3    H272471   5.106   6.452  15.337  0.9734  1.4904 -1.3677
16994TIP3   OH272472   5.219   6.184   5.147  0.0131  0.2338 -0.6067
16994TIP3    H172473   5.216   6.239   5.069 -1.0400  2.2335  0.8058
16994TIP3    H272474   5.296   6.215   5.195 -1.9697  2.2240  1.4002
16995TIP3   OH272475   5.221   3.719   2.315 -0.0457 -0.0299 -0.1440
16995TIP3    H172476   5.164   3.732   2.391  0.9462  1.3795  0.3664
16995TIP3    H272477   5.253   3.806   2.294  0.3682 -0.5409 -1.6619
16996TIP3   OH272478   3.293   1.487  15.505 -0.5093  0.0766  0.7583
16996TIP3    H172479   3.288   1.394  15.527 -1.1150  0.3391  1.7485
16996TIP3    H272480   3.326   1.529  15.585  0.5525  0.6169  0.0528
16997TIP3   OH272481   4.749   4.533  15.305 -0.6174  0.2212  0.0179
16997TIP3    H172482   4.671   4.487  15.273 -0.0910 -1.5204  1.1893
16997TIP3    H272483   4.823   4.485  15.267 -0.0731  0.3989  0.8262
16998TIP3   OH272484   4.007   4.954   4.328 -0.3015 -0.3699  0.7181
16998TIP3    H172485   3.982   4.930   4.418 -0.6471  0.1530  0.7627
16998TIP3    H272486   3.950   5.028   4.306  1.1012  0.7462  0.7522
16999TIP3   OH272487   3.822   4.155  14.581  0.5384  0.5519 -0.2995
16999TIP3    H172488   3.780   4.228  14.536 -2.0572  0.0301  1.1573
16999TIP3    H272489   3.890   4.195  14.635  1.7745  1.4499 -2.4419
17000TIP3   OH272490   1.891   1.191  11.942  0.7830  0.5961 -0.0910
17000TIP3    H172491   1.848   1.129  11.882  2.8127  0.4164 -1.4029
17000TIP3    H272492   1.965   1.142  11.978  0.4983  1.2247  1.3958
17001TIP3   OH272493   2.874   0.298  15.408 -0.2281 -0.0281 -0.0570
17001TIP3    H172494   2.826   0.343  15.477 -0.4881 -0.2688 -0.0781
17001TIP3    H272495   2.965   0.298  15.437 -0.3431 -0.1605  0.3014
17002TIP3   OH272496   1.669   0.960  14.408 -0.2594  1.2334 -0.2345
17002TIP3    H172497   1.737   0.998  14.352  0.7044 -0.1864 -0.0581
17002TIP3    H272498   1.661   0.870  14.377 -1.0147  0.9612  0.7326
17003TIP3   OH272499   2.351   3.500  13.217  0.0728 -0.7505 -0.0491
17003TIP3    H172500   2.377   3.591  13.231 -1.0487 -0.3903 -0.2656
17003TIP3    H272501   2.424   3.462  13.168 -0.1392  0.4469 -1.3360
17004TIP3   OH272502   4.364   6.607   2.969 -0.1303  0.4880 -0.5273
17004TIP3    H172503   4.347   6.564   3.053 -0.8111  1.3313 -0.2266
17004TIP3    H272504   4.309   6.686   2.971 -1.8895 -0.6062 -2.6826
17005TIP3   OH272505   3.423   6.405  15.707 -0.2439  0.5501  0.3790
17005TIP3    H172506   3.335   6.374  15.686  0.8076 -2.0417 -0.3020
17005TIP3    H272507   3.465   6.419  15.622  0.2807  0.9631  0.7030
17006TIP3   OH272508   2.123   0.341   5.806  0.3078  0.0446  0.5945
17006TIP3    H172509   2.141   0.411   5.869 -0.0830 -1.0302  1.9062
17006TIP3    H272510   2.033   0.315   5.824 -0.4666  1.0351 -1.7064
17007TIP3   OH272511   4.626   2.726  14.614  0.1271 -0.0348  0.1822
17007TIP3    H172512   4.638   2.819  14.632 -0.5267  0.4448 -1.7653
17007TIP3    H272513   4.713   2.696  14.587  0.4541 -0.1255  1.2927
17008TIP3   OH272514   3.649   2.497  15.224 -0.5376  0.1570  0.3463
17008TIP3    H172515   3.589   2.473  15.294  0.5319 -2.4268  0.4279
17008TIP3    H272516   3.711   2.558  15.264  0.6299 -2.0306  1.9085
17009TIP3   OH272517   2.799   1.464  14.072 -0.6563  0.0569 -0.1139
17009TIP3    H172518   2.814   1.558  14.073 -3.0130  0.4782 -0.7163
17009TIP3    H272519   2.779   1.442  14.163 -2.1593  0.5386 -0.3043
17010TIP3   OH272520   3.482   3.550  13.823 -0.2271  0.5406 -0.0105
17010TIP3    H172521   3.398   3.512  13.797 -0.4785 -0.2136  1.8441
17010TIP3    H272522   3.535   3.546  13.743 -0.6656 -2.5665 -0.2388
17011TIP3   OH272523   2.800   2.482   3.793 -0.4881 -0.5409 -0.2510
17011TIP3    H172524   2.891   2.482   3.762 -0.4588  0.7041 -0.1692
17011TIP3    H272525   2.787   2.394   3.828  1.1278 -0.2822  1.0238
17012TIP3   OH272526   2.717   5.496  11.507 -0.5135 -0.1935  0.0953
17012TIP3    H172527   2.653   5.442  11.461 -0.9858  0.0359  0.4871
17012TIP3    H272528   2.746   5.442  11.581 -2.3308  0.7758  1.5481
17013TIP3   OH272529   0.092   1.985  16.282 -0.5262 -0.2164  0.3551
17013TIP3    H172530   0.048   2.032  16.211  0.9428 -0.4647 -0.7452
17013TIP3    H272531   0.048   2.016  16.361 -3.0061 -0.8498 -0.7282
17014TIP3   OH272532   3.548   5.264  14.514  0.0392 -0.2617  0.1592
17014TIP3    H172533   3.622   5.267  14.575  0.5602 -1.3483 -0.4033
17014TIP3    H272534   3.520   5.355  14.507  1.6024  0.2302  0.0487
17015TIP3   OH272535   0.612   6.334  10.974 -0.1236  0.0711 -0.0363
17015TIP3    H172536   0.544   6.367  10.916  0.3214 -0.3570 -0.8063
17015TIP3    H272537   0.588   6.242  10.990 -0.6307  0.3737  1.0335
17016TIP3   OH272538   4.834   1.008   1.914  0.3345  0.7922 -0.6733
17016TIP3    H172539   4.801   1.057   1.839  1.3274  2.7867  0.1246
17016TIP3    H272540   4.871   1.076   1.971 -2.1120 -0.4303  2.5094
17017TIP3   OH272541   2.585   4.293  14.051 -0.2034 -0.3334  0.1027
17017TIP3    H172542   2.533   4.250  14.119 -1.3269 -0.7490 -1.0028
17017TIP3    H272543   2.552   4.382  14.047  1.0958  0.2241  1.3383
17018TIP3   OH272544   3.258   2.464   4.688 -0.3043  0.2847  0.0738
17018TIP3    H172545   3.242   2.378   4.728 -0.0942 -0.7648 -2.0077
17018TIP3    H272546   3.348   2.485   4.711 -0.0313 -0.5307 -0.2078
17019TIP3   OH272547   4.324   3.827   1.552  0.4031 -0.4004  0.4826
17019TIP3    H172548   4.402   3.865   1.592 -0.6535  3.0467 -0.5211
17019TIP3    H272549   4.286   3.771   1.620  2.1404  0.2310  2.0034
17020TIP3   OH272550   5.011   2.583  13.112  0.1452 -0.1928 -0.1999
17020TIP3    H172551   4.934   2.632  13.080  0.3172 -0.0903 -0.4553
17020TIP3    H272552   5.028   2.621  13.199  2.0315  2.2049 -1.5509
17021TIP3   OH272553   5.594   6.403   2.706 -0.2673  0.1931  0.1870
17021TIP3    H172554   5.580   6.324   2.653  0.6953  0.1765 -0.0618
17021TIP3    H272555   5.507   6.428   2.736 -0.5606 -1.0820  0.4344
17022TIP3   OH272556   0.270   5.033  12.433 -0.6912 -0.1589 -0.0178
17022TIP3    H172557   0.305   5.084  12.360 -1.2817 -0.0622 -0.2396
17022TIP3    H272558   0.188   5.077  12.456 -1.4508 -1.2684 -0.5269
17023TIP3   OH272559   4.070   2.405   4.778 -0.2992 -0.0715 -1.0132
17023TIP3    H172560   4.095   2.316   4.805 -1.4186  0.0662  0.5480
17023TIP3    H272561   4.000   2.391   4.713 -0.1260 -0.3411 -1.1430
17024TIP3   OH272562   0.179   5.361   2.217  0.1876  0.1509  0.2510
17024TIP3    H172563   0.258   5.371   2.163  0.7487 -3.0337  0.3792
17024TIP3    H272564   0.143   5.449   2.222  2.8371  1.4064 -1.1885
17025TIP3   OH272565   5.770   6.294   2.899 -0.8362 -0.0684 -0.2197
17025TIP3    H172566   5.706   6.355   2.863 -0.7530  0.0155 -0.2286
17025TIP3    H272567   5.805   6.249   2.822 -0.2907  0.4702 -0.2964
17026TIP3   OH272568   0.279   1.868   0.275 -0.2311 -0.2719  0.4927
17026TIP3    H172569   0.373   1.868   0.257 -0.4446 -2.4816 -0.7804
17026TIP3    H272570   0.245   1.939   0.221  0.8221  1.2254  1.7482
17027TIP3   OH272571   3.248   3.791  15.001  0.0822  0.1318  0.5223
17027TIP3    H172572   3.209   3.873  15.032  1.9630  0.7394  1.3448
17027TIP3    H272573   3.253   3.736  15.080  0.3272 -0.1564  0.3066
17028TIP3   OH272574   0.483   1.037  12.977 -0.0978  0.1310  0.6403
17028TIP3    H172575   0.561   1.033  13.031 -0.8612  0.2135  1.7640
17028TIP3    H272576   0.411   1.049  13.039 -1.0898 -0.8257 -0.2940
17029TIP3   OH272577   0.636   0.405   3.809 -0.0886  0.1292 -0.5803
17029TIP3    H172578   0.562   0.376   3.862  0.1672  0.2884 -0.1262
17029TIP3    H272579   0.693   0.328   3.805 -1.5342 -0.8538 -3.2141
17030TIP3   OH272580   6.262   4.535   4.653  0.2402  0.4203  1.0452
17030TIP3    H172581   6.238   4.592   4.580  1.7553 -1.1141 -0.7191
17030TIP3    H272582   6.324   4.586   4.704  0.3477  0.9525  0.3925
17031TIP3   OH272583   5.785   1.417   3.043 -0.5419 -0.4611 -0.0071
17031TIP3    H172584   5.848   1.403   3.113  0.7322 -1.7578 -1.3987
17031TIP3    H272585   5.739   1.333   3.033 -0.4359 -0.4154 -0.9895
17032TIP3   OH272586   0.766   4.021   6.525  0.2358  0.1205 -0.2365
17032TIP3    H172587   0.731   4.020   6.614 -3.0082  0.9802 -1.4490
17032TIP3    H272588   0.691   4.006   6.469  1.5279  3.3108 -3.0280
17033TIP3   OH272589   5.119   0.793  11.758 -0.2711  0.4518  0.0443
17033TIP3    H172590   5.057   0.850  11.711 -1.1940 -0.4783  0.1025
17033TIP3    H272591   5.178   0.853  11.803  0.1668  1.3687 -1.7020
17034TIP3   OH272592   3.118   2.389   1.064 -0.8874  0.8452  0.0824
17034TIP3    H172593   3.124   2.473   1.018  0.6004  1.0028  0.5372
17034TIP3    H272594   3.125   2.411   1.156  0.2771  0.1555  0.1655
17035TIP3   OH272595   0.511   2.615   0.599 -0.2456 -0.2371 -0.2696
17035TIP3    H172596   0.485   2.659   0.680 -0.9249  0.0707 -0.6489
17035TIP3    H272597   0.588   2.663   0.569 -0.0967 -0.2421  0.1054
17036TIP3   OH272598   6.334   4.218   0.679  0.1583  0.2650  0.3682
17036TIP3    H172599   6.317   4.284   0.746 -0.4857  0.6376 -0.1610
17036TIP3    H272600   6.424   4.190   0.696  0.2807  0.9427  0.8758
17037TIP3   OH272601   4.571   1.077  16.497 -0.0576  0.0768  0.2711
17037TIP3    H172602   4.547   1.160  16.538 -1.7312  0.4971 -1.5009
17037TIP3    H272603   4.511   1.013  16.536 -1.7741  0.5102 -1.6366
17038TIP3   OH272604   1.137   2.348   0.175  0.7125  0.5979  0.3997
17038TIP3    H172605   1.065   2.411   0.186 -1.3324 -2.0201  2.9653
17038TIP3    H272606   1.204   2.379   0.235 -0.4222  0.2003  1.9139
17039TIP3   OH272607   3.200   1.817   0.595  0.1115 -0.1411  0.2260
17039TIP3    H172608   3.141   1.839   0.667  0.7948 -0.4985  0.8983
17039TIP3    H272609   3.145   1.771   0.532 -0.6049  0.6323  0.2788
17040TIP3   OH272610   5.294   2.901  11.901 -0.5171 -0.7227  0.3777
17040TIP3    H172611   5.246   2.900  11.984  0.6915 -1.3310  1.0783
17040TIP3    H272612   5.381   2.932  11.924  0.0916 -1.7362 -0.5175
17041TIP3   OH272613   3.470   3.019  12.916  0.0779  0.0145  0.2268
17041TIP3    H172614   3.474   3.010  12.821 -1.8562 -0.0244  0.1289
17041TIP3    H272615   3.530   2.951  12.949 -1.2722 -1.7879 -0.9160
17042TIP3   OH272616   6.192   3.277  10.900  0.0007  0.2959  0.4938
17042TIP3    H172617   6.202   3.190  10.938  2.8526  0.6916  0.7626
17042TIP3    H272618   6.166   3.333  10.973 -0.5282 -0.0776  0.5930
17043TIP3   OH272619   6.807   3.164   5.435 -0.1263 -0.1017  0.0250
17043TIP3    H172620   6.868   3.197   5.501 -0.8523  0.9011  0.1958
17043TIP3    H272621   6.721   3.169   5.476 -0.6656  1.1512 -1.2068
17044TIP3   OH272622   3.497   2.085   5.266 -0.3733  0.6318  0.4708
17044TIP3    H172623   3.490   2.022   5.338  0.0072  0.6298  0.5079
17044TIP3    H272624   3.420   2.068   5.212 -0.1980  0.0332  0.4025
17045TIP3   OH272625   3.639   4.803  15.817  1.1145  0.3324 -0.3235
17045TIP3    H172626   3.552   4.842  15.824 -0.0873 -1.9593 -1.8288
17045TIP3    H272627   3.681   4.850  15.745  0.5965  0.5079 -0.5146
17046TIP3   OH272628   3.192   3.527  16.615  0.6253  0.1501 -0.0105
17046TIP3    H172629   3.127   3.560  16.553  0.7252  0.2453 -0.0649
17046TIP3    H272630   3.199   3.434  16.595 -0.4082 -0.1186  0.8112
17047TIP3   OH272631   2.880   1.118  16.399  0.1948  0.2733 -0.5287
17047TIP3    H172632   2.850   1.193  16.449  0.8521  0.6041 -0.6266
17047TIP3    H272633   2.930   1.156  16.326 -1.1506 -0.1720 -1.7107
17048TIP3   OH272634   5.712   2.425  15.655  0.3601 -0.0221  0.1189
17048TIP3    H172635   5.803   2.438  15.682  0.5307 -1.2294  0.1266
17048TIP3    H272636   5.692   2.501  15.600  2.1416 -0.9367 -1.8488
17049TIP3   OH272637   4.665   1.599  13.948  0.1173 -0.0772 -0.1595
17049TIP3    H172638   4.754   1.567  13.935  0.9883  1.6586  1.3178
17049TIP3    H272639   4.629   1.607  13.860  0.8216 -2.3385 -0.6989
17050TIP3   OH272640   6.117   0.611  16.441 -0.1459  0.1235  0.2967
17050TIP3    H172641   6.116   0.606  16.536 -1.8912  2.1389  0.4148
17050TIP3    H272642   6.088   0.525  16.411 -0.7913 -0.1151  1.6095
17051TIP3   OH272643   4.601   4.393  10.891  0.2306  0.3869  0.0308
17051TIP3    H172644   4.581   4.487  10.893 -1.0728  0.1115  0.5666
17051TIP3    H272645   4.608   4.369  10.984  0.0776 -0.1522 -0.1014
17052TIP3   OH272646   3.697   2.380   4.150  0.3511 -0.1832 -0.1753
17052TIP3    H172647   3.681   2.333   4.068 -3.2239  0.2045  0.1955
17052TIP3    H272648   3.744   2.459   4.124 -0.3024 -0.3055 -1.8333
17053TIP3   OH272649   5.692   1.689   3.087  0.1088  0.1032 -0.5456
17053TIP3    H172650   5.772   1.735   3.110 -0.2296  0.7245 -0.5992
17053TIP3    H272651   5.721   1.616   3.032  0.9367 -1.4255  1.8505
17054TIP3   OH272652   1.946   1.373   1.971  0.0028 -0.0024  0.1180
17054TIP3    H172653   1.876   1.427   1.934  0.5570  2.3134  2.2636
17054TIP3    H272654   1.925   1.284   1.943 -3.4423  0.7202  0.1255
17055TIP3   OH272655   5.555   0.542  13.965  0.3595  0.4192 -0.0606
17055TIP3    H172656   5.475   0.553  13.913  0.2148  1.3238  0.3346
17055TIP3    H272657   5.623   0.521  13.901 -0.7242 -3.2394 -0.1345
17056TIP3   OH272658   0.569   0.252   2.761 -0.4898  0.6316  0.3174
17056TIP3    H172659   0.510   0.193   2.713  0.0107  0.7213 -0.4217
17056TIP3    H272660   0.629   0.285   2.694  1.3511 -0.6173  1.2951
17057TIP3   OH272661   2.316   4.975   3.927 -0.2912 -0.5745  0.1622
17057TIP3    H172662   2.359   5.025   3.857 -0.4351  0.2618  0.6652
17057TIP3    H272663   2.228   4.956   3.892 -0.9544  1.2852  0.7535
17058TIP3   OH272664   2.372   1.134  13.224 -0.3506  0.0123  0.0719
17058TIP3    H172665   2.317   1.118  13.147 -0.1892  0.0760 -0.0566
17058TIP3    H272666   2.450   1.178  13.190 -0.3441  0.1727  0.2918
17059TIP3   OH272667   0.630   0.235  13.423 -0.2991 -0.3531  0.3436
17059TIP3    H172668   0.656   0.315  13.378 -2.9686  0.7925  0.7241
17059TIP3    H272669   0.645   0.166  13.359 -1.1610  0.8817 -1.2387
17060TIP3   OH272670   6.287   4.802  16.992 -0.1802  0.9068 -0.1870
17060TIP3    H172671   6.264   4.868  16.926  2.1189  1.1662 -0.7560
17060TIP3    H272672   6.209   4.797  17.048 -1.0461  2.8479 -1.1494
17061TIP3   OH272673   2.432   4.226  14.846 -0.3091  0.2625  0.0460
17061TIP3    H172674   2.435   4.265  14.934  0.4473 -1.2947  0.7309
17061TIP3    H272675   2.454   4.134  14.860 -0.2976 -0.0278 -1.7781
17062TIP3   OH272676   4.214   2.494   1.128  0.9006 -0.0081 -0.5313
17062TIP3    H172677   4.216   2.424   1.194  0.6525  1.0353  0.5951
17062TIP3    H272678   4.274   2.463   1.060  0.1656 -1.6949 -0.4417
17063TIP3   OH272679   4.485   1.275   3.519  0.1193  0.0700  0.4171
17063TIP3    H172680   4.442   1.354   3.487  0.5519 -0.4684 -1.5629
17063TIP3    H272681   4.575   1.302   3.539  0.4373 -0.0359 -0.8343
17064TIP3   OH272682   5.001   3.949  13.062 -0.4481  0.0589 -0.2437
17064TIP3    H172683   4.998   3.898  12.980 -1.3476 -0.1446 -0.0897
17064TIP3    H272684   4.909   3.962  13.085 -0.2167  1.3244 -0.0092
17065TIP3   OH272685   0.608   0.053   5.433  0.9076  0.3826 -0.2156
17065TIP3    H172686   0.635   0.119   5.369 -0.2950  1.2470  0.1392
17065TIP3    H272687   0.527   0.016   5.398  1.0031 -0.1404  0.1120
17066TIP3   OH272688   1.246   6.405   0.845 -0.0057 -0.0686 -0.3748
17066TIP3    H172689   1.311   6.475   0.840  1.0612 -1.0412 -0.2800
17066TIP3    H272690   1.164   6.450   0.865  0.4862  1.2486 -1.2549
17067TIP3   OH272691   2.532   6.149   1.499  0.4096  0.7527 -0.2872
17067TIP3    H172692   2.477   6.218   1.536 -0.1054  0.0427  0.2704
17067TIP3    H272693   2.501   6.069   1.540  1.4847  0.2728 -0.3960
17068TIP3   OH272694   4.526   6.469  15.298  0.2081  0.5840 -0.1219
17068TIP3    H172695   4.448   6.480  15.352  0.3032 -1.1285  0.4069
17068TIP3    H272696   4.526   6.376  15.274  1.4300  0.8207 -1.1141
17069TIP3   OH272697   5.411   5.208  15.995  1.0012 -0.2943  0.0935
17069TIP3    H172698   5.390   5.227  15.903  2.0075 -0.8411 -0.2599
17069TIP3    H272699   5.355   5.134  16.018 -0.7346  1.1315  0.5530
17070TIP3   OH272700   2.184   6.402  16.982 -0.4190  0.0596  0.2672
17070TIP3    H172701   2.182   6.383  16.888  1.3321  0.0298  0.2127
17070TIP3    H272702   2.209   6.318  17.022  1.1180  0.6348  0.5503
17071TIP3   OH272703   1.092   0.824  11.556 -0.8658  0.3673  0.0374
17071TIP3    H172704   1.096   0.889  11.626  0.0452 -0.0227  0.3494
17071TIP3    H272705   1.034   0.756  11.591  1.4361 -0.9669  1.4021
17072TIP3   OH272706   5.712   0.798  11.837 -0.4921  0.8209 -0.5003
17072TIP3    H172707   5.637   0.739  11.828 -0.1598  0.0055  1.6201
17072TIP3    H272708   5.674   0.880  11.869 -0.4849  0.2995  0.9112
17073TIP3   OH272709   4.532   2.354   1.990 -0.6594 -0.3125  0.5119
17073TIP3    H172710   4.612   2.324   1.947 -0.4066 -0.8489  1.3511
17073TIP3    H272711   4.559   2.375   2.080 -1.7579 -1.9689  1.2506
17074TIP3   OH272712   4.372   1.453  14.417 -0.2077 -0.4970  0.4518
17074TIP3    H172713   4.442   1.393  14.394 -0.2803  0.5929 -2.8813
17074TIP3    H272714   4.294   1.397  14.426  0.4131 -1.3015  0.8597
17075TIP3   OH272715   4.839   6.008   3.045 -0.2800 -0.3280 -0.0357
17075TIP3    H172716   4.753   6.050   3.050  0.7630  1.9389 -0.4934
17075TIP3    H272717   4.864   5.993   3.136 -0.4276  0.5792  0.1585
17076TIP3   OH272718   6.108   5.982   0.223  0.7369  0.1981 -0.2208
17076TIP3    H172719   6.132   6.000   0.132 -1.6043 -0.4346 -1.0186
17076TIP3    H272720   6.071   6.065   0.255  0.6712  0.1476 -0.1642
17077TIP3   OH272721   3.769   4.458   5.529  0.3437 -0.3497  0.7884
17077TIP3    H172722   3.740   4.539   5.486 -2.0254 -0.4872  2.0862
17077TIP3    H272723   3.807   4.487   5.612 -1.3850 -0.6436  1.6849
17078TIP3   OH272724   1.655   4.804  12.819  1.0570  0.1071 -0.4530
17078TIP3    H172725   1.696   4.721  12.793  0.6274 -0.2623  0.0290
17078TIP3    H272726   1.728   4.862  12.839  1.3358 -1.0599  2.0179
17079TIP3   OH272727   6.401   5.444  13.709  0.2869 -0.2477 -0.4832
17079TIP3    H172728   6.398   5.354  13.741  1.2549 -1.0648 -2.5691
17079TIP3    H272729   6.356   5.496  13.776 -0.0729 -2.2487  0.8446
17080TIP3   OH272730   6.801   2.214   4.652  0.0146  0.8094 -0.9702
17080TIP3    H172731   6.827   2.140   4.597 -0.4805  1.2304 -1.7839
17080TIP3    H272732   6.799   2.288   4.592 -0.6570  1.2526 -0.3999
17081TIP3   OH272733   3.846   4.765   2.704 -0.2530 -0.4293  0.1714
17081TIP3    H172734   3.817   4.702   2.770 -0.5253 -0.1892  0.2833
17081TIP3    H272735   3.920   4.723   2.661 -0.2460 -0.6999  0.4494
17082TIP3   OH272736   6.505   1.819  16.402  0.0180  0.1715 -0.2301
17082TIP3    H172737   6.521   1.876  16.327 -1.3965 -0.9046 -1.3938
17082TIP3    H272738   6.420   1.846  16.436 -0.1541 -0.5082 -0.1079
17083TIP3   OH272739   2.113   6.310   4.782 -0.4962  0.4821  0.2717
17083TIP3    H172740   2.089   6.314   4.689 -0.5248  0.7795  0.2902
17083TIP3    H272741   2.041   6.354   4.827  0.9498  3.0407  0.1643
17084TIP3   OH272742   1.163   2.039   5.906 -0.4900 -0.0890  0.1172
17084TIP3    H172743   1.223   2.103   5.867  0.5028 -1.4880 -0.6693
17084TIP3    H272744   1.125   1.993   5.831 -1.7891  0.0879  0.6522
17085TIP3   OH272745   5.293   1.114  12.826 -0.2911 -0.4099  0.0123
17085TIP3    H172746   5.277   1.030  12.783 -1.3647 -0.5186  0.6069
17085TIP3    H272747   5.230   1.116  12.898  0.3092  0.5344  0.5172
17086TIP3   OH272748   6.776   0.070   4.569  0.2538  0.1678 -0.1603
17086TIP3    H172749   6.685   0.089   4.591 -0.0880  1.6879 -2.6215
17086TIP3    H272750   6.774  -0.019   4.533  0.3811 -1.2223  3.0641
17087TIP3   OH272751   2.350   5.725  12.585 -0.1639  0.1842  0.4395
17087TIP3    H172752   2.315   5.754  12.501 -0.9494 -0.3194  0.5904
17087TIP3    H272753   2.442   5.753  12.584 -0.1813  0.2079 -0.5665
17088TIP3   OH272754   0.944   4.233   0.835  0.4194  0.0705 -0.3813
17088TIP3    H172755   1.015   4.249   0.897  1.4878 -4.5660 -0.1767
17088TIP3    H272756   0.864   4.237   0.888  0.7529  2.5592 -0.0520
17089TIP3   OH272757   0.385   5.402   4.394 -0.0800  0.3437  0.3869
17089TIP3    H172758   0.429   5.381   4.312  1.0699  0.5895  0.9334
17089TIP3    H272759   0.373   5.497   4.392  1.1804  0.5258  1.1021
17090TIP3   OH272760   4.811   3.362   2.836  0.3134  0.2168  0.6328
17090TIP3    H172761   4.904   3.350   2.855  0.2625  0.6635  1.1848
17090TIP3    H272762   4.773   3.275   2.850  0.7614 -0.1436 -0.3181
17091TIP3   OH272763   6.372   1.644   3.655  0.4374 -0.9497 -0.4904
17091TIP3    H172764   6.403   1.555   3.671  0.8355 -0.6869  0.2413
17091TIP3    H272765   6.345   1.644   3.563  1.6650 -1.4699 -0.8714
17092TIP3   OH272766   3.579   3.433   4.007  0.5168  0.1929  0.1968
17092TIP3    H172767   3.617   3.480   3.933 -0.8324  1.6059  0.3829
17092TIP3    H272768   3.612   3.480   4.084  0.0221  0.1694  0.4213
17093TIP3   OH272769   0.464   1.887   4.452  0.3362 -0.0969  0.2531
17093TIP3    H172770   0.462   1.836   4.533 -0.6012 -0.4560 -0.0014
17093TIP3    H272771   0.373   1.898   4.427  0.7045 -2.0053 -2.0509
17094TIP3   OH272772   2.224   1.875  11.935  0.2721 -0.0307 -0.8357
17094TIP3    H172773   2.209   1.946  11.873 -0.3448  0.0380 -0.6088
17094TIP3    H272774   2.146   1.821  11.929  0.7918 -0.7637 -1.0934
17095TIP3   OH272775   1.892   1.257  16.897  0.8759 -0.2752 -0.2416
17095TIP3    H172776   1.893   1.235  16.990 -0.0554  1.3779  0.1803
17095TIP3    H272777   1.864   1.177  16.854  1.5137 -1.1144  0.8897
17096TIP3   OH272778   4.399   0.800   0.097 -0.1622 -0.1866 -0.9328
17096TIP3    H172779   4.312   0.772   0.125 -0.2088  1.5078  0.6626
17096TIP3    H272780   4.459   0.734   0.132 -0.5236  0.2756  0.5652
17097TIP3   OH272781   1.344   1.430   4.313  0.1603  0.1317 -0.3969
17097TIP3    H172782   1.364   1.342   4.346 -1.0162  0.1923  0.5202
17097TIP3    H272783   1.266   1.418   4.259  1.6004  0.1757 -2.5436
17098TIP3   OH272784   3.402   1.144  16.960  0.2051  0.2622 -0.2287
17098TIP3    H172785   3.392   1.177  16.871  0.6090  0.6726 -0.1199
17098TIP3    H272786   3.340   1.194  17.011 -0.2221 -0.1622 -0.3272
17099TIP3   OH272787   0.168   6.371  14.593 -0.3748  0.0894 -0.1234
17099TIP3    H172788   0.226   6.445  14.578  0.2563 -0.3116  0.2881
17099TIP3    H272789   0.226   6.295  14.599 -0.7586 -0.0886  2.0111
17100TIP3   OH272790   5.200   4.894   0.111 -0.0119  0.3126 -0.0430
17100TIP3    H172791   5.171   4.942   0.189 -1.3232  0.8318 -0.8366
17100TIP3    H272792   5.219   4.806   0.143  0.6654  0.8542  1.0916
17101TIP3   OH272793   1.001   5.802  12.007 -0.2273  0.5727  0.5128
17101TIP3    H172794   0.994   5.708  12.027 -0.9512  0.8308  1.5280
17101TIP3    H272795   0.931   5.842  12.058 -0.4087  1.5859 -0.5295
17102TIP3   OH272796   4.569   2.858  13.965  0.1167 -0.4639  0.0599
17102TIP3    H172797   4.634   2.892  14.027 -0.7778  2.5116 -0.5351
17102TIP3    H272798   4.594   2.896  13.881 -1.7755 -0.1298 -0.3677
17103TIP3   OH272799   1.148   6.261  13.699  0.1641 -0.0679  0.0944
17103TIP3    H172800   1.122   6.181  13.746  0.2690  1.4181  2.7434
17103TIP3    H272801   1.216   6.232  13.638 -1.1302 -2.3263 -0.3675
17104TIP3   OH272802   4.254   6.808  12.993 -0.3897  0.5320 -0.1051
17104TIP3    H172803   4.263   6.717  12.963 -1.0108  0.3922  0.1138
17104TIP3    H272804   4.171   6.809  13.041  0.4403  0.8373  1.3488
17105TIP3   OH272805   0.976   5.996   0.360 -0.1338 -0.5018  0.2735
17105TIP3    H172806   0.993   6.091   0.362  0.4433 -0.5190 -2.0496
17105TIP3    H272807   1.019   5.962   0.437  0.0106  1.0836  0.9172
17106TIP3   OH272808   0.420   6.647  15.968 -0.1616  0.0741 -0.0388
17106TIP3    H172809   0.347   6.615  16.022 -1.0993 -0.4542 -1.5708
17106TIP3    H272810   0.396   6.737  15.947 -1.2749 -0.6285 -1.9717
17107TIP3   OH272811   5.453   5.883   1.207 -0.1180  0.0950  0.2912
17107TIP3    H172812   5.440   5.851   1.118  2.1585  0.1169 -0.0726
17107TIP3    H272813   5.387   5.836   1.259  0.1561 -1.7645 -0.9854
17108TIP3   OH272814   4.771   5.403  12.461  0.3580  0.3318 -0.3453
17108TIP3    H172815   4.699   5.434  12.516 -0.4299 -1.0050 -0.6140
17108TIP3    H272816   4.745   5.315  12.433  1.6365  0.2243 -1.2686
17109TIP3   OH272817   5.810   5.112  16.228 -0.3014 -0.1281 -0.4313
17109TIP3    H172818   5.796   5.108  16.134  0.4812  1.6890 -0.6468
17109TIP3    H272819   5.815   5.206  16.247  0.2021 -0.4973  1.3173
17110TIP3   OH272820   6.402   5.060  10.263  0.4651 -0.9037  0.4311
17110TIP3    H172821   6.406   4.982  10.319 -0.2204  0.2636  2.1484
17110TIP3    H272822   6.392   5.133  10.324 -0.5297  0.3943 -1.2329
17111TIP3   OH272823   5.333   5.366   4.827  0.5501 -0.1075 -0.8462
17111TIP3    H172824   5.309   5.379   4.919  1.3644  0.5092 -0.7054
17111TIP3    H272825   5.260   5.402   4.777 -0.1434 -0.9503 -0.4396
17112TIP3   OH272826   5.803   5.038  12.477  0.2796 -0.2866 -0.3289
17112TIP3    H172827   5.710   5.024  12.491  0.1935 -0.2081 -0.8059
17112TIP3    H272828   5.830   5.096  12.549  0.4719 -2.1940  1.1585
17113TIP3   OH272829   0.106   3.715   4.097  0.4206 -0.4184  0.0619
17113TIP3    H172830   0.129   3.689   4.008  0.4602  0.7453 -0.2640
17113TIP3    H272831   0.086   3.632   4.141 -0.4141 -0.9289 -1.2565
17114TIP3   OH272832   5.732   2.849  16.129  0.5350  0.0069  0.2589
17114TIP3    H172833   5.752   2.761  16.098  1.2849  0.6352 -1.0915
17114TIP3    H272834   5.678   2.835  16.207  0.1390 -1.6389 -0.2788
17115TIP3   OH272835   0.991   1.296  10.527 -1.1030  0.0165 -0.2409
17115TIP3    H172836   0.957   1.352  10.457 -2.8528 -1.4320 -0.5678
17115TIP3    H272837   0.927   1.304  10.598 -0.2558  0.0808  0.5307
17116TIP3   OH272838   4.754   5.011  14.520 -0.5342  0.0504 -0.2258
17116TIP3    H172839   4.785   5.060  14.597  2.0129 -1.9150  0.0872
17116TIP3    H272840   4.687   4.952  14.555  1.1370 -1.3647  0.6857
17117TIP3   OH272841   6.219   4.756   3.975  0.0398 -0.2620  0.0966
17117TIP3    H172842   6.166   4.835   3.962  0.1203 -0.3130 -0.5344
17117TIP3    H272843   6.190   4.696   3.907  0.8022 -0.3468 -0.1548
17118TIP3   OH272844   3.258   1.718  15.274  0.0742 -0.5189 -0.6218
17118TIP3    H172845   3.200   1.788  15.246 -1.8466 -1.6645  0.3725
17118TIP3    H272846   3.315   1.758  15.339 -0.6790  0.2537 -0.4322
17119TIP3   OH272847   1.571   5.489   0.302  0.2121 -0.7490  0.1940
17119TIP3    H172848   1.666   5.499   0.298  0.1882 -1.0516 -1.8133
17119TIP3    H272849   1.554   5.451   0.388  1.4252  4.0977  2.7435
17120TIP3   OH272850   2.494   4.335  16.214 -0.0215  0.0541  0.2787
17120TIP3    H172851   2.442   4.270  16.167  0.2567 -1.3489  1.8594
17120TIP3    H272852   2.450   4.344  16.299  0.6904  0.9828  0.5660
17121TIP3   OH272853   5.086   5.751   6.489  0.2666 -0.1928  0.0123
17121TIP3    H172854   5.147   5.700   6.435 -0.7502 -0.8726 -0.4904
17121TIP3    H272855   5.007   5.758   6.436  0.5402  2.3059 -0.1352
17122TIP3   OH272856   5.641   1.482   0.037 -0.5918 -0.3390  0.1897
17122TIP3    H172857   5.642   1.391   0.007  1.5312  0.0921 -1.1021
17122TIP3    H272858   5.643   1.476   0.132  0.7586 -1.6532  0.0956
17123TIP3   OH272859   5.824   1.202   6.242  0.0668 -0.4751 -0.1290
17123TIP3    H172860   5.853   1.177   6.330  1.2857 -1.6742 -0.8588
17123TIP3    H272861   5.738   1.241   6.256  0.4733 -0.1509  1.6594
17124TIP3   OH272862   6.650   0.017   1.189 -0.2290  0.4027 -0.4979
17124TIP3    H172863   6.720   0.052   1.133 -0.0582 -1.0478 -1.2261
17124TIP3    H272864   6.696  -0.019   1.264 -0.1199 -1.1523 -1.2943
17125TIP3   OH272865   3.486   6.033   0.293 -0.3900 -0.5511 -0.0176
17125TIP3    H172866   3.424   5.996   0.231 -0.3600 -0.0668 -0.3397
17125TIP3    H272867   3.540   6.093   0.241 -0.7106  0.2702  0.5690
17126TIP3   OH272868   1.839   6.635   0.970 -0.2494 -0.2158  0.3641
17126TIP3    H172869   1.818   6.702   1.035 -0.3528  1.6583 -1.5715
17126TIP3    H272870   1.928   6.655   0.942 -0.8880  0.1918 -1.4738
17127TIP3   OH272871   5.955   2.571   1.241  0.6134  0.4595  0.3141
17127TIP3    H172872   6.029   2.518   1.210 -0.7726 -1.8220  0.7903
17127TIP3    H272873   5.978   2.596   1.330  1.0522  0.1982  0.2740
17128TIP3   OH272874   3.522   3.285   2.721 -0.6498  0.2889 -0.0450
17128TIP3    H172875   3.442   3.268   2.770 -0.6775 -1.9313 -0.8195
17128TIP3    H272876   3.492   3.315   2.635 -0.5983  3.7446  1.0312
17129TIP3   OH272877   2.051   5.249  15.590 -0.0779  0.0975 -0.0378
17129TIP3    H172878   2.024   5.167  15.550  1.0001  0.0166 -0.6110
17129TIP3    H272879   1.989   5.314  15.556 -0.5561 -0.3689 -0.0575
17130TIP3   OH272880   1.639   5.216  13.780 -0.7694  0.4264 -0.4793
17130TIP3    H172881   1.550   5.233  13.749 -1.0009 -0.0091 -0.0727
17130TIP3    H272882   1.691   5.287  13.744 -1.0441 -0.0193 -1.7989
17131TIP3   OH272883   5.813   5.629  11.874 -0.3508 -0.6342 -0.0042
17131TIP3    H172884   5.781   5.541  11.893 -2.0181 -0.2687 -1.0924
17131TIP3    H272885   5.792   5.644  11.782 -0.9143  1.2549  0.4046
17132TIP3   OH272886   4.352   2.324  11.731  0.1229  0.3839  0.6926
17132TIP3    H172887   4.425   2.310  11.671 -0.3049  0.7556  0.0854
17132TIP3    H272888   4.345   2.419  11.740 -2.8636  0.5555 -2.4791
17133TIP3   OH272889   5.145   5.711  11.640  0.2220  0.0249 -0.0447
17133TIP3    H172890   5.050   5.720  11.648  0.3385  1.1711  0.1549
17133TIP3    H272891   5.175   5.694  11.730  0.1915 -0.5982 -0.1457
17134TIP3   OH272892   5.327   5.496   4.525 -0.0507 -0.0789 -0.7011
17134TIP3    H172893   5.345   5.505   4.432  1.2993 -0.1710 -0.4652
17134TIP3    H272894   5.234   5.516   4.534  0.0143  0.8215 -1.9398
17135TIP3   OH272895   3.943   4.778  12.714  0.1652 -0.1778 -0.7816
17135TIP3    H172896   4.007   4.756  12.782 -0.8774 -0.5357  0.0913
17135TIP3    H272897   3.917   4.694  12.677 -2.3435 -0.3196  1.2047
17136TIP3   OH272898   5.614   6.428  13.224  0.1906 -0.0753 -0.0169
17136TIP3    H172899   5.625   6.503  13.165 -1.3000 -0.3029 -0.5938
17136TIP3    H272900   5.653   6.457  13.306  1.0004  0.7738 -0.6844
17137TIP3   OH272901   6.645   4.231  12.151  0.2220 -0.2791 -0.0979
17137TIP3    H172902   6.612   4.296  12.213  0.9770 -0.9765  1.0742
17137TIP3    H272903   6.693   4.282  12.086  2.3899  0.2428  1.8249
17138TIP3   OH272904   4.038   1.741   5.596 -0.6817  0.6764 -0.0084
17138TIP3    H172905   4.131   1.742   5.572 -0.1890 -1.7604  1.6709
17138TIP3    H272906   3.999   1.676   5.539 -0.6940 -0.7108  1.5580
17139TIP3   OH272907   2.100   5.031   4.548 -0.5672  0.2099  0.1603
17139TIP3    H172908   2.174   4.991   4.593 -0.7795  0.1969  0.5067
17139TIP3    H272909   2.044   4.957   4.524 -0.8277  0.2747  0.5591
17140TIP3   OH272910   5.451   0.524  15.893  0.0161 -0.2834 -0.0173
17140TIP3    H172911   5.407   0.439  15.889 -0.7389  0.0616  0.8828
17140TIP3    H272912   5.380   0.588  15.891  0.5908  0.3429 -0.8092
17141TIP3   OH272913   1.700   0.461  14.829 -0.3735 -0.7500  0.4158
17141TIP3    H172914   1.640   0.533  14.811 -1.3559 -0.7053  3.4820
17141TIP3    H272915   1.780   0.505  14.861 -0.6224 -0.9577  1.3465
17142TIP3   OH272916   3.332   1.703   3.958  0.4461 -0.0211 -0.2727
17142TIP3    H172917   3.270   1.634   3.983  1.4258 -0.5045  0.8812
17142TIP3    H272918   3.278   1.781   3.949 -0.5906 -0.7916 -0.9895
17143TIP3   OH272919   2.454   4.805  11.187 -0.1249 -0.7371  0.1259
17143TIP3    H172920   2.459   4.828  11.094  2.1775 -0.2510  0.3354
17143TIP3    H272921   2.385   4.861  11.222  1.0204  1.2717 -0.7009
17144TIP3   OH272922   4.297   4.752   3.366  0.3045  0.1341 -0.2370
17144TIP3    H172923   4.261   4.822   3.420 -0.6891  0.1828 -0.9543
17144TIP3    H272924   4.332   4.796   3.289 -0.6199 -0.1662 -0.8483
17145TIP3   OH272925   1.986   6.031   1.934 -0.3479  0.0135  0.0808
17145TIP3    H172926   2.040   5.980   1.874  1.0047  1.0526  0.3916
17145TIP3    H272927   2.045   6.098   1.970 -2.3221  2.5322 -1.1748
17146TIP3   OH272928   3.954   1.149  16.066 -0.7053  0.0286 -0.4440
17146TIP3    H172929   3.991   1.085  16.127  0.9032 -0.5717 -2.0175
17146TIP3    H272930   3.863   1.157  16.093 -0.7610 -2.4174  0.2162
17147TIP3   OH272931   2.511   0.947   0.218 -0.1676 -0.0609 -0.1750
17147TIP3    H172932   2.438   0.899   0.179  0.3706 -0.3445 -0.8408
17147TIP3    H272933   2.477   1.035   0.232  0.1945  0.5844 -3.0324
17148TIP3   OH272934   6.582   2.485   5.052 -0.3561 -0.2899 -0.1766
17148TIP3    H172935   6.639   2.560   5.035 -0.3025 -0.4013 -0.4802
17148TIP3    H272936   6.588   2.430   4.974  0.1950 -0.9928  0.3495
17149TIP3   OH272937   0.283   1.141   6.628  0.5252 -0.4970 -0.1789
17149TIP3    H172938   0.308   1.073   6.690  0.4410  0.0357  0.4468
17149TIP3    H272939   0.187   1.135   6.622  0.2743  1.0911  1.6849
17150TIP3   OH272940   5.367   1.397   3.792  0.1301  0.3347 -0.2175
17150TIP3    H172941   5.331   1.329   3.849  0.9731  1.5922  1.8928
17150TIP3    H272942   5.354   1.364   3.704 -3.3140 -0.6477  0.5852
17151TIP3   OH272943   0.149   0.676   3.465  0.5842 -0.4821 -0.3807
17151TIP3    H172944   0.115   0.753   3.511  1.4043  0.1958 -0.8836
17151TIP3    H272945   0.234   0.704   3.431  1.7667 -2.1997  1.0525
17152TIP3   OH272946   5.882   4.223  13.538 -0.1831  0.4064 -0.4035
17152TIP3    H172947   5.801   4.234  13.589  0.0733  0.9888 -0.1270
17152TIP3    H272948   5.952   4.226  13.603  0.0123 -1.1089 -0.5148
17153TIP3   OH272949   2.936   5.305   5.303  0.1641 -0.1706 -0.1310
17153TIP3    H172950   2.889   5.388   5.302  0.1739 -0.1603  0.2305
17153TIP3    H272951   2.886   5.249   5.244  0.8787  0.4841 -1.3792
17154TIP3   OH272952   5.737   0.374  11.106  0.0120 -0.5375 -0.4960
17154TIP3    H172953   5.806   0.336  11.052 -1.5156 -0.5737 -2.4814
17154TIP3    H272954   5.725   0.462  11.070 -0.6001 -0.3368  0.1839
17155TIP3   OH272955   5.883   6.645  14.370 -0.2920 -0.0052 -0.1095
17155TIP3    H172956   5.827   6.632  14.294 -0.0094  0.8782 -0.4745
17155TIP3    H272957   5.972   6.638  14.335 -0.1608  0.0834  0.2070
17156TIP3   OH272958   3.628   2.809   1.011 -0.1435 -0.2762  0.2449
17156TIP3    H172959   3.555   2.775   1.061 -0.3761 -0.3032 -0.1153
17156TIP3    H272960   3.691   2.737   1.007 -0.1524 -0.2934  0.4478
17157TIP3   OH272961   6.061   1.293   3.027  0.5154  0.1052  0.2543
17157TIP3    H172962   6.083   1.268   2.938  1.2641 -1.4190  0.8356
17157TIP3    H272963   6.026   1.212   3.066  1.2256  0.4501  1.6439
17158TIP3   OH272964   4.751   2.966   0.218 -0.4424  0.0618  0.0417
17158TIP3    H172965   4.780   3.030   0.153 -0.1973  0.2514  0.3336
17158TIP3    H272966   4.685   2.913   0.173  0.9004 -0.8656 -0.8584
17159TIP3   OH272967   2.165   4.385   0.898 -0.6712  0.4345 -0.9513
17159TIP3    H172968   2.260   4.383   0.892 -0.4513  1.1142  1.5423
17159TIP3    H272969   2.142   4.477   0.881 -0.7880  0.4715 -0.5992
17160TIP3   OH272970   0.229   1.637   6.711  0.2756 -0.2912 -0.6776
17160TIP3    H172971   0.151   1.593   6.744 -1.4389  0.5093 -3.3781
17160TIP3    H272972   0.279   1.569   6.666 -0.3748 -0.2620 -1.4570
17161TIP3   OH272973   1.218   0.666  15.916 -0.2261  0.9785 -0.2780
17161TIP3    H172974   1.194   0.574  15.930 -2.0245  1.5846  0.8101
17161TIP3    H272975   1.297   0.679  15.968  0.4637 -0.1254 -1.0231
17162TIP3   OH272976   0.049   3.562  14.017  0.7428 -0.4747  0.1052
17162TIP3    H172977   0.012   3.527  13.936 -2.1784 -0.4672  1.3800
17162TIP3    H272978   0.021   3.654  14.018  1.6267 -0.2096  0.6474
17163TIP3   OH272979   0.470   0.517   4.585  0.0918 -0.3101 -0.3933
17163TIP3    H172980   0.517   0.533   4.667  1.1658  0.7013 -1.1831
17163TIP3    H272981   0.497   0.429   4.559 -1.1687 -1.1041  0.9257
17164TIP3   OH272982   2.316   4.421   1.894  0.0921 -0.3809 -0.2219
17164TIP3    H172983   2.316   4.398   1.987  1.0831 -0.6697 -0.2850
17164TIP3    H272984   2.332   4.515   1.892 -2.7474  0.1492 -0.0088
17165TIP3   OH272985   6.114   0.722  17.215 -0.2123 -0.0079  0.6037
17165TIP3    H172986   6.149   0.783  17.280 -0.7880 -0.9520  1.8141
17165TIP3    H272987   6.092   0.643  17.265  0.3978 -1.1701 -0.9152
17166TIP3   OH272988   1.309   1.568   6.276  0.3063 -0.8827  0.1856
17166TIP3    H172989   1.214   1.557   6.276  0.2857 -0.6910  0.1896
17166TIP3    H272990   1.342   1.485   6.241  0.0971 -0.5688 -0.7604
17167TIP3   OH272991   2.364   6.185  15.628  0.3182 -0.0763  0.4098
17167TIP3    H172992   2.380   6.131  15.706  1.5517  0.9715  0.9197
17167TIP3    H272993   2.337   6.123  15.561  0.6884 -1.1953  1.2682
17168TIP3   OH272994   0.348   2.520  12.336 -0.2924  0.5612  0.5021
17168TIP3    H172995   0.377   2.609  12.356  0.9581  0.3566 -0.3224
17168TIP3    H272996   0.382   2.467  12.408 -0.6277  0.6780  0.7471
17169TIP3   OH272997   5.462   6.173  12.249  0.0565 -0.1353 -0.3370
17169TIP3    H172998   5.494   6.123  12.324 -0.2329  0.5458  0.2446
17169TIP3    H272999   5.541   6.200  12.202  0.4132  2.0536  1.4177
17170TIP3   OH273000   3.727   5.670  11.040  0.0951  0.0718 -0.1869
17170TIP3    H173001   3.701   5.757  11.072  0.7899 -0.7689  2.8226
17170TIP3    H273002   3.649   5.616  11.051 -0.0930  0.0949 -1.3168
17171TIP3   OH273003   3.345   6.380  15.328  0.1444 -0.0546 -0.4402
17171TIP3    H173004   3.260   6.396  15.369 -0.7526  0.1248 -2.3167
17171TIP3    H273005   3.324   6.357  15.238  1.8854 -3.5045 -0.0574
17172TIP3   OH273006   5.587   1.520  13.035  0.1004 -0.0955 -0.3764
17172TIP3    H173007   5.564   1.438  12.991 -2.6004  1.0134 -1.1471
17172TIP3    H273008   5.544   1.514  13.120 -0.3901  0.6696 -0.5705
17173TIP3   OH273009   4.715   3.373   6.191 -0.1251 -0.0629  0.1391
17173TIP3    H173010   4.704   3.468   6.194  0.7714  0.0017  2.4775
17173TIP3    H273011   4.649   3.339   6.251  0.5426 -0.8092  0.4576
17174TIP3   OH273012   1.475   3.366   1.604  0.4903 -0.3298  0.1219
17174TIP3    H173013   1.434   3.436   1.655  0.0083 -0.0935 -0.5944
17174TIP3    H273014   1.460   3.287   1.655 -0.6819 -0.2168 -0.0314
17175TIP3   OH273015   1.652   5.458  10.307  0.3417  0.2066  1.0370
17175TIP3    H173016   1.683   5.463  10.397  0.4077  0.6153  0.9945
17175TIP3    H273017   1.710   5.394  10.265  1.8465  1.7741  0.6760
17176TIP3   OH273018   4.454   1.190  14.405 -0.9430 -0.0615  0.2347
17176TIP3    H173019   4.366   1.222  14.384  0.0939  2.0899 -0.9453
17176TIP3    H273020   4.477   1.132  14.333 -1.6790 -1.2669  0.9432
17177TIP3   OH273021   2.873   0.352   1.201 -0.5301 -0.3624 -0.0932
17177TIP3    H173022   2.918   0.269   1.188  0.4468  0.1148  0.2225
17177TIP3    H273023   2.927   0.416   1.154  0.7199  0.6878  2.6975
17178TIP3   OH273024   4.042   4.480  14.908 -0.3152 -0.2629 -0.2515
17178TIP3    H173025   4.071   4.550  14.849 -1.4136  0.0739 -0.4084
17178TIP3    H273026   3.954   4.507  14.934 -0.5531 -1.3576  0.0629
17179TIP3   OH273027   4.340   5.080  10.678  0.2835 -0.4184 -0.5122
17179TIP3    H173028   4.425   5.123  10.690 -0.7512  1.2071  1.3163
17179TIP3    H273029   4.348   4.996  10.722  0.0801  0.9153  2.1853
17180TIP3   OH273030   6.089   0.576  14.381 -0.3095 -0.0571  0.1593
17180TIP3    H173031   6.184   0.576  14.370 -0.2330  1.1736  0.7348
17180TIP3    H273032   6.073   0.638  14.452 -1.3685 -1.9840  1.6638
17181TIP3   OH273033   4.253   0.298   2.020 -0.2295  0.1108 -0.1475
17181TIP3    H173034   4.331   0.261   2.061 -0.3021 -1.1494 -1.0876
17181TIP3    H273035   4.286   0.346   1.944 -0.2613  0.6763  0.1976
17182TIP3   OH273036   1.358   1.932  12.914 -0.0555 -0.2001 -0.6393
17182TIP3    H173037   1.297   1.861  12.931 -0.4915  0.0593 -1.1004
17182TIP3    H273038   1.444   1.893  12.925 -0.2953 -0.7516 -0.7158
17183TIP3   OH273039   5.181   4.223   0.132 -0.2307 -0.0499  0.1737
17183TIP3    H173040   5.237   4.274   0.190 -2.2979 -0.2629  2.4456
17183TIP3    H273041   5.219   4.135   0.133  0.1359  0.1108  0.7124
17184TIP3   OH273042   6.284   1.198  11.422 -0.4029  0.3452 -0.2882
17184TIP3    H173043   6.318   1.257  11.356 -0.5771 -0.0017 -0.6890
17184TIP3    H273044   6.237   1.255  11.483 -1.2481  0.5411 -1.1022
17185TIP3   OH273045   4.583   3.305   0.022  0.5705 -0.3431  0.1580
17185TIP3    H173046   4.587   3.366   0.095 -0.4882  1.3382 -1.1337
17185TIP3    H273047   4.494   3.270   0.025 -0.3640  1.7349 -1.8420
17186TIP3   OH273048   1.980   1.601  12.869 -0.0708 -0.1984  0.0221
17186TIP3    H173049   2.023   1.642  12.794 -0.7481 -0.1063 -0.3207
17186TIP3    H273050   2.046   1.543  12.906  0.3492 -0.0581 -0.4990
17187TIP3   OH273051   1.846   0.286   0.983  0.9309  0.2827  0.5691
17187TIP3    H173052   1.885   0.372   0.970  0.6195  0.1953 -1.0017
17187TIP3    H273053   1.876   0.234   0.909  1.6810 -1.1731  1.8639
17188TIP3   OH273054   5.600   2.459  12.500 -0.0959  0.3905 -0.3334
17188TIP3    H173055   5.649   2.526  12.547  0.0147  0.3440 -0.3826
17188TIP3    H273056   5.662   2.424  12.436  0.5970 -1.4788  1.3404
17189TIP3   OH273057   0.366   6.232   0.700  0.0284  0.2135  0.0353
17189TIP3    H173058   0.326   6.214   0.615 -0.2875 -0.0931  0.2452
17189TIP3    H273059   0.453   6.194   0.694 -0.2564 -0.4460  0.1051
17190TIP3   OH273060   3.465   2.313  12.138 -0.2034  0.1187  0.6768
17190TIP3    H173061   3.444   2.382  12.201 -0.7777 -0.3929  1.0455
17190TIP3    H273062   3.432   2.233  12.178  1.9271 -0.6210  1.0015
17191TIP3   OH273063   4.878   6.472   0.103  0.7630  0.4096  0.0424
17191TIP3    H173064   4.935   6.403   0.136  0.2803  0.6665  1.4531
17191TIP3    H273065   4.801   6.469   0.160 -0.7620 -0.1043 -1.9739
17192TIP3   OH273066   6.099   1.833   2.070 -0.2575 -0.4612  0.1261
17192TIP3    H173067   6.192   1.855   2.068 -0.3505  0.1253  1.3826
17192TIP3    H273068   6.062   1.876   1.994  0.6954 -1.6370 -1.0236
17193TIP3   OH273069   4.444   3.145  11.285 -0.2802 -0.2513  0.1566
17193TIP3    H173070   4.507   3.184  11.346 -1.0863  0.8096  0.3397
17193TIP3    H273071   4.423   3.060  11.323  1.9115 -1.1332 -0.5253
17194TIP3   OH273072   6.804   4.199   4.106  0.2217  0.0074 -0.2567
17194TIP3    H173073   6.744   4.253   4.055 -1.3107  0.3283  1.8206
17194TIP3    H273074   6.764   4.112   4.106 -0.0971  0.1373  0.8188
17195TIP3   OH273075   0.476   4.071  16.522 -0.4651  0.0823 -0.1768
17195TIP3    H173076   0.569   4.073  16.544  0.3780 -0.4735 -3.3888
17195TIP3    H273077   0.435   4.021  16.592  2.0902 -2.0542 -0.1516
17196TIP3   OH273078   2.637   1.629   0.422 -0.0307 -0.3520 -0.2709
17196TIP3    H173079   2.691   1.556   0.393  0.0258 -0.6866  0.6816
17196TIP3    H273080   2.674   1.705   0.377 -0.1938 -0.9247 -1.3908
17197TIP3   OH273081   4.119   0.563   5.918  0.4736 -0.1151 -0.5192
17197TIP3    H173082   4.029   0.588   5.937  0.9561  0.6974  0.7647
17197TIP3    H273083   4.171   0.639   5.945  1.6297 -0.9743 -0.2822
17198TIP3   OH273084   4.816   3.116   3.909 -0.3873  0.1935 -0.1778
17198TIP3    H173085   4.781   3.203   3.926  0.3615  0.4341  0.1579
17198TIP3    H273086   4.742   3.057   3.922 -0.5180  0.6379  1.1195
17199TIP3   OH273087   2.679   5.663  16.948 -0.0318  0.3172 -1.0043
17199TIP3    H173088   2.689   5.663  17.044  1.3231  1.7938 -1.1260
17199TIP3    H273089   2.669   5.570  16.925 -4.0044  0.1810  0.8999
17200TIP3   OH273090   3.990   2.431  14.837  0.4612  0.5840 -0.0704
17200TIP3    H173091   3.997   2.352  14.783 -1.2362  1.5998 -1.8451
17200TIP3    H273092   3.929   2.407  14.907 -1.4721  0.8358 -1.6337
17201TIP3   OH273093   1.574   4.779  10.579  0.5908 -0.4545  0.2487
17201TIP3    H173094   1.529   4.771  10.663 -1.4472 -0.2335 -0.7778
17201TIP3    H273095   1.635   4.852  10.591 -1.4883  1.2299  0.7893
17202TIP3   OH273096   0.501   2.112  16.993  0.9515  0.3060  0.4747
17202TIP3    H173097   0.547   2.164  16.927  0.7983 -0.5694 -0.3266
17202TIP3    H273098   0.459   2.042  16.943 -0.8597  0.8133  1.2531
17203TIP3   OH273099   6.455   4.066  13.025  0.1082 -0.0079  0.1289
17203TIP3    H173100   6.371   4.109  13.009  0.0197 -1.2503 -3.1278
17203TIP3    H273101   6.431   3.980  13.061 -0.1040 -0.6381 -1.4506
17204TIP3   OH273102   3.292   0.473  15.895 -0.1714  0.1716 -0.1713
17204TIP3    H173103   3.320   0.449  15.806 -0.7386 -1.6149  0.1154
17204TIP3    H273104   3.242   0.397  15.925  0.4326  0.5704  1.8681
17205TIP3   OH273105   1.131   6.519  12.277  0.6221  0.3281 -0.2063
17205TIP3    H173106   1.101   6.544  12.364  0.0844  0.0120 -0.2999
17205TIP3    H273107   1.060   6.466  12.242 -0.0683  2.1416 -1.6361
17206TIP3   OH273108   6.321   2.297  16.520  0.7025  0.1046 -0.1019
17206TIP3    H173109   6.250   2.359  16.502  0.8546  0.5627  0.8666
17206TIP3    H273110   6.355   2.274  16.433  0.5392  1.2591 -0.4762
17207TIP3   OH273111   2.658   5.445   4.962  0.0889 -0.5184 -0.0808
17207TIP3    H173112   2.616   5.423   4.879 -1.9486 -1.4141  1.1623
17207TIP3    H273113   2.659   5.363   5.011 -0.0858  0.3304  1.3667
17208TIP3   OH273114   4.890   0.784  14.216  0.5164 -0.1936  0.6541
17208TIP3    H173115   4.901   0.866  14.169  2.4157 -1.3035 -0.9379
17208TIP3    H273116   4.916   0.804  14.306  0.0351  1.1522  0.5099
17209TIP3   OH273117   4.723   0.862   0.489  0.1390 -0.1352  0.6995
17209TIP3    H173118   4.756   0.945   0.524  2.3598 -0.2094 -1.0922
17209TIP3    H273119   4.697   0.882   0.400  0.7607 -1.3837  0.2241
17210TIP3   OH273120   6.442   4.193  14.903  0.0162 -0.0333 -0.0373
17210TIP3    H173121   6.517   4.170  14.957 -0.5154 -1.4624  0.1157
17210TIP3    H273122   6.446   4.288  14.894  1.2140  0.0012  0.8787
17211TIP3   OH273123   0.980   4.568  16.307 -0.4681  0.1936  0.0297
17211TIP3    H173124   1.028   4.506  16.363 -2.1521 -0.0592  1.2646
17211TIP3    H273125   0.951   4.637  16.367 -1.3633  0.5034 -0.7425
17212TIP3   OH273126   1.340   0.426  16.211  0.1735 -0.0387  0.0899
17212TIP3    H173127   1.385   0.342  16.223 -0.5838 -0.4543  0.0658
17212TIP3    H273128   1.372   0.480  16.283  0.3240 -0.4993  0.3779
17213TIP3   OH273129   3.717   3.542  13.665 -0.4878  0.5116 -0.0770
17213TIP3    H173130   3.755   3.494  13.591 -0.2376 -1.0627  1.0526
17213TIP3    H273131   3.792   3.581  13.709 -0.7093  2.1542 -1.1155
17214TIP3   OH273132   2.107   2.390   4.080 -0.1596 -0.0428 -0.3182
17214TIP3    H173133   2.156   2.308   4.078 -1.7445 -1.1551  3.0650
17214TIP3    H273134   2.016   2.364   4.066 -1.0762  0.6887  3.6777
17215TIP3   OH273135   4.889   4.041   6.293  0.2432  0.1898 -0.2362
17215TIP3    H173136   4.968   4.031   6.345  0.4755 -1.2598 -0.8179
17215TIP3    H273137   4.818   4.046   6.357  0.7988  1.4552  0.2852
17216TIP3   OH273138   3.777   5.496   0.286 -0.0862  0.2277  0.0751
17216TIP3    H173139   3.698   5.456   0.322  0.6215  0.6429  2.1726
17216TIP3    H273140   3.808   5.554   0.355  2.1251 -0.0240 -0.6609
17217TIP3   OH273141   2.509   3.437   3.926 -0.4898 -0.0751  0.1759
17217TIP3    H173142   2.579   3.472   3.870 -0.1203 -1.2127 -0.0818
17217TIP3    H273143   2.479   3.358   3.881 -1.6032  0.1328  0.5479
17218TIP3   OH273144   1.663   6.187   1.694 -0.8993 -0.2382  0.7572
17218TIP3    H173145   1.693   6.113   1.746 -2.1454 -0.8551  0.6256
17218TIP3    H273146   1.658   6.153   1.604 -0.7479  0.2195  0.5735
17219TIP3   OH273147   0.541   5.247   2.167  0.0033 -0.7620 -0.0571
17219TIP3    H173148   0.488   5.326   2.152 -1.5147 -1.2274  2.5631
17219TIP3    H273149   0.490   5.195   2.228  1.8963 -2.9047 -0.2327
17220TIP3   OH273150   3.227   3.295   2.287 -0.1689 -0.0018  0.5816
17220TIP3    H173151   3.163   3.327   2.351 -1.6782 -0.2484 -0.7786
17220TIP3    H273152   3.219   3.355   2.213  1.0106 -0.1979  0.2769
17221TIP3   OH273153   3.227   4.819   4.688 -0.2665 -0.1312  0.4493
17221TIP3    H173154   3.190   4.891   4.738  0.3145 -0.2598  1.0773
17221TIP3    H273155   3.155   4.789   4.632 -0.9462 -0.0309  1.2583
17222TIP3   OH273156   1.715   1.117   0.184  0.9634 -0.3128 -0.3030
17222TIP3    H173157   1.644   1.093   0.242  0.4296 -0.7818 -1.1378
17222TIP3    H273158   1.787   1.059   0.208  1.0364  0.0939  0.4697
17223TIP3   OH273159   2.050   2.031  16.996  0.1764  0.4321 -0.2847
17223TIP3    H173160   2.009   1.960  17.046  0.4642 -0.1923 -0.9255
17223TIP3    H273161   2.111   2.071  17.057  1.7834 -1.4311 -0.6412
17224TIP3   OH273162   5.670   5.571   1.682 -0.4281  0.7635  0.3086
17224TIP3    H173163   5.684   5.488   1.728  0.1003  0.7615  0.1520
17224TIP3    H273164   5.731   5.632   1.723  0.3806  0.6440 -0.6936
17225TIP3   OH273165   4.021   1.950   6.416 -0.0789  0.7145  0.0104
17225TIP3    H173166   3.934   1.982   6.392  0.2262  0.7001 -1.1567
17225TIP3    H273167   4.078   1.982   6.347  1.0219  1.5360  1.2961
17226TIP3   OH273168   5.419   2.014   0.560  0.3290  0.3420 -0.6505
17226TIP3    H173169   5.503   1.984   0.596  0.5471 -0.0976 -1.5103
17226TIP3    H273170   5.442   2.091   0.509  0.0895  0.6747 -0.2622
17227TIP3   OH273171   1.652   6.735  12.699  1.2688 -0.3886 -0.0598
17227TIP3    H173172   1.708   6.680  12.644  1.5680  1.6011 -1.8481
17227TIP3    H273173   1.569   6.741  12.651  1.6338  1.6028 -0.5082
17228TIP3   OH273174   2.914   1.528  13.554  0.7412  0.1089 -0.0715
17228TIP3    H173175   2.870   1.443  13.558 -0.7792  0.8261 -1.0114
17228TIP3    H273176   2.861   1.586  13.610  1.9792  0.3515  0.8662
17229TIP3   OH273177   2.605   2.264  14.159  0.1559 -0.0706  0.5294
17229TIP3    H173178   2.643   2.226  14.080  0.1126 -0.5683  0.7489
17229TIP3    H273179   2.517   2.227  14.164 -0.5148  1.3769 -0.1913
17230TIP3   OH273180   4.137   1.018   2.457  0.1490  0.1629  0.1251
17230TIP3    H173181   4.093   0.993   2.538  1.0125 -0.2312  0.4801
17230TIP3    H273182   4.224   1.048   2.485 -0.5125  2.6799 -0.3636
17231TIP3   OH273183   6.054   0.368   5.288  0.2725 -0.5626  0.3960
17231TIP3    H173184   5.996   0.297   5.260  1.1043 -0.4198 -1.7297
17231TIP3    H273185   6.009   0.407   5.364 -2.6637 -0.1556 -1.4867
17232TIP3   OH273186   2.283   4.872   4.717  0.0127 -0.5774 -0.0206
17232TIP3    H173187   2.281   4.876   4.813  2.3164  0.7853  0.0103
17232TIP3    H273188   2.346   4.804   4.697  1.1746  0.6206 -0.5377
17233TIP3   OH273189   1.080   4.905   0.014 -0.3164  0.6272  0.0135
17233TIP3    H173190   1.042   4.972   0.072  1.2006  1.1776  0.3843
17233TIP3    H273191   1.065   4.823   0.060 -0.5234  0.9035  0.4475
17234TIP3   OH273192   4.337   1.741  16.063 -0.1963  0.1241  0.1152
17234TIP3    H173193   4.381   1.734  16.148  2.1624 -1.3432 -1.1869
17234TIP3    H273194   4.244   1.742  16.085  0.3926  1.4057  2.8156
17235TIP3   OH273195   6.043   0.374   2.211 -0.4045  0.4004  0.4159
17235TIP3    H173196   6.037   0.456   2.161  0.1026  0.5922  0.6631
17235TIP3    H273197   5.983   0.388   2.285 -0.4896  0.4615  0.3363
17236TIP3   OH273198   1.314   5.433  11.282 -0.3213 -0.1704 -0.2466
17236TIP3    H173199   1.302   5.521  11.246  0.6590 -0.5347 -1.4938
17236TIP3    H273200   1.257   5.377  11.229  1.3470 -0.7540 -1.4763
17237TIP3   OH273201   3.266   2.933  10.604  0.2801 -0.0126 -0.1479
17237TIP3    H173202   3.196   2.877  10.569  1.2744 -0.0397 -2.1794
17237TIP3    H273203   3.223   3.017  10.621 -0.3035 -0.0716 -1.2304
17238TIP3   OH273204   4.483   3.268  15.286 -0.8646 -0.2678  0.3915
17238TIP3    H173205   4.432   3.333  15.237 -0.1151  0.2853  0.3423
17238TIP3    H273206   4.555   3.318  15.323 -0.0994 -1.1369  0.0807
17239TIP3   OH273207   4.893   5.800  11.708  0.3357  0.0276 -0.3470
17239TIP3    H173208   4.928   5.811  11.797 -0.3291  0.8624 -0.1815
17239TIP3    H273209   4.801   5.777  11.722  0.2231  0.1960 -0.8193
17240TIP3   OH273210   4.257   2.608   4.892 -0.4504 -0.2280 -0.4866
17240TIP3    H173211   4.301   2.646   4.816 -1.4452  1.5300 -0.1912
17240TIP3    H273212   4.183   2.560   4.855 -1.8372  1.9096 -0.5360
17241TIP3   OH273213   1.231   4.188   2.372 -0.4750  0.4410 -0.1734
17241TIP3    H173214   1.187   4.169   2.455 -0.7116 -0.9505 -0.5920
17241TIP3    H273215   1.316   4.144   2.380  0.8352  3.0230  0.5854
17242TIP3   OH273216   0.292   4.998   4.721 -0.0586  0.4005 -0.0640
17242TIP3    H173217   0.237   5.069   4.689 -1.2187 -1.6169 -2.7143
17242TIP3    H273218   0.315   5.024   4.810 -3.0531  2.5914  0.1553
17243TIP3   OH273219   0.021   4.653  16.951  0.1850  0.1334 -0.5885
17243TIP3    H173220  -0.002   4.733  16.998 -0.7210  0.1381 -1.0224
17243TIP3    H273221  -0.061   4.603  16.947  0.7816 -0.9242 -0.1287
17244TIP3   OH273222   1.911   5.844   5.013  0.2855 -0.4183 -0.3915
17244TIP3    H173223   1.895   5.815   5.103  2.2629  2.7859  1.1306
17244TIP3    H273224   1.842   5.909   4.996  0.5206 -0.2704 -0.7886
17245TIP3   OH273225   5.080   2.988  11.291 -0.3606  0.2973  0.1160
17245TIP3    H173226   5.160   3.040  11.300 -0.9603  1.2174  0.1320
17245TIP3    H273227   5.087   2.950  11.203  0.9651 -1.1057  0.8039
17246TIP3   OH273228   4.024   3.357  16.674  0.2052 -0.8198 -0.1878
17246TIP3    H173229   3.933   3.366  16.702  0.2059  1.5260 -0.8347
17246TIP3    H273230   4.018   3.342  16.579  0.4959  0.1466 -0.3662
17247TIP3   OH273231   0.124   5.707  16.262 -0.1838  0.1848 -0.7440
17247TIP3    H173232   0.041   5.722  16.307  0.0723  2.8145 -1.0624
17247TIP3    H273233   0.122   5.768  16.188  1.1094 -1.2712 -2.0094
17248TIP3   OH273234   1.302   4.912  13.459 -0.0895 -0.4744 -0.4387
17248TIP3    H173235   1.354   4.847  13.506 -1.0851 -1.5200 -0.7400
17248TIP3    H273236   1.214   4.874  13.456 -1.3117  1.9757  1.5190
17249TIP3   OH273237   3.063   6.599  15.808 -0.1927 -1.0156  0.3401
17249TIP3    H173238   3.033   6.613  15.898 -2.0649 -0.2017 -0.3995
17249TIP3    H273239   3.101   6.683  15.782 -1.3574 -0.6627 -0.2609
17250TIP3   OH273240   0.493   5.088   1.731 -0.2512 -0.0403  0.0765
17250TIP3    H173241   0.505   5.063   1.822 -0.8267  0.1972  0.2157
17250TIP3    H273242   0.500   5.006   1.682 -0.8396 -0.2924  0.4147
17251TIP3   OH273243   1.052   5.142  13.102 -0.0488  0.0961 -0.5877
17251TIP3    H173244   1.003   5.076  13.053  1.3674 -1.1924 -0.2916
17251TIP3    H273245   1.011   5.143  13.188 -1.0042  0.6491 -1.0404
17252TIP3   OH273246   2.349   2.579   4.098  1.3364 -0.3642  0.9635
17252TIP3    H173247   2.265   2.540   4.072  0.2355  1.4831  1.6057
17252TIP3    H273248   2.406   2.567   4.022 -0.0552 -0.1274 -0.1406
17253TIP3   OH273249   1.096   3.556  11.473  0.1847  0.5699 -0.5068
17253TIP3    H173250   1.060   3.635  11.512 -0.2398 -0.2151  0.7389
17253TIP3    H273251   1.056   3.484  11.522  1.8736 -0.3859 -0.4708
17254TIP3   OH273252   2.886   1.616   1.219  0.5497 -0.6712  0.5017
17254TIP3    H173253   2.848   1.533   1.190 -0.9545 -0.6242  2.2548
17254TIP3    H273254   2.818   1.657   1.271  1.4413  1.4891  0.0451
17255TIP3   OH273255   0.278   1.631  15.494 -0.2147  0.3329  0.2017
17255TIP3    H173256   0.233   1.557  15.454 -2.1831  0.5475  1.9333
17255TIP3    H273257   0.267   1.703  15.432 -2.6677  0.4944  0.7946
17256TIP3   OH273258   5.728   3.187   5.566 -0.2974 -0.1175  0.1710
17256TIP3    H173259   5.781   3.131   5.623 -0.4675 -0.9321 -0.4657
17256TIP3    H273260   5.773   3.271   5.567  0.2693 -0.4219  0.6924
17257TIP3   OH273261   2.080   5.338  14.825  0.0210  0.4144 -0.4642
17257TIP3    H173262   2.069   5.341  14.730  0.8768  1.0030 -0.5517
17257TIP3    H273263   2.012   5.397  14.858  0.3549  0.9707 -0.7650
17258TIP3   OH273264   3.331   1.246   5.319 -0.4346  0.5057 -0.3926
17258TIP3    H173265   3.412   1.297   5.316 -0.6598  0.8239 -1.4193
17258TIP3    H273266   3.359   1.159   5.345  0.4811  0.1780 -2.3820
17259TIP3   OH273267   1.618   6.515   2.080  0.4455 -0.1522  0.3184
17259TIP3    H173268   1.682   6.493   2.012  0.5533  1.3660 -0.0824
17259TIP3    H273269   1.535   6.523   2.033  0.2530 -0.5371  0.5929
17260TIP3   OH273270   3.754   2.106  15.121  0.0923  0.0958  0.9193
17260TIP3    H173271   3.825   2.068  15.069 -0.7298 -0.7187  0.3922
17260TIP3    H273272   3.747   2.048  15.197 -0.1765  0.0415  0.8505
17261TIP3   OH273273   4.674   3.044  10.870 -0.4800  0.3121 -0.5545
17261TIP3    H173274   4.638   3.133  10.865  0.3382  0.6072 -1.4342
17261TIP3    H273275   4.747   3.044  10.807 -0.9772 -1.2051 -1.1699
17262TIP3   OH273276   2.596   1.064  16.202  0.0595  0.2005  0.2469
17262TIP3    H173277   2.600   1.053  16.297  0.7158 -0.4965  0.1378
17262TIP3    H273278   2.685   1.044  16.172 -0.4686 -0.7926 -0.6465
17263TIP3   OH273279   5.265   6.390   3.698 -0.4554  0.3293  0.2993
17263TIP3    H173280   5.281   6.299   3.671 -0.0229  0.2141  0.9333
17263TIP3    H273281   5.170   6.400   3.691 -0.5956 -0.4222  0.9676
17264TIP3   OH273282   0.575   5.105   6.007  0.0595  0.1237 -0.2304
17264TIP3    H173283   0.593   5.149   5.924  2.2713  0.5872  0.4804
17264TIP3    H273284   0.502   5.046   5.987  0.7518  0.0188 -2.5824
17265TIP3   OH273285   0.640   3.048   2.577 -0.0449  0.7207  0.4830
17265TIP3    H173286   0.725   3.033   2.537 -1.2690 -1.4466 -1.4215
17265TIP3    H273287   0.660   3.069   2.668  2.4084 -2.1245  0.6745
17266TIP3   OH273288   1.620   4.574  15.872  0.2851 -0.0653 -0.4069
17266TIP3    H173289   1.714   4.586  15.884  0.0860 -2.2080  4.0628
17266TIP3    H273290   1.604   4.483  15.896 -2.9686  0.3271 -0.9149
17267TIP3   OH273291   3.370   2.485   1.284  0.3838  0.1116 -0.7695
17267TIP3    H173292   3.408   2.417   1.340  1.3105  0.3533 -1.0854
17267TIP3    H273293   3.276   2.476   1.295  0.5687  0.6626  1.4349
17268TIP3   OH273294   2.897   4.542   0.684 -0.8730 -0.1202 -0.3326
17268TIP3    H173295   2.988   4.555   0.708 -1.1501  0.9487  0.1769
17268TIP3    H273296   2.863   4.630   0.670 -2.0484 -0.4494  0.3255
17269TIP3   OH273297   4.276   5.749  16.734 -0.0942  0.2630  0.3807
17269TIP3    H173298   4.239   5.671  16.773 -0.3653  0.2657  0.1320
17269TIP3    H273299   4.229   5.822  16.776 -0.7374  0.2494 -0.3076
17270TIP3   OH273300   1.394   6.247   2.711 -0.3081  0.1736  0.0791
17270TIP3    H173301   1.473   6.280   2.754 -0.0415 -1.0020  0.5271
17270TIP3    H273302   1.327   6.250   2.780  0.0410 -1.4211  0.4975
17271TIP3   OH273303   6.166   6.206   2.338  0.0019 -0.2108 -0.2600
17271TIP3    H173304   6.074   6.181   2.327 -0.6229  1.5887  0.7268
17271TIP3    H273305   6.207   6.182   2.255 -1.1377 -1.9496 -0.3499
17272TIP3   OH273306   2.596   2.623   3.618  0.7395 -0.2827 -0.7716
17272TIP3    H173307   2.661   2.573   3.666 -0.0373 -0.2730  0.2847
17272TIP3    H273308   2.630   2.713   3.618  0.2993 -0.1144  0.5287
17273TIP3   OH273309   3.204   0.505   4.882  0.0667 -0.1372  0.5110
17273TIP3    H173310   3.242   0.441   4.821  0.0990  0.2856  0.0792
17273TIP3    H273311   3.244   0.485   4.966 -0.2969 -1.0094  0.4889
17274TIP3   OH273312   4.849   6.635  13.252 -0.8608 -0.3612 -0.4245
17274TIP3    H173313   4.789   6.591  13.311 -0.5883 -0.1574  0.0087
17274TIP3    H273314   4.795   6.661  13.177 -1.6375  1.1463  0.6181
17275TIP3   OH273315   2.362   3.567   5.539 -0.7664 -0.1351  0.3031
17275TIP3    H173316   2.320   3.644   5.577  1.5209  2.1444 -1.6492
17275TIP3    H273317   2.329   3.563   5.449 -0.8748 -1.4697  0.3835
17276TIP3   OH273318   4.798   6.705  16.500 -0.0528 -0.5576  0.3507
17276TIP3    H173319   4.727   6.750  16.454  0.3481  0.2519  0.5250
17276TIP3    H273320   4.804   6.620  16.456  0.8160  0.4847 -1.5813
17277TIP3   OH273321   3.241   0.441   5.164  0.2723 -0.3662  0.5112
17277TIP3    H173322   3.175   0.388   5.120  0.6040 -1.9347  1.8626
17277TIP3    H273323   3.190   0.507   5.212 -0.2483 -0.6322  0.3276
17278TIP3   OH273324   2.392   1.304  14.799 -0.1444 -0.1212  0.6427
17278TIP3    H173325   2.486   1.286  14.803 -0.1606 -0.5126 -0.6935
17278TIP3    H273326   2.366   1.314  14.891  1.2471  0.2519  1.0041
17279TIP3   OH273327   3.750   4.512  15.173 -1.1964  0.6113  0.5666
17279TIP3    H173328   3.761   4.567  15.096 -1.0643 -0.0193  0.1360
17279TIP3    H273329   3.800   4.556  15.242 -1.0594  1.0016  0.2173
17280TIP3   OH273330   4.370   0.856  15.971 -0.0478 -0.4682  0.2685
17280TIP3    H173331   4.412   0.773  15.951  2.6858  0.8765  0.1553
17280TIP3    H273332   4.391   0.873  16.063  1.9987  1.4516 -0.4846
17281TIP3   OH273333   0.392   0.270  15.721 -0.4874 -0.4415  0.3888
17281TIP3    H173334   0.315   0.219  15.742 -0.5198 -1.1447 -1.3627
17281TIP3    H273335   0.358   0.349  15.679 -0.2480 -0.9944 -0.8651
17282TIP3   OH273336   3.212   1.851  13.260 -0.1545 -0.3792  0.4984
17282TIP3    H173337   3.147   1.827  13.326  1.2770  0.4703  2.2724
17282TIP3    H273338   3.293   1.807  13.289  0.7414  0.8538 -0.0905
17283TIP3   OH273339   2.682   1.421  11.168 -0.0174  0.5729  0.5270
17283TIP3    H173340   2.664   1.391  11.079 -1.9079  2.0562  0.3777
17283TIP3    H273341   2.617   1.375  11.222 -0.8135  1.8779  0.7199
17284TIP3   OH273342   0.888   3.237  15.395 -0.1072 -0.1486  0.3786
17284TIP3    H173343   0.948   3.249  15.322 -0.3984  0.9579  0.3101
17284TIP3    H273344   0.803   3.265  15.361 -0.7437 -2.0289  0.3663
17285TIP3   OH273345   3.992   5.969   5.122 -0.0555  0.2632  0.0776
17285TIP3    H173346   3.924   5.950   5.185 -0.4752  1.4185 -0.0201
17285TIP3    H273347   3.948   5.966   5.037  0.3546 -0.5767 -0.1104
17286TIP3   OH273348   6.008   1.928   3.711 -0.1790 -0.0326 -0.3362
17286TIP3    H173349   5.940   1.864   3.732 -0.0174  0.0893  0.6000
17286TIP3    H273350   5.991   2.001   3.771 -1.0404  1.2951 -2.1452
17287TIP3   OH273351   5.840   1.848  13.700 -0.3114 -0.1315 -0.3648
17287TIP3    H173352   5.904   1.916  13.718  1.0471 -1.7519  0.9984
17287TIP3    H273353   5.875   1.802  13.623 -0.7256  0.0569 -0.6709
17288TIP3   OH273354   5.596   4.983  16.743 -0.2841 -0.2974  0.7330
17288TIP3    H173355   5.552   4.962  16.661 -1.7072  0.1859  1.3580
17288TIP3    H273356   5.572   4.912  16.803  0.7622 -0.6592  0.7230
17289TIP3   OH273357   5.457   3.660  15.492  0.2127  0.1823 -0.2468
17289TIP3    H173358   5.489   3.713  15.419  2.3577 -0.1122  0.4542
17289TIP3    H273359   5.511   3.581  15.491 -0.4298 -0.2967  1.0373
17290TIP3   OH273360   4.386   3.296   1.797 -0.1086 -0.0083 -0.4400
17290TIP3    H173361   4.308   3.336   1.760 -0.0753 -1.2419 -1.9030
17290TIP3    H273362   4.385   3.206   1.764  0.7444 -0.7018  1.3322
17291TIP3   OH273363   5.174   4.489   3.576  0.6452 -0.0874 -0.5510
17291TIP3    H173364   5.133   4.408   3.545  1.1416 -0.1900 -0.9496
17291TIP3    H273365   5.264   4.464   3.597 -0.0095 -0.2876  2.1685
17292TIP3   OH273366   0.526   2.981  15.899 -0.6030  0.1751 -0.2122
17292TIP3    H173367   0.440   3.008  15.933  0.0464  0.8217  0.9342
17292TIP3    H273368   0.579   3.060  15.901  0.0973 -0.2756 -0.7063
17293TIP3   OH273369   5.838   4.057  16.057 -0.1803 -0.0245 -0.2563
17293TIP3    H173370   5.822   4.113  15.981 -0.9069  0.6589  0.3866
17293TIP3    H273371   5.895   4.110  16.114  0.7721 -0.7294 -0.5482
17294TIP3   OH273372   0.246   4.241  10.515  0.2701 -0.5472  0.0864
17294TIP3    H173373   0.241   4.202  10.428  1.2517 -2.4608  0.8646
17294TIP3    H273374   0.175   4.305  10.517  1.5916  1.1006 -2.8916
17295TIP3   OH273375   5.898   1.059  15.217  0.0916 -0.4747  0.2270
17295TIP3    H173376   5.848   1.083  15.295  0.9728 -2.4635  1.4700
17295TIP3    H273377   5.931   1.142  15.183  0.3297  0.3846  2.4462
17296TIP3   OH273378   4.804   3.681   0.754  0.4455  0.8337 -0.2893
17296TIP3    H173379   4.882   3.712   0.801 -0.8917 -0.5622  3.0323
17296TIP3    H273380   4.834   3.603   0.708  0.7805 -0.4998  2.0852
17297TIP3   OH273381   6.487   5.640  16.719 -0.4461  0.2348  0.3823
17297TIP3    H173382   6.409   5.595  16.687  0.2760 -2.3273  2.0347
17297TIP3    H273383   6.547   5.640  16.645 -1.2589  0.3896 -0.2812
17298TIP3   OH273384   5.408   5.482  15.108 -0.3628 -0.3298  0.1912
17298TIP3    H173385   5.366   5.566  15.094 -1.9442 -1.0117  0.7391
17298TIP3    H273386   5.369   5.449  15.189  0.0666 -1.6860 -0.1382
17299TIP3   OH273387   1.454   4.180   2.856  0.3541 -0.1907  0.6654
17299TIP3    H173388   1.409   4.148   2.935 -1.4586 -0.9802 -0.6588
17299TIP3    H273389   1.385   4.222   2.805  1.4848  0.1465 -0.6053
17300TIP3   OH273390   1.462   4.824  15.931  0.1232  0.1401  0.2185
17300TIP3    H173391   1.523   4.756  15.902 -1.1189 -0.2203 -1.6095
17300TIP3    H273392   1.513   4.905  15.925  0.9678 -0.3690  0.4068
17301TIP3   OH273393   1.461   4.243  11.442  0.2943  0.3839 -0.2506
17301TIP3    H173394   1.457   4.298  11.520 -1.2921  1.7645 -1.2469
17301TIP3    H273395   1.533   4.279  11.390  1.4133 -0.5984  0.6146
17302TIP3   OH273396   3.003   1.065   3.653  0.0216 -0.0639  0.7624
17302TIP3    H173397   3.022   0.972   3.657 -0.8264 -0.2794  0.1029
17302TIP3    H273398   3.088   1.107   3.638  0.1609 -0.8840 -0.9024
17303TIP3   OH273399   0.038   0.892   1.008  0.4072 -0.7125 -0.1288
17303TIP3    H173400  -0.038   0.855   0.964  0.5130 -0.6508 -0.3645
17303TIP3    H273401   0.113   0.850   0.967  0.5106 -0.5801 -0.0763
17304TIP3   OH273402   4.268   2.442   4.444 -0.3738 -0.0258 -0.0399
17304TIP3    H173403   4.323   2.519   4.429  0.1597 -0.3168  0.4044
17304TIP3    H273404   4.184   2.477   4.473 -0.3150  0.4093 -0.3939
17305TIP3   OH273405   6.201   3.100   2.568  0.0677  0.6097 -0.0971
17305TIP3    H173406   6.121   3.053   2.545 -0.6015  0.3221  2.6646
17305TIP3    H273407   6.174   3.192   2.571 -0.4380  0.4180  1.8294
17306TIP3   OH273408   3.704   3.172   2.907  0.4202 -0.3305 -0.2971
17306TIP3    H173409   3.622   3.181   2.857 -0.9092  0.2587  1.9153
17306TIP3    H273410   3.723   3.078   2.904 -0.8858 -0.6187 -0.0518
17307TIP3   OH273411   2.323   5.240   2.364  0.0830 -0.2508  0.2247
17307TIP3    H173412   2.241   5.204   2.399  0.0460  0.8231  1.2826
17307TIP3    H273413   2.366   5.165   2.323 -0.6676 -1.1870  1.1103
17308TIP3   OH273414   3.670   4.305   2.986  0.0988 -0.1273  0.4324
17308TIP3    H173415   3.688   4.399   2.997  0.5753 -0.1792  0.0938
17308TIP3    H273416   3.578   4.301   2.961  0.0766  0.2526  0.4494
17309TIP3   OH273417   4.015   4.781   4.904 -0.0625  0.2092  0.7146
17309TIP3    H173418   3.971   4.866   4.898 -0.5106  0.0583  1.8361
17309TIP3    H273419   4.048   4.766   4.815 -0.1334  1.4653  0.4582
17310TIP3   OH273420   1.092   5.525   4.957  0.2387 -1.1935 -0.2223
17310TIP3    H173421   1.144   5.593   4.915 -1.6183  1.4432  1.5636
17310TIP3    H273422   1.154   5.480   5.015  1.0598  0.4027  0.1765
17311TIP3   OH273423   6.775   4.622  12.985  0.0526 -0.1986  0.1513
17311TIP3    H173424   6.772   4.643  13.079 -0.1285 -0.5970  0.2336
17311TIP3    H273425   6.836   4.549  12.979  0.2896  0.0156 -0.0786
17312TIP3   OH273426   1.120   3.701  12.947 -0.2991  0.0703 -0.2436
17312TIP3    H173427   1.174   3.624  12.963 -1.0429 -0.4358 -0.1649
17312TIP3    H273428   1.154   3.768  13.007  0.0979 -0.3114 -0.0444
17313TIP3   OH273429   2.733   5.492   3.771  0.3166 -0.8970  0.2141
17313TIP3    H173430   2.820   5.509   3.736  0.9396 -0.0576  2.1097
17313TIP3    H273431   2.748   5.430   3.842 -0.4751  0.1522  1.3100
17314TIP3   OH273432   1.111   0.363  12.502  0.4447 -0.0314 -0.0797
17314TIP3    H173433   1.113   0.277  12.544 -1.7164 -0.2492 -0.3797
17314TIP3    H273434   1.144   0.348  12.414  0.0205 -0.5816 -0.1499
17315TIP3   OH273435   5.838   5.404  16.606 -1.0046  0.0066  0.4629
17315TIP3    H173436   5.861   5.343  16.537 -0.5634 -0.9235  1.4189
17315TIP3    H273437   5.819   5.349  16.682  1.3375  1.0943  1.9268
17316TIP3   OH273438   3.059   4.763   3.882  0.5816 -0.1361  0.4622
17316TIP3    H173439   2.984   4.710   3.910  0.6034  0.4469  1.6513
17316TIP3    H273440   3.022   4.828   3.823  0.0769  0.4208  1.3853
17317TIP3   OH273441   0.569   3.937   3.017  0.2017 -0.1083  0.1822
17317TIP3    H173442   0.607   3.937   2.929  0.8970 -0.3081  0.4809
17317TIP3    H273443   0.643   3.953   3.076 -0.5356  1.7928  0.6277
17318TIP3   OH273444   0.392   6.460   3.301  0.4254 -0.6346  0.4091
17318TIP3    H173445   0.424   6.374   3.326  1.7504 -0.6331 -1.2367
17318TIP3    H273446   0.297   6.455   3.314  0.1348 -3.2354 -2.2219
17319TIP3   OH273447   3.097   3.412   2.691  0.2944 -0.1090  0.3798
17319TIP3    H173448   3.016   3.420   2.741  0.3084  0.6300  0.2941
17319TIP3    H273449   3.074   3.360   2.614 -0.4209  1.1997 -0.3128
17320TIP3   OH273450   2.852   6.489  14.408  0.1052 -0.6085  0.4833
17320TIP3    H173451   2.773   6.455  14.366  1.5129  0.3267 -3.2138
17320TIP3    H273452   2.827   6.508  14.498 -2.6538 -4.4485  0.6095
17321TIP3   OH273453   3.805   3.381   0.278  0.0867 -0.1220 -0.1851
17321TIP3    H173454   3.850   3.463   0.259 -0.8480  0.2614 -0.8139
17321TIP3    H273455   3.746   3.368   0.204  1.0768 -1.9819 -0.6688
17322TIP3   OH273456   5.923   2.730   5.755 -0.1075 -0.4738 -0.1248
17322TIP3    H173457   5.877   2.651   5.784 -0.4027 -0.5885 -0.9101
17322TIP3    H273458   6.006   2.727   5.803 -1.1686  0.0655  1.7816
17323TIP3   OH273459   2.429   5.994   1.878 -0.1139  0.0443  0.0770
17323TIP3    H173460   2.365   5.938   1.922 -1.1719  0.6434 -0.6723
17323TIP3    H273461   2.403   6.083   1.902  2.7447  0.2160  2.9082
17324TIP3   OH273462   0.222   2.029   0.069  0.6778 -0.0688 -0.5081
17324TIP3    H173463   0.295   2.089   0.088  2.3119 -1.9111 -0.7884
17324TIP3    H273464   0.145   2.085   0.068  1.6639  1.5075  2.7617
17325TIP3   OH273465   3.506   5.096  15.690  0.6977 -0.0572 -0.0120
17325TIP3    H173466   3.427   5.107  15.743 -0.1964 -1.3148 -1.0519
17325TIP3    H273467   3.573   5.147  15.735 -0.6291  0.7461  1.0645
17326TIP3   OH273468   6.033   2.086   1.892  0.3829 -0.2604 -0.0212
17326TIP3    H173469   5.966   2.034   1.846 -0.0569  0.2381  0.0562
17326TIP3    H273470   6.071   2.141   1.825 -0.6962  0.9281  0.3090
17327TIP3   OH273471   2.911   1.871  15.560 -0.1041  0.3119  0.3008
17327TIP3    H173472   2.912   1.779  15.534 -0.1255  0.1842  0.7349
17327TIP3    H273473   2.855   1.913  15.495  1.0722  0.2926 -0.7516
17328TIP3   OH273474   3.998   2.012  14.270 -0.7855  0.0539  0.2071
17328TIP3    H173475   3.918   2.061  14.250  0.6785  2.8218  0.8368
17328TIP3    H273476   4.016   2.031  14.362  0.9258  0.0080 -0.0958
17329TIP3   OH273477   4.420   2.411   6.631  0.4089  0.1793 -0.3482
17329TIP3    H173478   4.381   2.497   6.621 -2.4743 -1.1241 -0.6996
17329TIP3    H273479   4.481   2.403   6.557 -1.1054  0.9694 -1.6853
17330TIP3   OH273480   4.355   2.804  11.920 -0.3712  0.0292  0.3410
17330TIP3    H173481   4.338   2.796  12.014 -1.0389  1.5580  0.3651
17330TIP3    H273482   4.439   2.849  11.914  0.5809 -1.7362  0.1991
17331TIP3   OH273483   1.711   0.991  14.001  0.2270  0.2499  0.7672
17331TIP3    H173484   1.806   0.999  14.005  0.2838 -0.9009  1.9875
17331TIP3    H273485   1.693   0.901  14.028 -1.1967  0.3677  0.2634
17332TIP3   OH273486   3.884   3.087  15.479  0.3814 -0.3936  0.2200
17332TIP3    H173487   3.867   3.044  15.395  1.6527 -0.8111  0.1613
17332TIP3    H273488   3.887   3.015  15.542  0.8691 -0.2373  0.3814
17333TIP3   OH273489   6.278   3.879   0.052  0.2009 -0.4880 -0.4152
17333TIP3    H173490   6.258   3.969   0.027 -2.1248 -0.4220  1.4049
17333TIP3    H273491   6.204   3.828   0.019  0.6249 -1.4382  0.0842
17334TIP3   OH273492   0.077   5.509   4.556  0.1971 -0.0389  0.5127
17334TIP3    H173493  -0.009   5.549   4.568  0.3792  0.5711 -0.2001
17334TIP3    H273494   0.077   5.477   4.466  0.7451  0.0347  0.4819
17335TIP3   OH273495   2.180   3.090   4.640  0.1976 -0.0240  0.4773
17335TIP3    H173496   2.166   2.996   4.627  0.4110  0.1287 -0.9642
17335TIP3    H273497   2.168   3.128   4.553  2.3014  1.0265  0.6311
17336TIP3   OH273498   5.516   2.642   3.065  0.8188 -0.3176  0.2698
17336TIP3    H173499   5.478   2.663   3.150  0.9854  0.5170  0.1451
17336TIP3    H273500   5.563   2.560   3.079  0.5130 -0.3881  0.8833
17337TIP3   OH273501   0.618   1.359  14.524 -0.1183 -0.8162  0.2326
17337TIP3    H173502   0.593   1.282  14.575 -0.1762 -1.4566 -0.7696
17337TIP3    H273503   0.593   1.338  14.434  0.4397  0.1183 -0.1428
17338TIP3   OH273504   4.108   4.446  15.193 -0.1558  0.2244  0.1894
17338TIP3    H173505   4.107   4.425  15.099 -1.4678 -1.7587  0.6136
17338TIP3    H273506   4.193   4.415  15.223 -0.1582 -0.1117 -0.1415
17339TIP3   OH273507   0.152   3.038   3.103 -0.1533  0.4835 -0.0837
17339TIP3    H173508   0.098   2.965   3.072 -0.3703  0.6760 -0.1629
17339TIP3    H273509   0.171   3.088   3.024 -0.2436  0.6693  0.0129
17340TIP3   OH273510   1.562   5.447   2.883  0.6402  0.4626  0.1067
17340TIP3    H173511   1.489   5.509   2.890  0.4316  0.0326  1.7958
17340TIP3    H273512   1.628   5.494   2.830  0.2494  1.8941  0.8636
17341TIP3   OH273513   0.464   6.734   3.964 -0.5099 -0.1791  0.4315
17341TIP3    H173514   0.538   6.712   4.020 -1.7806 -0.7926  1.9167
17341TIP3    H273515   0.387   6.716   4.019 -1.7440  0.4841 -1.0626
17342TIP3   OH273516   0.843   2.646  11.595  0.2383  0.3068 -1.0042
17342TIP3    H173517   0.764   2.700  11.597 -0.7379 -1.0722 -2.1062
17342TIP3    H273518   0.901   2.691  11.533 -0.8889 -0.3239 -2.5352
17343TIP3   OH273519   2.712   3.317   0.929 -0.2274  0.2031 -0.2147
17343TIP3    H173520   2.739   3.226   0.914  0.0696  0.6884 -2.7256
17343TIP3    H273521   2.733   3.332   1.022 -0.7574 -2.4317  0.3766
17344TIP3   OH273522   5.402   5.241  15.723  0.2730  0.0571  0.4122
17344TIP3    H173523   5.472   5.254  15.659  0.2780 -2.9803 -0.2948
17344TIP3    H273524   5.337   5.189  15.676 -1.5506  1.1136  1.6965
17345TIP3   OH273525   5.153   1.286  12.654  0.0326  0.5015  0.0732
17345TIP3    H173526   5.101   1.350  12.702 -1.1016  1.9595 -2.9559
17345TIP3    H273527   5.225   1.264  12.713  0.0029  3.9440  1.5261
17346TIP3   OH273528   5.762   4.258  15.856 -0.3045  0.6703  0.5428
17346TIP3    H173529   5.850   4.294  15.868 -0.1595  0.8456 -0.9492
17346TIP3    H273530   5.730   4.298  15.775 -1.8765  0.8227  1.2199
17347TIP3   OH273531   3.484   5.209   0.201  0.1643 -0.4251  0.4033
17347TIP3    H173532   3.440   5.140   0.251  0.8445 -0.3449  1.1144
17347TIP3    H273533   3.577   5.197   0.220  0.2358  1.1110  1.0798
17348TIP3   OH273534   0.236   2.260  16.125  0.1257 -0.2231 -0.1480
17348TIP3    H173535   0.174   2.215  16.067 -1.1411  1.3448 -0.0613
17348TIP3    H273536   0.263   2.337  16.076  1.2456 -0.3641  0.2324
17349TIP3   OH273537   4.292   2.636   5.857  0.4540 -0.1308  0.2294
17349TIP3    H173538   4.381   2.654   5.885  0.4047 -1.7020  1.4782
17349TIP3    H273539   4.240   2.637   5.938 -0.8156  1.6289 -0.5825
17350TIP3   OH273540   6.306   2.690  15.576  0.0285 -0.0163 -0.7817
17350TIP3    H173541   6.361   2.713  15.651  0.4896  0.2897 -1.2110
17350TIP3    H273542   6.368   2.669  15.506 -0.3950 -0.7743 -0.9414
17351TIP3   OH273543   1.494   6.378  14.190  0.1482  0.0694 -0.4911
17351TIP3    H173544   1.585   6.367  14.164  0.7708 -0.5958  1.8969
17351TIP3    H273545   1.468   6.462  14.152  1.5776  0.0168 -1.6169
17352TIP3   OH273546   4.026   4.194   3.821  1.0807 -0.5392 -0.3469
17352TIP3    H173547   4.085   4.215   3.892 -0.2107  1.4664  0.1519
17352TIP3    H273548   4.057   4.245   3.746  0.8730 -0.6273 -0.4980
17353TIP3   OH273549   2.083   5.221  16.784 -0.6521 -0.4487 -0.4562
17353TIP3    H173550   2.177   5.235  16.790 -0.8763  0.4403  1.2346
17353TIP3    H273551   2.067   5.202  16.691  1.1022 -0.0345 -0.8496
17354TIP3   OH273552   4.861   4.272  13.270 -0.6118 -0.3777 -0.0353
17354TIP3    H173553   4.835   4.180  13.264 -0.5194 -0.3571 -0.8512
17354TIP3    H273554   4.786   4.321  13.237 -0.3254 -0.2122 -0.4521
17355TIP3   OH273555   0.330   0.832   1.212  0.8009 -0.5019  0.1287
17355TIP3    H173556   0.293   0.842   1.124  0.8688 -0.3141  0.1216
17355TIP3    H273557   0.305   0.743   1.238  0.1169 -0.2887  0.2240
17356TIP3   OH273558   4.627   1.608   1.842  0.0982 -0.4673 -0.1472
17356TIP3    H173559   4.627   1.615   1.937 -1.0302 -0.6953 -0.1206
17356TIP3    H273560   4.608   1.696   1.811 -0.5579 -0.5984 -0.1302
17357TIP3   OH273561   2.115   0.052   5.655 -0.0690  0.0124 -0.1558
17357TIP3    H173562   2.089   0.017   5.570  1.2638 -1.2563 -0.0597
17357TIP3    H273563   2.184   0.115   5.635 -0.6460  0.6685 -0.1086
17358TIP3   OH273564   2.495   5.397   4.710  0.4937  0.0815 -0.8393
17358TIP3    H173565   2.408   5.435   4.701  0.0208 -0.7135  0.2310
17358TIP3    H273566   2.479   5.303   4.718  1.3322  0.0793  1.0345
17359TIP3   OH273567   5.666   4.660  14.915  0.5361  0.3394  0.0034
17359TIP3    H173568   5.617   4.620  14.987  0.5077  1.6263  0.7251
17359TIP3    H273569   5.626   4.747  14.905  1.2236  0.5567 -0.8727
17360TIP3   OH273570   5.855   5.997   1.109  0.0465  0.2045 -0.4595
17360TIP3    H173571   5.806   6.027   1.033  1.0303  1.4078 -0.6284
17360TIP3    H273572   5.790   5.991   1.179 -1.1120 -2.1713 -1.7034
17361TIP3   OH273573   4.972   1.395   4.811  0.1644  1.0629 -0.3655
17361TIP3    H173574   4.953   1.483   4.844 -1.1699  0.6421  0.0255
17361TIP3    H273575   5.020   1.409   4.729 -0.1402  2.1529 -0.3574
17362TIP3   OH273576   0.949   1.204  15.567  0.0752 -0.1566 -0.1897
17362TIP3    H173577   0.918   1.123  15.607 -3.2931  1.3536  0.3819
17362TIP3    H273578   0.957   1.266  15.640  1.0420  0.5092 -0.8419
17363TIP3   OH273579   5.140   5.877   1.490 -0.3164  0.1006  0.0980
17363TIP3    H173580   5.175   5.925   1.565  1.9222 -0.1710 -0.7096
17363TIP3    H273581   5.218   5.840   1.448 -1.8095 -2.3813 -0.5543
17364TIP3   OH273582   1.917   1.933   1.197  0.2083  0.4419  0.4901
17364TIP3    H173583   2.008   1.925   1.165 -0.5128 -1.0362 -1.3395
17364TIP3    H273584   1.921   1.905   1.288  1.5385 -0.1024  0.2823
17365TIP3   OH273585   5.165   3.571   4.872  0.3859  0.9201  0.4458
17365TIP3    H173586   5.260   3.569   4.861  0.3067  0.9760 -0.2884
17365TIP3    H273587   5.131   3.578   4.783 -0.3089  0.8424  0.7023
17366TIP3   OH273588   4.974   1.796  13.774 -0.4579  0.0485 -0.1738
17366TIP3    H173589   4.880   1.808  13.768 -0.4277 -0.0329 -0.8320
17366TIP3    H273590   5.012   1.876  13.737 -0.2582  1.0556  2.1138
17367TIP3   OH273591   1.384   5.403   6.281  0.7057 -1.0334 -0.6302
17367TIP3    H173592   1.321   5.334   6.258  0.1792 -0.1575 -1.8632
17367TIP3    H273593   1.330   5.481   6.295  1.1674 -1.1503  2.1027
17368TIP3   OH273594   1.002   2.560   1.972 -0.3069  0.2373 -0.9914
17368TIP3    H173595   1.030   2.566   1.881  2.6097 -1.2000 -0.2231
17368TIP3    H273596   0.979   2.468   1.985  0.6908  0.1246  0.1058
17369TIP3   OH273597   4.270   0.220  13.659  0.6079  0.1073 -0.3502
17369TIP3    H173598   4.226   0.301  13.687  0.4846 -0.0744 -0.0222
17369TIP3    H273599   4.228   0.151  13.709  0.7057 -0.1648 -0.6436
17370TIP3   OH273600   4.369   2.033   4.929  0.4359  0.5447  0.2563
17370TIP3    H173601   4.330   1.975   4.995 -0.8720  1.8428  0.6477
17370TIP3    H273602   4.298   2.053   4.869  1.8344 -1.3964 -2.1815
17371TIP3   OH273603   5.647   0.980  13.800 -0.5287  0.2132 -0.1595
17371TIP3    H173604   5.654   1.021  13.713 -1.0991  0.9182  0.1298
17371TIP3    H273605   5.555   0.957  13.809 -0.8715  2.0050  1.1014
17372TIP3   OH273606   1.697   4.205  12.811  0.0531  0.0199 -0.1078
17372TIP3    H173607   1.665   4.265  12.878 -0.5630 -0.3937 -0.0312
17372TIP3    H273608   1.671   4.118  12.842  2.1686 -0.4326  0.4975
17373TIP3   OH273609   1.529   1.130  11.039 -0.1323  0.1888 -0.2967
17373TIP3    H173610   1.435   1.117  11.026 -0.1659  0.2387 -0.1006
17373TIP3    H273611   1.535   1.202  11.101 -0.0030 -1.4508  1.6409
17374TIP3   OH273612   2.979   5.653  11.450  0.5980 -0.1342  0.4793
17374TIP3    H173613   2.928   5.573  11.456  0.6724 -0.2018  0.1950
17374TIP3    H273614   3.026   5.646  11.367  1.9696 -0.6099  1.2702
17375TIP3   OH273615   4.624   6.210  17.067 -0.2551  0.7505  0.2632
17375TIP3    H173616   4.715   6.210  17.039 -0.2135 -0.2005  0.3847
17375TIP3    H273617   4.627   6.200  17.162 -0.4497  2.1412  0.4253
17376TIP3   OH273618   4.403   4.443  16.036  0.5338 -0.4227  0.0394
17376TIP3    H173619   4.462   4.487  16.098 -1.4381  1.6589  0.5091
17376TIP3    H273620   4.369   4.514  15.982 -0.9599 -1.6935 -0.7131
17377TIP3   OH273621   3.843   0.355   4.403 -0.2692  0.3733  0.0102
17377TIP3    H173622   3.915   0.315   4.451 -0.1732  0.6662  0.1110
17377TIP3    H273623   3.884   0.422   4.349 -0.7785  2.5800  2.2388
17378TIP3   OH273624   2.651   1.733  14.952 -0.6170 -0.3071  0.5651
17378TIP3    H173625   2.689   1.682  15.024 -0.5788 -0.0089  0.7536
17378TIP3    H273626   2.571   1.769  14.988 -0.4535  0.0761  0.5425
17379TIP3   OH273627   6.031   4.994   5.763 -0.1580 -0.2324 -0.3009
17379TIP3    H173628   6.016   5.087   5.777  1.9964  0.2063 -0.6533
17379TIP3    H273629   5.968   4.950   5.819 -2.6074  1.4122 -1.6936
17380TIP3   OH273630   3.442   1.309  13.768 -0.4071 -0.2163  0.1375
17380TIP3    H173631   3.408   1.325  13.856 -1.0351 -1.2274  0.0878
17380TIP3    H273632   3.442   1.214  13.760  2.4388 -0.2417  0.1278
17381TIP3   OH273633   1.544   4.314   4.050  0.1201 -0.0913 -0.3782
17381TIP3    H173634   1.617   4.276   4.001 -0.5155  0.4370 -1.7615
17381TIP3    H273635   1.493   4.238   4.079 -0.4341 -0.3810 -2.0291
17382TIP3   OH273636   0.019   5.759   3.146 -0.5745 -0.1154 -0.0853
17382TIP3    H173637   0.021   5.825   3.077  2.7425 -1.6318 -1.5266
17382TIP3    H273638   0.110   5.734   3.158 -1.5252 -2.7954  2.0833
17383TIP3   OH273639   4.485   5.600  13.366  0.0913 -0.1194 -0.1160
17383TIP3    H173640   4.534   5.573  13.288 -0.1932  0.3670 -0.4690
17383TIP3    H273641   4.401   5.629  13.331  0.3765  1.1733  0.2677
17384TIP3   OH273642   5.488   3.318  11.571  0.2553 -0.1195 -0.0247
17384TIP3    H173643   5.397   3.290  11.566  1.1775 -3.0327 -1.7142
17384TIP3    H273644   5.505   3.362  11.488  0.4991  0.0308  0.1028
17385TIP3   OH273645   1.761   4.283  12.171 -0.2405  0.4344  0.4519
17385TIP3    H173646   1.734   4.298  12.080 -0.5271  0.4573  0.5414
17385TIP3    H273647   1.848   4.245  12.163 -1.1420 -1.6505  0.0842
17386TIP3   OH273648   3.370   3.241   5.930  0.2907 -0.0573 -0.2560
17386TIP3    H173649   3.366   3.165   5.872 -0.5066  0.0552 -0.3490
17386TIP3    H273650   3.294   3.232   5.987 -0.0527  0.8994 -0.5576
17387TIP3   OH273651   5.809   4.212   0.058  0.1384 -0.0411  0.1338
17387TIP3    H173652   5.843   4.301   0.058 -1.2435  0.4960  0.1517
17387TIP3    H273653   5.825   4.180  -0.031  0.9881  0.0793  0.2422
17388TIP3   OH273654   5.171   4.784  15.454  0.2934  0.1496  0.2419
17388TIP3    H173655   5.156   4.742  15.370  1.3980  0.9792 -0.3729
17388TIP3    H273656   5.083   4.809  15.484 -0.1420 -0.5262 -0.4446
17389TIP3   OH273657   2.457   2.552   0.807 -0.0663  0.3701 -0.4552
17389TIP3    H173658   2.546   2.584   0.823  1.3105 -1.8484 -3.2681
17389TIP3    H273659   2.439   2.574   0.716 -0.9018 -2.4620 -1.0454
17390TIP3   OH273660   3.818   5.200   1.669  0.0536 -1.0442 -0.3582
17390TIP3    H173661   3.873   5.276   1.688 -1.3705  0.0146 -0.3951
17390TIP3    H273662   3.796   5.164   1.755 -1.8838  0.4965 -0.1790
17391TIP3   OH273663   6.380   3.114  11.711 -0.6428  0.2088  0.3039
17391TIP3    H173664   6.474   3.107  11.723  0.1389  3.0634 -3.2319
17391TIP3    H273665   6.355   3.033  11.666  0.1379 -0.5100  1.1608
17392TIP3   OH273666   1.047   6.166   3.109  0.0326  0.2789 -0.5241
17392TIP3    H173667   1.114   6.098   3.113 -1.4821 -1.1495  2.9934
17392TIP3    H273668   0.985   6.136   3.042  0.0949 -1.1254  0.0340
17393TIP3   OH273669   5.783   5.679   4.667  0.1364 -0.1513  0.8351
17393TIP3    H173670   5.772   5.691   4.572  3.6967  2.0264  0.6389
17393TIP3    H273671   5.726   5.604   4.687  2.9333 -3.8413 -3.9097
17394TIP3   OH273672   2.248   2.165  13.653  0.6879  0.2972 -0.2293
17394TIP3    H173673   2.183   2.145  13.586  0.8601  1.2105 -0.6702
17394TIP3    H273674   2.230   2.256  13.678  0.0975 -0.2834  1.5569
17395TIP3   OH273675   5.391   5.699   3.643  0.1816 -0.2382 -0.5764
17395TIP3    H173676   5.418   5.688   3.552  0.0650  1.3844 -0.8271
17395TIP3    H273677   5.295   5.696   3.640  0.1852 -0.4184 -0.4831
17396TIP3   OH273678   3.138   0.028  17.267 -0.6715 -0.2958  0.3974
17396TIP3    H173679   3.193   0.101  17.297  2.1494 -2.1483 -0.1022
17396TIP3    H273680   3.096   0.062  17.188  0.9488  0.6465 -0.0833
17397TIP3   OH273681   3.308   6.008   4.449 -0.2384  0.3261 -0.3973
17397TIP3    H173682   3.305   5.993   4.355 -0.5905 -0.4145 -0.2714
17397TIP3    H273683   3.383   5.958   4.480 -1.3325 -1.1045  0.0011
17398TIP3   OH273684   4.494   0.266  13.120  0.2119  0.4449  0.2428
17398TIP3    H173685   4.415   0.281  13.172  0.4417  1.2062  0.3838
17398TIP3    H273686   4.463   0.259  13.030  0.0929  1.8969  0.1591
17399TIP3   OH273687   2.382   2.283   0.548 -0.2445 -0.1457  0.5324
17399TIP3    H173688   2.447   2.353   0.554  0.6472 -0.8085 -1.0622
17399TIP3    H273689   2.421   2.210   0.596  0.5261 -0.7793 -1.0369
17400TIP3   OH273690   3.323   0.342  16.404 -0.1181 -0.1120 -0.2672
17400TIP3    H173691   3.247   0.353  16.461  0.2475  2.9456 -0.2860
17400TIP3    H273692   3.285   0.323  16.318 -0.7936 -0.5816  0.1319
17401TIP3   OH273693   2.202   1.346   2.078 -0.0988 -0.1096 -0.3744
17401TIP3    H173694   2.117   1.352   2.033 -1.2905  0.0024  1.8488
17401TIP3    H273695   2.258   1.408   2.031 -0.9822 -0.8037 -2.4085
17402TIP3   OH273696   3.809   0.674   0.471  0.1422  0.4270 -0.3940
17402TIP3    H173697   3.743   0.719   0.418 -0.6376  0.4606  0.6009
17402TIP3    H273698   3.861   0.745   0.509 -2.3110  0.6345  2.7703
17403TIP3   OH273699   1.549   6.482   1.429 -0.0630 -0.4865  0.4031
17403TIP3    H173700   1.604   6.478   1.351 -0.3936  0.3541  0.1260
17403TIP3    H273701   1.598   6.434   1.495  0.3658 -0.9308 -0.2337
17404TIP3   OH273702   4.208   6.718  15.952  0.0521  0.0747  0.1959
17404TIP3    H173703   4.199   6.706  15.857 -1.8864  0.0749  0.3593
17404TIP3    H273704   4.124   6.756  15.979  0.8776  0.7659  1.8034
17405TIP3   OH273705   1.337   6.331   4.900  0.2203 -0.2724  0.3339
17405TIP3    H173706   1.252   6.315   4.861  0.0512 -0.7517  0.8847
17405TIP3    H273707   1.397   6.336   4.826 -0.2328 -0.2789 -0.0340
17406TIP3   OH273708   0.350   0.914  10.872 -0.0908 -0.3996  0.1685
17406TIP3    H173709   0.307   0.903  10.788  0.2502  0.5531 -0.1379
17406TIP3    H273710   0.436   0.872  10.860  0.6575  1.2584 -0.5488
17407TIP3   OH273711   2.660   1.943   0.427 -0.2424 -0.1169 -0.6612
17407TIP3    H173712   2.722   2.015   0.412 -0.6367  0.0358 -1.5896
17407TIP3    H273713   2.578   1.974   0.388 -0.7789 -0.5169  0.1359
17408TIP3   OH273714   1.238   1.293  13.717  0.1735 -0.3917 -0.1357
17408TIP3    H173715   1.253   1.376  13.671 -3.2240 -0.5026 -1.5731
17408TIP3    H273716   1.179   1.244  13.660 -1.0203 -2.1757  2.5301
17409TIP3   OH273717   2.125   2.401  14.304  0.4497 -0.3480 -0.2004
17409TIP3    H173718   2.043   2.369  14.266  0.9523 -0.2642 -1.3750
17409TIP3    H273719   2.193   2.370  14.245  1.2363 -0.0706  0.5475
17410TIP3   OH273720   0.288   1.289  13.329  0.1139  0.6743 -0.4112
17410TIP3    H173721   0.272   1.211  13.276  0.0995  0.7224 -0.4767
17410TIP3    H273722   0.288   1.361  13.266 -0.0548  0.7496 -0.3241
17411TIP3   OH273723   3.941   4.113   2.582  0.1612  0.0274  0.0739
17411TIP3    H173724   3.868   4.101   2.642 -1.4191 -0.4232 -1.8865
17411TIP3    H273725   3.911   4.076   2.499  2.0442  1.1801 -1.1821
17412TIP3   OH273726   0.042   3.805   2.112  0.2710  0.3792  0.0366
17412TIP3    H173727   0.005   3.884   2.073 -1.8105 -0.5036  0.1223
17412TIP3    H273728   0.106   3.774   2.048  0.3741  1.5793 -0.4539
17413TIP3   OH273729   2.773   2.061  14.737  0.5372 -0.3704 -0.0673
17413TIP3    H173730   2.785   2.142  14.687 -1.7769  0.0053 -0.0934
17413TIP3    H273731   2.814   1.993  14.683  1.1963  0.5637 -0.7539
17414TIP3   OH273732   1.999   0.976  14.059  0.4661  0.1603 -0.1455
17414TIP3    H173733   2.087   1.003  14.034  0.8889 -0.0290  1.0944
17414TIP3    H273734   2.009   0.885  14.087 -0.3445 -0.2454 -1.1281
17415TIP3   OH273735   3.945   4.590  11.194 -0.0675  0.6621  0.0191
17415TIP3    H173736   3.924   4.643  11.117 -0.0101 -0.4917 -0.8066
17415TIP3    H273737   3.873   4.527  11.200  1.5142 -1.2813 -0.9681
17416TIP3   OH273738   5.077   1.995   5.534  0.0250  0.0311 -0.3272
17416TIP3    H173739   5.098   1.906   5.561  1.4567  0.4134 -0.1090
17416TIP3    H273740   5.086   2.047   5.614  3.1397  0.9875 -1.2377
17417TIP3   OH273741   2.692   2.086  13.951 -0.7894  0.1656  0.1213
17417TIP3    H173742   2.733   2.001  13.934  0.7371  0.8225  0.4982
17417TIP3    H273743   2.641   2.104  13.871 -0.7392 -0.8678 -0.1541
17418TIP3   OH273744   1.749   2.599  14.088 -0.4670  0.4504  0.2564
17418TIP3    H173745   1.681   2.589  14.021 -0.9973  0.2056  0.8305
17418TIP3    H273746   1.703   2.586  14.171  0.5164 -0.9920  0.5861
17419TIP3   OH273747   2.927   6.816  11.859  0.3366  0.2172 -0.5909
17419TIP3    H173748   2.926   6.910  11.838 -3.1374  0.7555  1.6202
17419TIP3    H273749   2.870   6.777  11.793  0.6968 -0.1368 -0.6910
17420TIP3   OH273750   3.963   3.501  12.553 -0.0546 -0.1082  0.2297
17420TIP3    H173751   3.996   3.415  12.528  0.1559 -0.7941  2.7466
17420TIP3    H273752   4.027   3.562  12.517  0.3205 -1.0460 -0.7272
17421TIP3   OH273753   1.225   3.150   1.868 -0.6146  0.7457  0.3721
17421TIP3    H173754   1.317   3.152   1.841 -0.8653  1.5529 -0.4377
17421TIP3    H273755   1.204   3.056   1.871 -0.2498  0.5974 -1.1334
17422TIP3   OH273756   4.787   5.292   4.306 -0.4317  0.7584  0.3519
17422TIP3    H173757   4.824   5.205   4.323  1.7190  1.6265  0.2656
17422TIP3    H273758   4.754   5.321   4.391 -0.7995  0.0148  0.4616
17423TIP3   OH273759   5.627   2.413  14.539 -0.5123 -0.2633 -0.0555
17423TIP3    H173760   5.628   2.506  14.561  1.4182 -0.6586  1.6572
17423TIP3    H273761   5.598   2.369  14.619  0.0836 -1.2390 -0.3689
17424TIP3   OH273762   0.150   0.856  12.775 -0.2064  0.3601  0.1199
17424TIP3    H173763   0.118   0.822  12.858 -0.4204  2.4333  0.9151
17424TIP3    H273764   0.231   0.808  12.759  0.1191  0.3186  1.8037
17425TIP3   OH273765   6.481   1.523   1.788 -0.1012  0.0738  0.4879
17425TIP3    H173766   6.411   1.558   1.732  0.0620 -0.6813 -0.1955
17425TIP3    H273767   6.455   1.547   1.877 -0.5274  1.0012  0.1162
17426TIP3   OH273768   4.428   6.233  12.065 -0.6310 -0.2160  0.2256
17426TIP3    H173769   4.357   6.178  12.101 -0.4858 -0.7176 -0.2456
17426TIP3    H273770   4.385   6.284  11.996 -1.2167  1.7539  2.0082
17427TIP3   OH273771   0.229   0.436  16.374 -0.0823  0.1848  0.1482
17427TIP3    H173772   0.158   0.398  16.323  2.2585 -0.5737 -2.6768
17427TIP3    H273773   0.256   0.366  16.434  0.7986 -0.8857 -1.4591
17428TIP3   OH273774   5.262   4.490   5.079  0.8809  0.5048 -0.0839
17428TIP3    H173775   5.170   4.504   5.098  0.5591 -0.2487 -1.0385
17428TIP3    H273776   5.293   4.575   5.047  0.5850  0.8326  0.4984
17429TIP3   OH273777   4.395   4.042  16.680  0.1698 -0.3144  0.5822
17429TIP3    H173778   4.443   3.961  16.664  2.1779  0.8261  0.5909
17429TIP3    H273779   4.441   4.108  16.628 -0.9625  0.9743  1.1611
17430TIP3   OH273780   5.405   0.381  17.175 -0.5864  0.2505 -0.4678
17430TIP3    H173781   5.474   0.336  17.224 -0.9451  0.2075  0.0119
17430TIP3    H273782   5.418   0.474  17.195 -2.7105  0.0229  2.3990
17431TIP3   OH273783   6.291   6.564  11.462 -0.3034 -0.3908  0.1532
17431TIP3    H173784   6.367   6.513  11.435 -0.2409 -0.5178  0.5635
17431TIP3    H273785   6.239   6.503  11.515 -0.7425 -0.3371 -0.2144
17432TIP3   OH273786   1.896   3.068  16.974 -0.4519 -0.0072 -0.1643
17432TIP3    H173787   1.801   3.078  16.961 -0.2949  0.5784 -0.8960
17432TIP3    H273788   1.935   3.118  16.903  0.4233  1.7479  1.5222
17433TIP3   OH273789   2.261   4.266   3.284 -0.1128  0.3935 -0.2734
17433TIP3    H173790   2.279   4.182   3.241  1.9372  0.3055  0.6893
17433TIP3    H273791   2.315   4.264   3.363 -0.7263  2.2589  0.2004
17434TIP3   OH273792   5.571   4.889  12.551  0.2917 -0.1531  0.2857
17434TIP3    H173793   5.604   4.814  12.601  1.0654  0.8700  1.3179
17434TIP3    H273794   5.513   4.850  12.485 -0.0310 -1.5942  1.4017
17435TIP3   OH273795   6.421   4.868  11.186 -0.0497 -0.2288 -0.4851
17435TIP3    H173796   6.386   4.893  11.101 -0.2416  0.5341 -0.1886
17435TIP3    H273797   6.432   4.773  11.181 -0.3226 -0.2200 -1.2592
17436TIP3   OH273798   3.807   4.645  14.929  0.3106 -0.4091  0.6643
17436TIP3    H173799   3.750   4.715  14.959  1.8409  0.4790  1.5458
17436TIP3    H273800   3.882   4.690  14.889  1.5447 -1.5107  1.6901
17437TIP3   OH273801   3.065   5.673   5.214  0.0011 -0.0457  0.2713
17437TIP3    H173802   3.090   5.594   5.166  1.4479  0.4617  0.1630
17437TIP3    H273803   2.994   5.711   5.162  0.9281 -0.0044 -0.9926
17438TIP3   OH273804   2.722   3.519  13.580  0.5199 -0.4384  0.3515
17438TIP3    H173805   2.627   3.511  13.577  0.2723  1.9947  0.6193
17438TIP3    H273806   2.750   3.514  13.489 -0.2036  2.1190 -0.0455
17439TIP3   OH273807   1.286   5.757  12.806  0.4283 -0.2406  0.2432
17439TIP3    H173808   1.367   5.727  12.848  0.6774 -1.5310 -1.1088
17439TIP3    H273809   1.298   5.736  12.714 -1.4872 -0.4957  0.0330
17440TIP3   OH273810   6.265   1.929  12.412 -0.4469 -0.2572  0.1248
17440TIP3    H173811   6.229   1.849  12.376  0.0032 -1.3842  2.0994
17440TIP3    H273812   6.315   1.901  12.489 -1.1662  1.9915  1.4834
17441TIP3   OH273813   4.757   5.099  11.234  0.3499  0.0626  0.1770
17441TIP3    H173814   4.803   5.028  11.277  3.0486  1.5421 -0.1187
17441TIP3    H273815   4.814   5.123  11.160 -1.1476  1.6412 -0.5006
17442TIP3   OH273816   4.123   3.312  11.956 -0.3121  0.1919 -0.1014
17442TIP3    H173817   4.156   3.241  12.010  1.7040  0.8767 -0.3670
17442TIP3    H273818   4.061   3.359  12.012 -0.2872 -0.6948  0.6680
17443TIP3   OH273819   2.133   3.975  13.505  0.0785  0.3598  0.6629
17443TIP3    H173820   2.212   4.027  13.518  1.1351 -1.2739  0.8999
17443TIP3    H273821   2.086   3.982  13.588  0.6677  0.1862  1.0137
17444TIP3   OH273822   1.904   3.219  11.729  0.4833 -0.4659 -0.0180
17444TIP3    H173823   1.905   3.131  11.690  2.2068 -0.5030  0.0716
17444TIP3    H273824   1.952   3.273  11.667 -0.1268  0.3066  0.1830
17445TIP3   OH273825   0.407   5.375  11.092 -0.2002  0.3934 -0.4485
17445TIP3    H173826   0.414   5.380  11.187  0.6450  2.0123 -0.5913
17445TIP3    H273827   0.330   5.428  11.071 -0.3160  0.1333 -0.6826
17446TIP3   OH273828   5.931   4.683   2.095  0.0957 -0.0573  0.0919
17446TIP3    H173829   5.957   4.703   2.005 -1.5920  2.0514  0.0201
17446TIP3    H273830   5.904   4.592   2.092  0.9439 -0.2857 -1.3245
17447TIP3   OH273831   5.861   5.170  12.714 -0.3015 -0.4803  0.6996
17447TIP3    H173832   5.834   5.080  12.733  0.8238 -0.7319  1.1299
17447TIP3    H273833   5.834   5.220  12.791 -0.9993 -0.4348  0.4257
17448TIP3   OH273834   1.176   4.063  10.953 -0.0807  0.0390  0.0288
17448TIP3    H173835   1.217   4.112  11.024  0.4155 -1.1248  0.5710
17448TIP3    H273836   1.247   4.010  10.916 -0.4685  0.1735 -0.9328
17449TIP3   OH273837   1.744   5.714  10.575  0.3553  0.4313  0.3289
17449TIP3    H173838   1.678   5.782  10.558  0.2929  0.1631 -0.5555
17449TIP3    H273839   1.826   5.754  10.546  0.4551  0.4552  0.6427
17450TIP3   OH273840   1.899   4.010  14.172 -0.1418 -0.2986  0.3663
17450TIP3    H173841   1.967   4.028  14.237  1.6794 -0.7443 -1.3714
17450TIP3    H273842   1.843   4.087  14.175  1.1642  0.6549  0.9597
17451TIP3   OH273843   3.148   4.779   0.807  0.3286 -0.4284 -0.1874
17451TIP3    H173844   3.142   4.857   0.752  1.2286 -0.2127  0.0138
17451TIP3    H273845   3.241   4.755   0.806  0.7526  0.8048  2.9001
17452TIP3   OH273846   1.954   0.839  11.128 -0.1214 -0.3674 -1.0797
17452TIP3    H173847   1.876   0.821  11.181  0.2584  0.1886 -0.3252
17452TIP3    H273848   1.935   0.922  11.086  0.4775  0.2738 -0.0984
17453TIP3   OH273849   6.152   3.362   4.031 -0.4663  0.3721  0.4419
17453TIP3    H173850   6.064   3.371   3.993 -1.1922 -0.5437  1.8508
17453TIP3    H273851   6.185   3.280   3.996 -1.3964 -0.8072  2.2086
17454TIP3   OH273852   1.178   6.566   2.246 -0.1909 -0.2917 -0.0689
17454TIP3    H173853   1.113   6.528   2.306  1.6165 -0.6338  1.7525
17454TIP3    H273854   1.186   6.657   2.274  1.4032 -0.7131  0.9312
17455TIP3   OH273855   4.813   0.285   3.985  0.2855  0.0336  0.0960
17455TIP3    H173856   4.876   0.227   4.028 -0.1049 -0.3533  0.1475
17455TIP3    H273857   4.804   0.249   3.897  0.3052  0.2264  0.0139
17456TIP3   OH273858   1.694   1.607  15.425 -0.1128 -0.2675  0.0963
17456TIP3    H173859   1.654   1.567  15.502  0.5983  0.3593  0.7988
17456TIP3    H273860   1.771   1.553  15.408 -1.8096 -2.1718 -1.9424
17457TIP3   OH273861   1.689   1.575   0.868  0.0752  0.6107  0.5395
17457TIP3    H173862   1.599   1.555   0.893 -0.5132 -1.3484 -2.7808
17457TIP3    H273863   1.684   1.662   0.828 -0.7705 -0.2611 -1.3465
17458TIP3   OH273864   3.384   6.330  17.290  0.0816 -0.4873 -0.1580
17458TIP3    H173865   3.364   6.265  17.358  2.0465 -2.2395 -1.1565
17458TIP3    H273866   3.408   6.409  17.338 -0.1771 -1.1838  1.1395
17459TIP3   OH273867   1.601   0.943   3.944  0.1653  0.0678 -0.4235
17459TIP3    H173868   1.594   0.959   4.038 -0.3914  0.6432 -0.5575
17459TIP3    H273869   1.574   1.025   3.903 -1.0909 -0.6683 -1.1070
17460TIP3   OH273870   6.594   6.226   0.493  0.0943  0.2843  0.3316
17460TIP3    H173871   6.671   6.261   0.537 -0.4330  0.3749  1.1868
17460TIP3    H273872   6.595   6.267   0.406  1.7774 -0.7856 -0.1796
17461TIP3   OH273873   5.172   0.691  12.446  0.1056 -0.5494 -0.0856
17461TIP3    H173874   5.082   0.721  12.462  0.2466 -0.9999  1.6153
17461TIP3    H273875   5.225   0.770  12.455 -0.2591  0.0545 -2.7445
17462TIP3   OH273876   6.136   3.839   1.269 -0.1672 -0.6771  1.1259
17462TIP3    H173877   6.227   3.853   1.295  0.6377  0.8990 -2.2519
17462TIP3    H273878   6.136   3.751   1.231 -0.3998 -1.2596  2.4507
17463TIP3   OH273879   3.685   6.365   3.681  0.3843  0.2531  0.0552
17463TIP3    H173880   3.706   6.320   3.763  0.8683  0.2711 -0.0572
17463TIP3    H273881   3.590   6.354   3.671  0.5528 -1.1181 -0.1833
17464TIP3   OH273882   2.819   0.288  16.172  0.1862 -0.0585 -0.6175
17464TIP3    H173883   2.735   0.333  16.172  0.2426  0.1582  2.4894
17464TIP3    H273884   2.813   0.225  16.100 -1.9370  1.1803 -1.5623
17465TIP3   OH273885   5.033   3.069  16.713 -0.0439  0.2025 -0.5333
17465TIP3    H173886   5.092   2.995  16.730 -1.5807 -0.6526  1.2121
17465TIP3    H273887   5.018   3.066  16.618  1.5225 -0.4733 -0.7833
17466TIP3   OH273888   3.837   2.896   1.775  0.0420 -0.0400  0.2410
17466TIP3    H173889   3.830   2.816   1.723 -0.3590 -0.4708  0.9507
17466TIP3    H273890   3.751   2.938   1.765 -0.6633 -0.9980  1.9448
17467TIP3   OH273891   4.647   0.450  10.867 -0.0616 -0.0307  0.2633
17467TIP3    H173892   4.729   0.444  10.917 -0.9728 -1.4745  1.6171
17467TIP3    H273893   4.579   0.460  10.933 -1.0732  0.2911 -0.8153
17468TIP3   OH273894   5.858   5.099   3.641 -0.3726  0.1577  0.2842
17468TIP3    H173895   5.873   5.005   3.657  1.3998  0.0524 -1.7170
17468TIP3    H273896   5.797   5.126   3.709  0.2011 -2.1447  1.7482
17469TIP3   OH273897   6.048   5.149   2.618  0.3176 -0.8037 -0.1411
17469TIP3    H173898   6.101   5.076   2.586  1.6817  0.5011 -0.9519
17469TIP3    H273899   6.009   5.187   2.539 -1.8409 -1.7288  0.4404
17470TIP3   OH273900   3.506   3.528  11.751 -0.1846 -0.2729  0.2682
17470TIP3    H173901   3.562   3.505  11.677 -1.5659  3.3299 -1.9964
17470TIP3    H273902   3.543   3.609  11.785 -1.2499 -0.3874  1.7430
17471TIP3   OH273903   2.518   6.603   5.056 -0.3271  0.5210 -0.0987
17471TIP3    H173904   2.433   6.564   5.034 -0.6105  1.1380 -0.0905
17471TIP3    H273905   2.507   6.635   5.146  0.7979 -1.9091  0.9503
17472TIP3   OH273906   3.395   2.333   0.361 -0.2039 -0.0664  0.3014
17472TIP3    H173907   3.361   2.244   0.370 -0.1201 -0.1562 -0.2880
17472TIP3    H273908   3.348   2.383   0.428 -1.2037 -0.2771 -0.2361
17473TIP3   OH273909   1.711   0.795   0.620 -0.0737  0.3740  0.3236
17473TIP3    H173910   1.664   0.799   0.703 -0.3840 -0.3210  0.1864
17473TIP3    H273911   1.642   0.792   0.553  0.1755  2.3209 -0.0424
17474TIP3   OH273912   4.792   1.641  14.315 -0.2412  0.3993  0.2692
17474TIP3    H173913   4.859   1.679  14.371  1.4274  0.8556 -1.9763
17474TIP3    H273914   4.780   1.704  14.245 -2.5459 -0.0011  0.2484
17475TIP3   OH273915   2.337   6.376   3.336 -0.2330 -0.1439 -0.6314
17475TIP3    H173916   2.391   6.353   3.260 -0.0257 -1.6401 -0.0565
17475TIP3    H273917   2.383   6.338   3.411 -1.5612 -0.5703 -0.0204
17476TIP3   OH273918   6.324   2.257   2.355  0.3546  0.5273 -0.0329
17476TIP3    H173919   6.380   2.183   2.380  0.9527  0.5361 -1.3014
17476TIP3    H273920   6.244   2.216   2.322  1.4274  0.3633 -2.5171
17477TIP3   OH273921   4.425   5.683  15.108  0.1479  0.3302  0.9702
17477TIP3    H173922   4.451   5.714  15.195  0.7827 -1.0119  1.2762
17477TIP3    H273923   4.329   5.679  15.111  0.0565  2.2498  0.9099
17478TIP3   OH273924   1.462   4.914  11.496  0.5994 -0.3757  0.5803
17478TIP3    H173925   1.516   4.891  11.421 -0.6217  0.5021 -0.5757
17478TIP3    H273926   1.506   4.991  11.534  0.1049  0.4308 -0.4506
17479TIP3   OH273927   3.476   1.813   1.303 -0.3215  0.1289 -0.5108
17479TIP3    H173928   3.422   1.841   1.228 -0.1858 -0.5786 -0.8706
17479TIP3    H273929   3.560   1.855   1.288 -1.2734  2.6818  0.9627
17480TIP3   OH273930   4.144   2.733   5.638  0.4840  0.2129  0.2324
17480TIP3    H173931   4.185   2.689   5.564  1.6791  0.9050  0.4727
17480TIP3    H273932   4.197   2.708   5.714 -1.0994 -0.9892  0.9701
17481TIP3   OH273933   0.107   3.199  11.882  0.1264  0.1964 -0.0734
17481TIP3    H173934   0.109   3.107  11.854 -0.4571  0.0476  0.3597
17481TIP3    H273935   0.105   3.249  11.801  3.9526 -0.0477 -0.4332
17482TIP3   OH273936   3.144   2.400   5.631 -0.2153  0.0876  0.7182
17482TIP3    H173937   3.153   2.491   5.602 -0.1001 -0.4304 -0.9036
17482TIP3    H273938   3.202   2.350   5.574 -2.1272 -1.3437 -0.0477
17483TIP3   OH273939   3.771   3.806   6.405 -0.4323 -0.0359 -0.0031
17483TIP3    H173940   3.687   3.834   6.439 -1.2012 -0.5869 -1.3989
17483TIP3    H273941   3.812   3.759   6.478 -1.9765 -1.0744  0.2194
17484TIP3   OH273942   5.065   5.925   1.045  0.2406  0.0041 -0.3442
17484TIP3    H173943   5.054   5.832   1.062 -0.3842 -0.0719 -1.1486
17484TIP3    H273944   4.980   5.955   1.013  0.1634  1.0505  0.7781
17485TIP3   OH273945   5.039   4.104  10.538  0.3718  0.0892  0.2375
17485TIP3    H173946   5.009   4.035  10.479 -1.5659  1.9571 -1.0325
17485TIP3    H273947   5.091   4.059  10.604 -0.1266 -2.4539 -1.0677
17486TIP3   OH273948   3.147   5.433  17.206 -0.6415 -0.1982  0.3456
17486TIP3    H173949   3.102   5.509  17.170 -1.6088 -1.0673 -0.2996
17486TIP3    H273950   3.211   5.469  17.267 -2.3512  1.0261  1.4295
17487TIP3   OH273951   0.232   4.405  17.263 -0.1743 -0.0410 -0.5270
17487TIP3    H173952   0.291   4.335  17.290  0.8327  0.0542 -2.3753
17487TIP3    H273953   0.286   4.485  17.268 -0.3350  0.1420 -1.5407
17488TIP3   OH273954   0.013   1.448  12.960 -0.2846  0.0760 -0.2061
17488TIP3    H173955  -0.017   1.358  12.971 -0.7141  0.2705  0.2240
17488TIP3    H273956   0.051   1.451  12.872  2.7542 -1.4020  0.9693
17489TIP3   OH273957   2.349   4.098  14.047 -0.1290  0.6051 -0.5615
17489TIP3    H173958   2.423   4.063  13.997  0.9332  2.6801 -0.5136
17489TIP3    H273959   2.325   4.179  14.001 -0.1084  1.7592  1.4098
17490TIP3   OH273960   2.314   5.417  14.549  0.4372 -0.5842 -0.5611
17490TIP3    H173961   2.358   5.332  14.556  0.7519 -0.3808  0.0234
17490TIP3    H273962   2.356   5.471  14.617  1.6555  0.6647 -2.2499
17491TIP3   OH273963   5.167   3.803  13.201  0.5085 -0.3514 -0.4948
17491TIP3    H173964   5.100   3.851  13.152 -1.7909  0.0721  2.9125
17491TIP3    H273965   5.232   3.869  13.223 -0.7328  0.4491  0.8747
17492TIP3   OH273966   4.386   2.695  13.728 -0.2526  0.2639  0.3563
17492TIP3    H173967   4.355   2.712  13.817  0.3223  0.4613  0.5258
17492TIP3    H273968   4.374   2.601  13.716 -0.5296  0.2721  0.5673
17493TIP3   OH273969   4.905   2.248   0.460 -0.0689 -0.0326  0.1153
17493TIP3    H173970   4.960   2.277   0.387  0.5288 -0.7576  0.2655
17493TIP3    H273971   4.862   2.169   0.428  0.0047 -0.2138  0.4546
17494TIP3   OH273972   5.015   0.538  11.556  0.0614  0.1458 -0.1506
17494TIP3    H173973   5.080   0.608  11.565  0.3982 -0.2564  0.6099
17494TIP3    H273974   4.956   0.551  11.629  1.8533 -2.1510  1.8075
17495TIP3   OH273975   6.726   6.626   2.488  0.1049  0.3081  0.4317
17495TIP3    H173976   6.752   6.542   2.451 -0.2516  0.1621  0.5103
17495TIP3    H273977   6.705   6.607   2.579 -0.0781  0.4596  0.4221
17496TIP3   OH273978   2.485   5.712   3.515  0.2722  0.2489 -0.5916
17496TIP3    H173979   2.480   5.808   3.518  0.1127  0.2487 -0.7994
17496TIP3    H273980   2.578   5.693   3.510  0.3245  0.3792 -0.1464
17497TIP3   OH273981   0.283   0.445  12.618 -0.2079  0.1379  0.5045
17497TIP3    H173982   0.362   0.423  12.667 -0.0249  0.1401  0.2071
17497TIP3    H273983   0.244   0.361  12.597  0.4817  0.0921 -0.6141
17498TIP3   OH273984   3.340   4.748   1.103 -0.1575  0.0292 -0.7291
17498TIP3    H173985   3.358   4.691   1.178 -1.2294 -0.0096 -0.4847
17498TIP3    H273986   3.371   4.699   1.027 -0.1026 -0.4272 -0.4136
17499TIP3   OH273987   3.006   6.087  12.773  0.1101 -0.2023 -0.3767
17499TIP3    H173988   2.993   6.117  12.863 -1.7531  0.6341 -0.8887
17499TIP3    H273989   3.088   6.128  12.745  0.4387 -0.0615  0.7664
17500TIP3   OH273990   0.868   3.608   3.890  0.7474 -0.6463 -0.5384
17500TIP3    H173991   0.789   3.635   3.936  1.3889 -0.8516  0.6808
17500TIP3    H273992   0.838   3.538   3.831  0.2446 -1.6089  0.8330
17501TIP3   OH273993   5.770   4.432  13.915 -0.0581 -0.8323  0.3081
17501TIP3    H173994   5.853   4.440  13.962 -1.0579 -1.2782  2.1921
17501TIP3    H273995   5.726   4.516  13.930  0.3905 -0.2614 -1.4118
17502TIP3   OH273996   0.375   3.291  13.614  0.4252 -0.4855 -0.2768
17502TIP3    H173997   0.404   3.250  13.696 -1.5375  0.0200  0.7204
17502TIP3    H273998   0.439   3.263  13.549  3.1213  0.6124  1.7835
17503TIP3   OH273999   5.595   2.994   5.210  0.2935 -0.1687 -0.4554
17503TIP3    H174000   5.552   3.014   5.293  1.7411 -0.6909  0.4532
17503TIP3    H274001   5.537   3.028   5.143 -0.2190  1.5427  0.8353
17504TIP3   OH274002   5.176   0.984  15.934 -0.6241  0.0315 -0.8231
17504TIP3    H174003   5.240   1.045  15.898 -0.4282  1.2807  1.5571
17504TIP3    H274004   5.094   1.033  15.936 -0.8137 -0.3011 -0.3289
17505TIP3   OH274005   4.479   2.186   6.120  0.3506  0.2063  0.2152
17505TIP3    H174006   4.447   2.120   6.059  0.6067 -0.9886  1.3508
17505TIP3    H274007   4.480   2.267   6.069 -2.1647 -0.1983 -0.5175
17506TIP3   OH274008   4.672   4.100   2.580 -0.0071  0.5154  0.0491
17506TIP3    H174009   4.740   4.153   2.538 -0.1580  1.3854  0.8918
17506TIP3    H274010   4.595   4.156   2.582  0.3209  0.9340  2.5460
17507TIP3   OH274011   0.530   0.542  11.533 -0.2068  0.2651 -0.1412
17507TIP3    H174012   0.573   0.566  11.614 -1.2446 -0.9732  0.8035
17507TIP3    H274013   0.600   0.534  11.469  0.8179 -0.5145  1.0676
17508TIP3   OH274014   2.301   0.553  14.036  0.2314  0.0823 -0.2159
17508TIP3    H174015   2.393   0.535  14.013  0.5756  1.0459  0.3751
17508TIP3    H274016   2.293   0.648  14.031 -0.6575  0.0239  0.0295
17509TIP3   OH274017   1.857   2.162   2.451 -0.2710  0.3263 -0.1124
17509TIP3    H174018   1.941   2.134   2.488 -0.3849  1.1387  0.7923
17509TIP3    H274019   1.881   2.210   2.372  0.1241  0.4698  0.0906
17510TIP3   OH274020   6.540   4.650   0.984  0.2971  0.0585 -0.3145
17510TIP3    H174021   6.613   4.588   0.988 -0.5147 -1.0404 -1.9955
17510TIP3    H274022   6.537   4.679   0.893 -2.4610 -1.2750 -0.6940
17511TIP3   OH274023   3.447   4.521  13.607  0.1186  0.1626 -0.4252
17511TIP3    H174024   3.397   4.602  13.616 -0.3166 -0.1854  0.3226
17511TIP3    H274025   3.440   4.499  13.514 -1.3854 -0.0489 -0.2772
17512TIP3   OH274026   6.240   0.097   5.149  1.0985  0.0051 -0.5837
17512TIP3    H174027   6.250   0.192   5.138  1.0002  0.3138  1.7519
17512TIP3    H274028   6.151   0.078   5.121  1.0785  0.6167 -0.9380
17513TIP3   OH274029   5.837   3.940  14.177  0.3282  0.0857  0.4202
17513TIP3    H174030   5.912   3.887  14.150 -0.1442 -0.1727 -0.4004
17513TIP3    H274031   5.780   3.941  14.101  0.4639  2.0221  0.3251
17514TIP3   OH274032   4.491   6.482   0.966  0.1739  0.1404  0.0360
17514TIP3    H174033   4.438   6.561   0.961  1.3750  0.9012 -1.0168
17514TIP3    H274034   4.563   6.498   0.905 -0.1596 -2.2078 -1.0256
17515TIP3   OH274035   1.940   3.851  16.751  0.0766  0.4491 -0.4391
17515TIP3    H174036   1.960   3.762  16.721  0.1367  0.2748  0.1036
17515TIP3    H274037   1.982   3.857  16.837 -1.2243  0.4817  0.2006
17516TIP3   OH274038   6.043   3.563  13.581  0.2813  0.2081  0.1190
17516TIP3    H174039   6.067   3.645  13.538  1.8280 -1.1672 -1.7159
17516TIP3    H274040   6.125   3.531  13.620 -0.1291 -0.8599  0.1305
17517TIP3   OH274041   0.735   1.263   0.566  0.3127 -0.3985  0.0832
17517TIP3    H174042   0.645   1.259   0.534  0.4826 -0.8673 -0.3531
17517TIP3    H274043   0.786   1.292   0.489  0.6192 -0.7524  0.1534
17518TIP3   OH274044   2.050   4.973  11.003  0.2290  0.0767 -0.2693
17518TIP3    H174045   1.977   4.995  10.946  0.7863  0.5448 -0.8019
17518TIP3    H274046   2.009   4.927  11.077 -0.4357 -0.9876 -1.2790
17519TIP3   OH274047   2.528   1.729   0.657  0.3660 -0.1879 -0.5015
17519TIP3    H174048   2.526   1.703   0.565 -1.4394 -1.0941 -0.2291
17519TIP3    H274049   2.621   1.740   0.676  0.6296  3.3400 -3.3365
17520TIP3   OH274050   3.237   5.450  16.459  0.1879  0.0254 -0.1687
17520TIP3    H174051   3.332   5.441  16.464  0.5066  3.1211  0.8114
17520TIP3    H274052   3.217   5.440  16.366  1.9935  2.9370 -0.9471
17521TIP3   OH274053   2.811   2.727   4.130  0.4472 -0.4060 -0.1823
17521TIP3    H174054   2.731   2.685   4.161  0.1649 -0.3204 -0.7900
17521TIP3    H274055   2.868   2.729   4.207 -0.2409 -0.2048  0.3266
17522TIP3   OH274056   1.565   3.786  14.035 -0.2578  0.3064  0.0555
17522TIP3    H174057   1.589   3.840  14.110 -1.3427  1.1323 -0.1857
17522TIP3    H274058   1.469   3.787  14.034 -0.2628  1.4557 -2.1650
17523TIP3   OH274059   1.028   4.107   1.539  0.2201  0.2088  0.1926
17523TIP3    H174060   1.072   4.146   1.614 -0.8862  2.4633 -0.2751
17523TIP3    H274061   0.987   4.027   1.574  2.1556 -0.3425  1.2763
17524TIP3   OH274062   0.203   6.758  12.981  0.1798 -0.2384  0.0878
17524TIP3    H174063   0.198   6.853  12.970  0.7895 -0.2259 -0.0893
17524TIP3    H274064   0.176   6.743  13.072  1.3037  0.2192  0.5044
17525TIP3   OH274065   5.321   2.459   1.359 -0.2231 -0.0281  0.7273
17525TIP3    H174066   5.406   2.419   1.341 -1.2359 -1.3439 -1.3367
17525TIP3    H274067   5.294   2.421   1.443  0.5287 -0.7537  0.6487
17526TIP3   OH274068   6.348   1.694  14.215  0.6250  0.1216  0.1049
17526TIP3    H174069   6.436   1.733  14.213  0.6253  0.2096  1.6429
17526TIP3    H274070   6.303   1.739  14.286 -0.4743 -0.3517 -0.2859
17527TIP3   OH274071   1.269   2.802   3.929  0.1110 -0.0756 -0.5670
17527TIP3    H174072   1.260   2.734   3.862  1.0040 -0.3255 -0.4360
17527TIP3    H274073   1.186   2.800   3.976 -0.0829 -0.6955 -0.9296
17528TIP3   OH274074   5.472   4.466   0.581  0.4092 -0.7680  0.1092
17528TIP3    H174075   5.445   4.380   0.615 -0.8877 -0.5911 -0.4279
17528TIP3    H274076   5.538   4.496   0.643  1.3118 -2.4047 -0.0173
17529TIP3   OH274077   4.406   2.705   3.665 -0.4588 -0.0002  0.2812
17529TIP3    H174078   4.420   2.613   3.641 -0.3133 -0.2034  1.1311
17529TIP3    H274079   4.370   2.701   3.753 -1.1505  0.7378  0.0350
17530TIP3   OH274080   5.851   3.233   3.027 -0.4627  0.2124 -0.0361
17530TIP3    H174081   5.891   3.149   3.049 -1.0132  0.2970  1.3915
17530TIP3    H274082   5.840   3.231   2.932 -0.4297 -1.3155 -0.0196
17531TIP3   OH274083   2.617   5.196  11.452 -0.4567 -0.0204 -0.1941
17531TIP3    H174084   2.535   5.146  11.444 -0.9530  0.4338  1.8584
17531TIP3    H274085   2.638   5.193  11.545  1.5257  0.4448 -0.6116
17532TIP3   OH274086   5.718   3.561  13.591  0.2553  0.0511 -0.6216
17532TIP3    H174087   5.791   3.567  13.530  0.3629  2.2813 -0.3157
17532TIP3    H274088   5.722   3.642  13.641 -1.3708 -0.5999  0.6022
17533TIP3   OH274089   0.267   3.213   1.181  0.2109  0.2665 -0.2523
17533TIP3    H174090   0.310   3.218   1.266  0.9503  1.2655 -0.6779
17533TIP3    H274091   0.174   3.207   1.202  0.3336  1.2510  0.6155
17534TIP3   OH274092   0.080   1.803  13.289 -0.1311  0.0521 -0.2277
17534TIP3    H174093   0.073   1.713  13.258 -0.2597  0.0317 -0.1422
17534TIP3    H274094   0.129   1.796  13.371 -0.8778 -0.0429  0.2242
17535TIP3   OH274095   3.172   6.209  16.999 -0.5644 -0.3504  0.1062
17535TIP3    H174096   3.248   6.258  16.968  0.3397 -1.8293 -0.0573
17535TIP3    H274097   3.210   6.136  17.048 -1.9019 -0.6921  0.6398
17536TIP3   OH274098   0.532   0.108   6.478 -0.2941 -0.7819 -0.4488
17536TIP3    H174099   0.495   0.029   6.519 -1.0244 -0.5248 -0.6028
17536TIP3    H274100   0.602   0.135   6.538 -3.0264  1.0763  2.0543
17537TIP3   OH274101   6.342   0.465   1.672 -0.4274  0.0468  0.5069
17537TIP3    H174102   6.305   0.538   1.722  2.2848  1.7328  0.1790
17537TIP3    H274103   6.289   0.389   1.696 -1.2993  1.4937  3.3302
17538TIP3   OH274104   3.091   0.514  11.577 -0.4417 -0.4929 -0.0387
17538TIP3    H174105   3.055   0.504  11.489 -0.1190 -0.3931 -0.1806
17538TIP3    H274106   3.034   0.578  11.619  1.8599  2.6386 -1.5194
17539TIP3   OH274107   4.826   3.587   3.774 -0.4242 -0.5190 -0.6539
17539TIP3    H174108   4.900   3.619   3.722  0.0968  0.2806  0.5633
17539TIP3    H274109   4.809   3.657   3.838 -2.1596 -0.7412 -0.8426
17540TIP3   OH274110   1.067   5.414  12.895 -0.3356  0.0604 -0.2067
17540TIP3    H174111   1.050   5.476  12.967 -0.5815 -2.4444  1.9642
17540TIP3    H274112   0.980   5.385  12.868 -0.1346 -1.2027  0.4819
17541TIP3   OH274113   0.270   3.058  14.682 -0.3815  0.1306 -0.6351
17541TIP3    H174114   0.183   3.018  14.670 -0.6780  0.6095 -0.1195
17541TIP3    H274115   0.252   3.152  14.687  0.0398  0.1474  0.6478
17542TIP3   OH274116   5.379   4.687   4.915  0.1445  0.0368 -0.1557
17542TIP3    H174117   5.422   4.620   4.862 -0.7533 -0.3024 -0.4794
17542TIP3    H274118   5.323   4.735   4.852  0.4979  0.8500  0.1401
17543TIP3   OH274119   5.359   5.862  12.180  0.2293  0.2951 -0.7623
17543TIP3    H174120   5.381   5.955  12.181  2.3918 -0.1693 -1.3734
17543TIP3    H274121   5.338   5.841  12.271  2.4254  0.7874 -0.1228
17544TIP3   OH274122   4.669   4.812  16.102 -0.0614 -0.0276 -0.3139
17544TIP3    H174123   4.752   4.764  16.100  0.5391  0.8804  1.6752
17544TIP3    H274124   4.613   4.760  16.160 -0.1864  0.4361 -0.0150
17545TIP3   OH274125   4.662   1.581  13.352  0.0913 -0.0035  0.6061
17545TIP3    H174126   4.601   1.636  13.303 -1.3168 -1.9516  0.1147
17545TIP3    H274127   4.644   1.492  13.322  0.6847 -1.0063  3.1151
17546TIP3   OH274128   1.310   6.073  11.421  0.2739  0.3376  0.6957
17546TIP3    H174129   1.279   6.141  11.481 -0.6989  1.3669 -0.9505
17546TIP3    H274130   1.247   6.002  11.431 -0.8945  1.2208 -0.4248
17547TIP3   OH274131   4.273   1.726  11.661 -0.1017 -0.6527 -0.4150
17547TIP3    H174132   4.317   1.753  11.581 -0.5158 -0.3583 -0.5384
17547TIP3    H274133   4.185   1.701  11.634 -0.9248  1.4293  0.2469
17548TIP3   OH274134   2.226   6.079  12.223  0.2981 -0.1396 -0.0183
17548TIP3    H174135   2.163   6.065  12.294 -0.1798 -1.6082 -0.7185
17548TIP3    H274136   2.284   6.148  12.256  0.1736 -0.9069  1.8757
17549TIP3   OH274137   2.257   3.960  12.832 -0.3114 -0.2397  0.3656
17549TIP3    H174138   2.203   3.944  12.909  0.4626  0.7911  1.1417
17549TIP3    H274139   2.238   4.050  12.807  1.5503  0.3704  1.0727
17550TIP3   OH274140   4.010   6.750  16.452  0.5038  0.7438 -0.1017
17550TIP3    H174141   4.080   6.736  16.389 -0.3012 -0.0379 -0.8315
17550TIP3    H274142   4.049   6.725  16.536  0.9163 -0.2688 -0.5858
17551TIP3   OH274143   0.326   1.908   3.618  0.1872  0.2193  0.4538
17551TIP3    H174144   0.421   1.899   3.623  0.2537 -0.1704 -1.1155
17551TIP3    H274145   0.293   1.849   3.686  1.0883  2.0602  2.5566
17552TIP3   OH274146   2.862   2.502   0.171  0.1204 -0.0486  0.3534
17552TIP3    H174147   2.813   2.544   0.242  1.4031 -1.0832  1.8851
17552TIP3    H274148   2.930   2.565   0.149  0.3008 -0.1178  0.7037
17553TIP3   OH274149   6.144   4.529   5.327  0.0541  0.1345 -0.6864
17553TIP3    H174150   6.113   4.531   5.237 -1.0593 -0.7013 -0.3411
17553TIP3    H274151   6.073   4.568   5.378  0.6303  0.5065 -0.1659
17554TIP3   OH274152   0.660   1.239  14.046  0.1640  0.3415 -0.2205
17554TIP3    H174153   0.593   1.218  14.112 -0.5242  0.8359 -0.7513
17554TIP3    H274154   0.727   1.172  14.058 -0.6975 -0.5037 -0.0462
17555TIP3   OH274155   5.352   6.679   4.022 -0.0937  1.0988 -0.4164
17555TIP3    H174156   5.399   6.745   3.971  1.8314  0.5233  0.5486
17555TIP3    H274157   5.306   6.728   4.090  1.2048  1.4697  0.2032
17556TIP3   OH274158   2.001   1.633  11.394 -0.0595 -0.6600 -0.3941
17556TIP3    H174159   1.959   1.659  11.476  1.7673 -0.9901  0.6734
17556TIP3    H274160   2.078   1.689  11.387  0.6728 -1.7278 -1.0639
17557TIP3   OH274161   5.916   1.596  13.796  0.2801 -0.6613 -0.1744
17557TIP3    H174162   5.864   1.677  13.793 -0.2891 -0.9973  0.5333
17557TIP3    H274163   6.007   1.626  13.794  0.1521  0.2009  3.4732
17558TIP3   OH274164   1.859   2.288  16.244  0.3025  0.0529 -0.8018
17558TIP3    H174165   1.846   2.207  16.193  0.8577 -0.8982  0.5395
17558TIP3    H274166   1.803   2.277  16.320  0.7099  0.7573 -0.4010
17559TIP3   OH274167   6.751   5.322   3.972 -0.0590  0.2355 -0.1452
17559TIP3    H174168   6.760   5.229   3.952  2.0058  0.5085 -0.6421
17559TIP3    H274169   6.686   5.325   4.043 -1.7296 -1.3791 -1.5607
17560TIP3   OH274170   0.358   4.108   1.800 -0.1414 -0.6496  0.3691
17560TIP3    H174171   0.401   4.193   1.792  2.6926 -2.0287  0.2864
17560TIP3    H274172   0.287   4.112   1.737 -0.1081  1.6862  0.4212
17561TIP3   OH274173   2.896   1.533  11.040  0.1683 -0.2510  0.3373
17561TIP3    H174174   2.828   1.491  11.093 -1.0921 -0.4506 -1.3833
17561TIP3    H274175   2.939   1.593  11.100 -1.9777  0.3736  1.3080
17562TIP3   OH274176   5.876   0.785   1.089  0.1299  0.1104 -0.1118
17562TIP3    H174177   5.785   0.801   1.065  0.2828  0.7580 -0.2609
17562TIP3    H274178   5.911   0.872   1.109  0.0652 -0.3708  2.2537
17563TIP3   OH274179   1.727   2.194  14.231 -0.6867  0.1834 -0.4555
17563TIP3    H174180   1.778   2.113  14.236 -1.3892 -0.2450 -0.1467
17563TIP3    H274181   1.644   2.168  14.192 -0.3305  1.0505 -1.8302
17564TIP3   OH274182   1.544   3.151   5.635  0.1526 -0.2312 -0.1636
17564TIP3    H174183   1.582   3.103   5.561  1.2914  2.1717 -1.1950
17564TIP3    H274184   1.450   3.135   5.628 -0.0369  2.0001 -3.6858
17565TIP3   OH274185   4.923   4.767  15.331  0.1894 -0.6405  0.4281
17565TIP3    H174186   4.861   4.816  15.386 -0.6521 -2.6386  1.3172
17565TIP3    H274187   4.876   4.686  15.309  1.2921 -0.7509 -1.5888
17566TIP3   OH274188   0.244   6.463  13.480 -0.4363 -0.3712  0.5446
17566TIP3    H174189   0.269   6.489  13.568 -1.8276  0.8677  0.5927
17566TIP3    H274190   0.288   6.379  13.466  2.4705  0.9881  1.1597
17567TIP3   OH274191   3.921   6.518   2.057 -0.1331 -0.4264 -0.5388
17567TIP3    H174192   3.871   6.440   2.034  0.2337 -0.7205 -0.3529
17567TIP3    H274193   3.902   6.581   1.988  0.1715 -0.9514 -1.1033
17568TIP3   OH274194   5.037   1.160  12.064 -0.4221  0.1760 -0.5975
17568TIP3    H174195   5.004   1.241  12.103 -0.2133 -0.5601  1.1054
17568TIP3    H274196   4.978   1.092  12.094  0.1947 -0.5196 -0.9275
17569TIP3   OH274197   0.489   2.154  12.734 -0.0443  0.2169  0.2439
17569TIP3    H174198   0.582   2.143  12.754  0.0632 -0.0344 -0.3900
17569TIP3    H274199   0.467   2.077  12.682 -0.4824  0.5377 -0.0438
17570TIP3   OH274200   0.938   0.081   4.045 -0.3773 -0.6762 -0.3331
17570TIP3    H174201   0.936  -0.006   4.005  0.3910 -0.6410 -0.4567
17570TIP3    H274202   0.979   0.067   4.130 -0.1653 -0.4152 -0.3932
17571TIP3   OH274203   1.567   4.204   1.717  0.2528  0.4572  0.0088
17571TIP3    H174204   1.477   4.224   1.694  0.7670  1.3215 -1.3356
17571TIP3    H274205   1.612   4.194   1.633  1.2265 -0.7934  0.6625
17572TIP3   OH274206   1.970   0.149   3.194 -0.8276 -0.5734 -0.0063
17572TIP3    H174207   2.001   0.065   3.161 -0.2002 -0.9752  1.5835
17572TIP3    H274208   2.002   0.213   3.131  1.8187 -1.1505  0.6833
17573TIP3   OH274209   0.209   5.666   2.286  0.7924 -0.3326  0.4127
17573TIP3    H174210   0.300   5.646   2.267  0.7622 -0.2983  0.2275
17573TIP3    H274211   0.190   5.744   2.233  1.5692  1.5590  2.8485
17574TIP3   OH274212   1.103   4.065  11.733 -0.0959 -0.1809  0.4452
17574TIP3    H174213   1.066   4.143  11.773  0.8500  0.2767  0.4587
17574TIP3    H274214   1.142   4.016  11.805  1.6176  0.6499  0.1341
17575TIP3   OH274215   5.837   0.238  15.197 -0.3940  0.6153 -0.0298
17575TIP3    H174216   5.861   0.168  15.258  1.0538  1.4284  0.3818
17575TIP3    H274217   5.841   0.318  15.250 -1.9056  1.0336 -0.5230
17576TIP3   OH274218   1.550   2.228  13.818  0.2719 -0.2389 -0.0684
17576TIP3    H174219   1.596   2.174  13.882 -1.7279 -0.8222  0.9210
17576TIP3    H274220   1.512   2.165  13.757  0.4965  0.2097 -0.6677
17577TIP3   OH274221   0.790   5.716   0.019 -0.7273  0.0876 -0.1532
17577TIP3    H174222   0.768   5.662  -0.056 -0.5049 -0.3182  0.0659
17577TIP3    H274223   0.706   5.744   0.055 -0.8268  1.3242 -1.2874
17578TIP3   OH274224   4.623   4.081  16.323  0.1195 -0.1973 -0.4530
17578TIP3    H174225   4.636   3.986  16.328 -2.8576 -0.6462 -0.3526
17578TIP3    H274226   4.578   4.104  16.404 -0.1112  1.1291 -0.9437
17579TIP3   OH274227   5.385   3.213   5.686  0.1494  0.5246 -0.3682
17579TIP3    H174228   5.438   3.164   5.749 -0.0001  2.2694  1.1383
17579TIP3    H274229   5.335   3.145   5.639  1.9112 -0.9591 -0.1800
17580TIP3   OH274230   2.867   2.711   2.404  0.4058 -0.0248 -0.7079
17580TIP3    H174231   2.957   2.731   2.376  0.2859  1.8312  0.1647
17580TIP3    H274232   2.837   2.791   2.448 -1.4538 -0.8541 -0.4196
17581TIP3   OH274233   6.131   3.550  15.847  0.5156 -0.2214  0.1048
17581TIP3    H174234   6.059   3.546  15.911  1.1152 -1.6795  0.7042
17581TIP3    H274235   6.154   3.643  15.844 -1.7995  0.3589 -0.5613
17582TIP3   OH274236   1.552   4.353   3.226 -0.2123  0.6281  0.8348
17582TIP3    H174237   1.521   4.381   3.312 -1.2573  1.7210  0.1273
17582TIP3    H274238   1.602   4.427   3.193  0.6966 -0.0237  0.7537
17583TIP3   OH274239   5.345   4.007   2.304 -0.0196  0.2257 -0.1048
17583TIP3    H174240   5.417   4.069   2.312  0.1290 -0.1945  2.0290
17583TIP3    H274241   5.267   4.059   2.320  0.0549  0.0447  0.9113
17584TIP3   OH274242   1.267   5.276   5.721 -0.3141 -0.1987  0.3012
17584TIP3    H174243   1.185   5.249   5.762  0.4787  0.3154  2.2658
17584TIP3    H274244   1.291   5.357   5.766 -0.5596  1.6534 -2.7216
17585TIP3   OH274245   5.459   0.129   3.930 -0.3805 -0.1465 -0.4958
17585TIP3    H174246   5.376   0.114   3.884 -0.6511 -0.5324  0.1035
17585TIP3    H274247   5.433   0.175   4.010  0.3802  3.2060 -2.0883
17586TIP3   OH274248   4.101   6.441  11.633 -0.2053 -0.2711 -0.2913
17586TIP3    H174249   4.190   6.452  11.599  0.5537  1.2401  2.0994
17586TIP3    H274250   4.052   6.516  11.599 -0.2789 -0.4773 -0.6459
17587TIP3   OH274251   1.923   3.668   4.885 -0.7158 -0.3851 -0.0995
17587TIP3    H174252   1.914   3.573   4.898  1.1244 -0.5952 -0.1251
17587TIP3    H274253   2.009   3.688   4.922  0.6784  0.5908 -3.6921
17588TIP3   OH274254   5.730   5.765   0.373  0.0130 -0.3105  0.6886
17588TIP3    H174255   5.809   5.778   0.320 -0.3518  0.0764  0.2363
17588TIP3    H274256   5.698   5.678   0.348  0.5428 -0.6542  1.1996
17589TIP3   OH274257   4.567   2.655   4.445 -0.0386 -0.1580  0.0407
17589TIP3    H174258   4.544   2.572   4.487  1.0313 -0.9932 -1.0157
17589TIP3    H274259   4.662   2.662   4.455  0.0275  0.3730 -0.9127
17590TIP3   OH274260   5.215   3.648  17.238  0.1670 -0.2362  0.1537
17590TIP3    H174261   5.160   3.710  17.190  0.6513  1.7351  2.0480
17590TIP3    H274262   5.180   3.649  17.328  1.4943 -1.1346  0.7112
17591TIP3   OH274263   2.567   3.601  16.782 -0.2329 -0.7389  0.5510
17591TIP3    H174264   2.584   3.547  16.705  1.0670 -0.8962  0.9412
17591TIP3    H274265   2.615   3.683  16.766 -0.0916 -0.7048  1.1113
17592TIP3   OH274266   4.337   4.247   2.948 -0.0909  0.6089  0.0576
17592TIP3    H174267   4.275   4.206   2.889  0.4293  0.1841 -0.2027
17592TIP3    H274268   4.283   4.292   3.013 -0.6677 -0.4800  0.3434
17593TIP3   OH274269   6.777   6.546   3.797 -0.5252  0.1122 -0.3278
17593TIP3    H174270   6.809   6.474   3.851  1.2464  1.7430  0.8488
17593TIP3    H274271   6.848   6.561   3.734 -1.0626  0.5717 -0.8207
17594TIP3   OH274272   5.036   5.332   3.288 -0.1629  0.1218 -0.1947
17594TIP3    H174273   5.075   5.414   3.317  1.3301 -0.5624 -0.2424
17594TIP3    H274274   5.071   5.317   3.201  1.3201 -1.6479  0.6483
17595TIP3   OH274275   4.295   5.067   2.945 -0.0527  0.9315 -0.0735
17595TIP3    H174276   4.258   5.035   2.863  0.6021  1.0223 -0.4076
17595TIP3    H274277   4.373   5.115   2.919  0.1629  0.9558  0.6081
17596TIP3   OH274278   1.867   5.669   2.825  0.0796 -0.1570  0.3102
17596TIP3    H174279   1.942   5.684   2.883  0.3700  0.5322 -0.2518
17596TIP3    H274280   1.905   5.655   2.739 -0.2400 -2.7811  0.5297
17597TIP3   OH274281   1.669   5.322  15.076  0.1338  0.2659  0.1297
17597TIP3    H174282   1.674   5.249  15.138  0.6895 -0.3874 -0.6775
17597TIP3    H274283   1.750   5.371  15.091 -0.7783  1.3987  1.4921
17598TIP3   OH274284   0.752   5.655   1.172  0.1600 -0.5611  0.2548
17598TIP3    H174285   0.717   5.648   1.260  0.4365 -1.9474  0.2651
17598TIP3    H274286   0.724   5.574   1.129 -0.1302  0.1823 -0.9839
17599TIP3   OH274287   0.515   0.002   2.652  0.2717 -0.3032 -0.3303
17599TIP3    H174288   0.546  -0.045   2.575  0.3027 -0.8837  0.0308
17599TIP3    H274289   0.419  -0.005   2.648  0.1604  1.4402 -1.4141
17600TIP3   OH274290   3.323   5.143   3.663  0.4319 -0.4920 -0.5483
17600TIP3    H174291   3.277   5.143   3.747 -1.0538 -0.7691 -1.3466
17600TIP3    H274292   3.415   5.152   3.686 -0.0241  0.1135  1.0809
17601TIP3   OH274293   2.385   2.055  14.148  0.7358 -0.1182 -0.2885
17601TIP3    H174294   2.407   2.032  14.238 -0.7373 -0.4663 -0.0021
17601TIP3    H274295   2.321   2.126  14.157 -1.6928 -2.1495 -0.9653
17602TIP3   OH274296   6.029   1.984   5.142  0.2810  0.1558 -0.0496
17602TIP3    H174297   6.024   2.018   5.231 -1.0933  1.6000 -0.6553
17602TIP3    H274298   6.113   2.016   5.108  0.5749  0.0262  0.5453
17603TIP3   OH274299   0.122   5.015   0.820 -0.2611  0.4949  0.2973
17603TIP3    H174300   0.090   4.926   0.831  0.8335 -0.0490 -0.9059
17603TIP3    H274301   0.216   5.010   0.841 -0.0188  1.1932 -0.5994
17604TIP3   OH274302   4.210   1.874   0.940  0.4677 -0.1245  0.3024
17604TIP3    H174303   4.248   1.958   0.966  0.0242 -0.1586  1.0719
17604TIP3    H274304   4.130   1.896   0.894  0.7569 -0.0990 -0.1902
17605TIP3   OH274305   1.325   4.104   6.566 -0.1534  0.2534 -0.3192
17605TIP3    H174306   1.388   4.078   6.499 -0.7552 -0.6755 -0.5349
17605TIP3    H274307   1.240   4.101   6.522 -0.3789  1.3485  0.0115
17606TIP3   OH274308   5.393   5.031  10.778  0.1503 -0.2464 -0.1529
17606TIP3    H174309   5.335   4.965  10.739  0.9112 -1.0015 -0.0463
17606TIP3    H274310   5.455   5.052  10.708 -0.2908  0.6025 -0.2890
17607TIP3   OH274311   4.966   3.672  13.983  0.4814 -0.2518  0.6468
17607TIP3    H174312   4.883   3.697  13.943 -0.4568 -2.4761  1.1476
17607TIP3    H274313   5.025   3.656  13.910 -0.2289 -0.9792  0.2330
17608TIP3   OH274314   1.822   0.050   1.154  0.1183 -0.1131  0.4785
17608TIP3    H174315   1.881   0.044   1.229  0.9754 -0.7824 -0.2384
17608TIP3    H274316   1.859   0.120   1.100 -0.6409  0.5420  0.7903
17609TIP3   OH274317   4.285   3.709   2.874  0.0547 -0.2130 -0.5782
17609TIP3    H174318   4.359   3.666   2.829 -0.6410 -1.3014 -0.6967
17609TIP3    H274319   4.258   3.779   2.814 -0.4186 -1.2136 -1.5363
17610TIP3   OH274320   5.465   0.283  16.664 -0.0382 -0.0969  0.3899
17610TIP3    H174321   5.466   0.377  16.680  2.5423 -0.4619  2.8002
17610TIP3    H274322   5.407   0.249  16.733  0.9860 -0.4738  1.0780
17611TIP3   OH274323   6.388   1.824  10.884 -0.1834  0.5207 -0.1664
17611TIP3    H174324   6.425   1.808  10.797  1.0036 -0.2539  0.4534
17611TIP3    H274325   6.413   1.746  10.934 -1.8848  0.4197  0.5433
17612TIP3   OH274326   4.473   6.045  12.448  0.0360  0.7076  0.6946
17612TIP3    H174327   4.540   6.082  12.391  0.7122  0.0721  1.0841
17612TIP3    H274328   4.483   5.950  12.441 -0.9447  0.5983  0.6042
17613TIP3   OH274329   6.413   2.396   6.103  0.0868  0.3170  0.0855
17613TIP3    H174330   6.440   2.471   6.050 -0.2161  1.0107  0.9059
17613TIP3    H274331   6.325   2.418   6.133 -0.0864 -0.4624  0.1560
17614TIP3   OH274332   3.964   5.497   0.772 -0.0090  0.2221  0.3957
17614TIP3    H174333   3.997   5.498   0.863  1.8976 -0.8389 -0.2350
17614TIP3    H274334   4.029   5.547   0.723 -1.6880  1.8575 -0.2173
17615TIP3   OH274335   6.001   1.472  17.233 -0.4288 -0.4702  0.2706
17615TIP3    H174336   6.024   1.522  17.155  0.7844  1.5651  1.8778
17615TIP3    H274337   5.995   1.382  17.203  2.2085 -0.0256 -1.7439
17616TIP3   OH274338   5.995   4.132  16.868  0.3565 -0.4374 -0.4456
17616TIP3    H174339   5.972   4.194  16.799 -0.7010  0.4873  0.7136
17616TIP3    H274340   5.927   4.065  16.864 -0.2682  0.1386  0.3226
17617TIP3   OH274341   1.383   4.244   5.163  0.1634  0.9125 -0.5831
17617TIP3    H174342   1.387   4.183   5.089 -0.0031  0.4097 -0.1739
17617TIP3    H274343   1.314   4.210   5.219  2.7078 -0.7892  1.6428
17618TIP3   OH274344   6.392   6.350   0.278 -0.4165  0.4338  0.0506
17618TIP3    H174345   6.410   6.428   0.226  1.5044 -0.4344 -0.6538
17618TIP3    H274346   6.372   6.282   0.214 -1.4562  0.1786  0.6262
17619TIP3   OH274347   1.680   1.228   3.066 -0.3297  0.1711  0.1667
17619TIP3    H174348   1.761   1.204   3.021 -0.1486  2.3469 -0.6852
17619TIP3    H274349   1.615   1.166   3.032  0.7078 -0.8968  0.0676
17620TIP3   OH274350   5.096   0.927   3.892 -0.3033 -0.1524  0.3508
17620TIP3    H174351   5.107   0.833   3.880  2.0956 -0.0258  1.3131
17620TIP3    H274352   5.176   0.965   3.855 -0.6453  1.4238  1.1900
17621TIP3   OH274353   3.483   1.800  13.270 -0.1494  0.3456 -0.2645
17621TIP3    H174354   3.490   1.863  13.198  3.4707 -0.1700 -0.4630
17621TIP3    H274355   3.472   1.715  13.227  1.6001  0.0887 -0.2446
17622TIP3   OH274356   0.459   0.642   0.572 -0.0471  0.2714  0.5590
17622TIP3    H174357   0.443   0.599   0.656  2.0674  0.3941  1.0654
17622TIP3    H274358   0.475   0.733   0.594 -0.9936  0.6159 -0.1457
17623TIP3   OH274359   3.263   3.418  13.767 -0.2287 -0.2526 -0.0768
17623TIP3    H174360   3.246   3.324  13.770  0.2807 -0.4205 -1.8648
17623TIP3    H274361   3.199   3.456  13.827  0.0165 -1.8029  1.1812
17624TIP3   OH274362   2.325   2.275   3.048  0.3892 -0.3839  0.8666
17624TIP3    H174363   2.262   2.203   3.049  0.8439 -0.7938  0.3227
17624TIP3    H274364   2.272   2.354   3.043 -0.1066 -0.6891  1.2705
17625TIP3   OH274365   4.671   3.780  15.397  0.1282  0.3099 -0.8683
17625TIP3    H174366   4.610   3.782  15.323  0.1124  3.1458 -0.8188
17625TIP3    H274367   4.692   3.872  15.414  1.9874 -0.4350  1.1387
17626TIP3   OH274368   3.402   2.029   3.840  0.1096  0.1880  0.0482
17626TIP3    H174369   3.379   2.106   3.788 -0.3575  1.0862  1.5573
17626TIP3    H274370   3.486   2.001   3.805 -0.7618  0.0411 -2.0031
17627TIP3   OH274371   2.246   0.041  11.509  0.5021 -0.3237  0.4161
17627TIP3    H174372   2.315  -0.006  11.461  1.2608  0.6120  0.5715
17627TIP3    H274373   2.244   0.127  11.468 -0.7131 -0.4015  0.2968
17628TIP3   OH274374   5.997   4.710  12.231  0.0810  0.2142  0.0873
17628TIP3    H174375   6.000   4.665  12.147  0.4619 -0.8707  0.6744
17628TIP3    H274376   5.904   4.708  12.255  0.5632 -4.1521  2.1381
17629TIP3   OH274377   2.920   1.481   1.967  0.1287  0.0412 -0.5191
17629TIP3    H174378   2.997   1.521   2.006 -0.1095 -0.8783  0.9352
17629TIP3    H274379   2.885   1.548   1.908 -0.6092  2.2570  2.3306
17630TIP3   OH274380   5.701   5.247   2.521 -0.4749 -0.3220 -0.0597
17630TIP3    H174381   5.664   5.267   2.606 -1.7633  0.9085 -0.8957
17630TIP3    H274382   5.739   5.329   2.490 -1.6320 -0.2832 -1.4525
17631TIP3   OH274383   1.074   0.887  17.087 -0.4322 -0.3630 -0.8781
17631TIP3    H174384   1.140   0.920  17.026 -1.9834 -2.3067 -3.7247
17631TIP3    H274385   1.108   0.803  17.116 -0.4034 -0.1147 -0.1722
17632TIP3   OH274386   4.652   1.758  17.158  0.0221 -0.3895 -0.4193
17632TIP3    H174387   4.562   1.790  17.166  0.4359  0.3731  1.2535
17632TIP3    H274388   4.642   1.667  17.127 -1.2601  0.1650 -1.7194
17633TIP3   OH274389   0.126   1.157  16.036  0.2336 -0.4602 -0.2351
17633TIP3    H174390   0.221   1.165  16.046  0.0728 -1.1986  1.8688
17633TIP3    H274391   0.090   1.183  16.121 -1.6288  2.7804 -1.8867
17634TIP3   OH274392   5.523   0.603   0.042 -0.3259  0.5608  0.4515
17634TIP3    H174393   5.522   0.697   0.059  1.9460 -0.1665  5.3357
17634TIP3    H274394   5.615   0.579   0.043 -0.6853 -1.4369 -3.2297
17635TIP3   OH274395   0.285   5.434  12.293 -0.0028  0.2647 -0.1440
17635TIP3    H174396   0.289   5.347  12.254 -2.2707 -0.0091  0.1499
17635TIP3    H274397   0.231   5.485  12.232 -0.1687  0.9574  0.5802
17636TIP3   OH274398   0.257   4.557  14.386  0.0705  0.0408  0.1499
17636TIP3    H174399   0.268   4.613  14.308 -0.0397  0.3648  0.3649
17636TIP3    H274400   0.294   4.472  14.360 -1.8983 -0.4898 -0.9776
17637TIP3   OH274401   5.964   2.629   6.237 -0.3010 -0.0459 -0.0197
17637TIP3    H174402   5.944   2.692   6.307  1.0860  0.4417 -0.0342
17637TIP3    H274403   5.952   2.679   6.156  0.6837  0.1706 -0.0358
17638TIP3   OH274404   0.091   5.266  13.937  0.6127 -0.2285 -0.2449
17638TIP3    H174405   0.105   5.275  13.843 -0.2972  1.4340 -0.2373
17638TIP3    H274406   0.178   5.277  13.976  0.8783 -0.2420 -0.8371
17639TIP3   OH274407   0.843   2.973  14.743  0.2107 -0.7706 -0.4038
17639TIP3    H174408   0.758   2.960  14.785  0.0969 -0.2707 -0.4679
17639TIP3    H274409   0.834   3.057  14.698  1.0201 -0.2913  0.3016
17640TIP3   OH274410   0.236   3.608  11.266  0.2746  0.5761 -0.8309
17640TIP3    H174411   0.274   3.672  11.206 -0.5045 -0.6370 -2.6429
17640TIP3    H274412   0.144   3.602  11.240 -0.5473  1.4678  1.7584
17641TIP3   OH274413   1.108   2.592   0.723  0.6288 -0.4401  0.4565
17641TIP3    H174414   1.104   2.576   0.818  2.1489 -0.0862  0.5956
17641TIP3    H274415   1.138   2.508   0.687  0.4546 -0.4473  0.3305
17642TIP3   OH274416   3.121   6.586   5.369  1.0422 -0.2840  0.0582
17642TIP3    H174417   3.099   6.555   5.457  1.1266 -0.6775 -0.0594
17642TIP3    H274418   3.209   6.622   5.378  0.4682  1.0452  0.4686
17643TIP3   OH274419   0.224   1.874   5.738  0.1677  0.4087 -0.1950
17643TIP3    H174420   0.278   1.797   5.757 -0.2145  0.0679 -0.4869
17643TIP3    H274421   0.271   1.920   5.668 -0.9347 -0.9529 -1.8574
17644TIP3   OH274422   5.594   0.822   1.196  1.2396  0.3317  0.0921
17644TIP3    H174423   5.531   0.870   1.143  2.1149  0.5414 -0.7713
17644TIP3    H274424   5.599   0.871   1.278 -0.0303  0.0725  0.3388
17645TIP3   OH274425   3.376   3.800  15.343 -0.0276  0.2962  0.3155
17645TIP3    H174426   3.339   3.720  15.306 -1.0164  0.2275  1.4276
17645TIP3    H274427   3.457   3.773  15.385 -0.8822 -0.3263  1.6027
17646TIP3   OH274428   5.928   6.061   1.730  0.0893  0.6315  0.0221
17646TIP3    H174429   6.023   6.066   1.742  0.4121 -2.3447 -0.7845
17646TIP3    H274430   5.914   6.085   1.638  0.3410 -1.2257 -0.5178
17647TIP3   OH274431   1.620   0.132  13.315 -0.5944  0.0816 -0.0093
17647TIP3    H174432   1.604   0.145  13.222 -1.3234 -0.5132  0.0356
17647TIP3    H274433   1.715   0.121  13.322 -0.7853 -2.4382 -1.0011
17648TIP3   OH274434   3.897   5.432  10.698 -0.0557 -0.2026  0.2270
17648TIP3    H174435   3.805   5.442  10.720 -0.6424 -0.2219 -2.0485
17648TIP3    H274436   3.900   5.356  10.641  1.4018 -0.3096  0.4281
17649TIP3   OH274437   2.045   1.722  16.449 -0.0861 -0.9347 -0.4015
17649TIP3    H174438   2.029   1.796  16.508 -0.0192  0.3053 -1.9041
17649TIP3    H274439   2.052   1.646  16.507 -1.3443  0.0479  1.0772
17650TIP3   OH274440   2.898   1.751   4.008  0.1075  0.1204  0.2655
17650TIP3    H174441   2.906   1.688   3.937  0.4225  0.7456 -0.2669
17650TIP3    H274442   2.919   1.835   3.968 -2.8703  0.9447  0.3498
17651TIP3   OH274443   3.175   3.232  11.288 -0.2700 -0.5556 -0.3996
17651TIP3    H174444   3.112   3.283  11.339  1.7221  0.1953  1.4237
17651TIP3    H274445   3.184   3.150  11.337 -0.2513 -0.8870 -0.9603
17652TIP3   OH274446   4.329   5.450   3.678  0.1952 -0.8200 -0.2170
17652TIP3    H174447   4.405   5.505   3.697 -0.1167 -0.5839  0.3722
17652TIP3    H274448   4.354   5.401   3.600  0.9732 -0.7822  0.0030
17653TIP3   OH274449   4.933   2.821  12.048  1.0774 -0.1199  0.1536
17653TIP3    H174450   4.861   2.758  12.045  1.3164 -0.4574  1.3916
17653TIP3    H274451   4.917   2.879  11.973 -0.4772 -0.1819  0.4257
17654TIP3   OH274452   1.222   5.425  16.816  0.8280 -0.0057  0.0489
17654TIP3    H174453   1.315   5.401  16.812  0.8340 -0.0703  0.6333
17654TIP3    H274454   1.178   5.346  16.844  0.7392  0.3893  1.0311
17655TIP3   OH274455   1.411   2.973  15.541  0.0108  0.0163 -0.4342
17655TIP3    H174456   1.416   2.878  15.532 -1.6951 -0.1780  0.2814
17655TIP3    H274457   1.318   2.990  15.558  0.5088  1.6817  0.7629
17656TIP3   OH274458   3.454   4.249  11.131  0.5170  0.3269 -0.1036
17656TIP3    H174459   3.493   4.240  11.044  2.2127  1.0041  0.5670
17656TIP3    H274460   3.362   4.270  11.114  1.5899  3.9804 -1.7832
17657TIP3   OH274461   6.333   6.206   3.206 -0.0525 -0.4991  0.6623
17657TIP3    H174462   6.252   6.156   3.199 -0.4863  0.3427 -0.5417
17657TIP3    H274463   6.313   6.276   3.268 -0.5208  0.2079 -0.2753
17658TIP3   OH274464   1.723   3.672  15.430 -0.0170  0.0396 -0.0765
17658TIP3    H174465   1.644   3.656  15.481  0.3728  0.2493  0.5957
17658TIP3    H274466   1.752   3.760  15.457  0.9668 -0.4126  0.3772
17659TIP3   OH274467   5.067   0.251   1.056 -0.1390  0.0897 -0.3062
17659TIP3    H174468   5.076   0.236   0.962  2.4867  1.3725 -0.3077
17659TIP3    H274469   5.150   0.221   1.093 -0.5955  0.9082  1.4201
17660TIP3   OH274470   1.958   6.481  16.215 -0.2468 -0.4364 -0.3897
17660TIP3    H174471   1.971   6.556  16.275  0.2599 -1.3262  0.6329
17660TIP3    H274472   1.914   6.519  16.139 -1.6119  0.5791  0.8733
17661TIP3   OH274473   0.743   0.997  16.062 -0.6117  0.4118  0.3447
17661TIP3    H174474   0.737   1.018  15.969 -1.4786 -1.4893 -0.0560
17661TIP3    H274475   0.819   0.940  16.069  0.0155  1.3138  0.9619
17662TIP3   OH274476   2.584   4.722  14.442 -0.3100 -0.1574 -0.7076
17662TIP3    H174477   2.574   4.627  14.447 -0.3955 -0.1541 -0.8299
17662TIP3    H274478   2.598   4.749  14.533  0.2131 -0.3407 -0.7283
17663TIP3   OH274479   1.241   1.119  15.761  0.2934  0.1977 -0.3704
17663TIP3    H174480   1.336   1.123  15.758  0.2118  0.8447 -2.6245
17663TIP3    H274481   1.212   1.207  15.740 -0.8121  0.0413  0.4506
17664TIP3   OH274482   6.396   4.036   6.081  0.0448 -0.9820  0.1437
17664TIP3    H174483   6.402   4.119   6.129  0.1069 -0.4490 -0.7662
17664TIP3    H274484   6.405   3.969   6.148  2.7393 -0.2622  0.5977
17665TIP3   OH274485   1.763   3.001  14.526 -0.1277  0.5347  0.3618
17665TIP3    H174486   1.672   3.030  14.522 -0.1995  0.2866  0.2218
17665TIP3    H274487   1.783   2.971  14.437 -0.1730 -0.2114  0.6018
17666TIP3   OH274488   2.885   5.700  14.373 -0.3256  0.4176 -0.0647
17666TIP3    H174489   2.892   5.644  14.296  0.0187  0.1343  0.1702
17666TIP3    H274490   2.919   5.785  14.344  1.8749 -0.2668  0.3713
17667TIP3   OH274491   4.471   2.514   5.339 -0.1719 -0.1364  0.3858
17667TIP3    H174492   4.426   2.435   5.368  0.3944 -0.1516  1.2454
17667TIP3    H274493   4.562   2.488   5.327 -0.3202 -0.0343 -1.0629
17668TIP3   OH274494   2.313   3.798   0.067 -0.2516 -0.6602 -0.2865
17668TIP3    H174495   2.230   3.763   0.100 -0.9113  0.6426 -0.5362
17668TIP3    H274496   2.301   3.801  -0.028 -0.3336  0.5744 -0.2415
17669TIP3   OH274497   6.643   4.753   3.498  0.0884 -0.3061  0.0620
17669TIP3    H174498   6.603   4.755   3.584 -0.0276  2.3486 -0.0124
17669TIP3    H274499   6.573   4.778   3.438  0.7719  0.2055 -0.5369
17670TIP3   OH274500   2.469   4.056   3.637  0.5037  0.2412  0.0885
17670TIP3    H174501   2.420   3.974   3.648  0.0805  0.5480  0.4927
17670TIP3    H274502   2.503   4.075   3.724  1.8526 -0.2882 -0.3196
17671TIP3   OH274503   2.480   1.059  17.176  0.4478  0.1019 -0.0157
17671TIP3    H174504   2.541   1.012  17.234  0.8273  0.7840  0.1386
17671TIP3    H274505   2.536   1.115  17.123  0.1869 -1.2526 -1.7437
17672TIP3   OH274506   4.685   5.541   1.497 -0.7662  0.0748 -0.5281
17672TIP3    H174507   4.722   5.453   1.487 -0.3923 -0.1679  2.6987
17672TIP3    H274508   4.761   5.599   1.495 -0.5553 -0.0900  2.1046
17673TIP3   OH274509   6.080   5.935  15.534  0.1259 -0.1240 -0.3751
17673TIP3    H174510   6.121   5.849  15.535 -0.1649 -0.2760  1.3182
17673TIP3    H274511   6.105   5.974  15.451  0.6850 -1.6449 -0.9244
17674TIP3   OH274512   2.354   6.035  11.761 -0.1464  0.2450 -0.5825
17674TIP3    H174513   2.337   5.999  11.848  4.0152 -3.0879 -0.9818
17674TIP3    H274514   2.318   5.970  11.701 -0.4362  1.1398 -1.3930
17675TIP3   OH274515   5.246   1.867   1.856  0.4318 -0.0047  0.4363
17675TIP3    H174516   5.217   1.781   1.887 -2.6881  1.1510  0.8476
17675TIP3    H274517   5.227   1.866   1.763  1.5043 -0.1708  0.2111
17676TIP3   OH274518   1.468   3.946   1.409 -0.1094 -0.0937  0.2240
17676TIP3    H174519   1.426   4.030   1.424  0.5969  0.0994  1.1578
17676TIP3    H274520   1.395   3.883   1.405 -0.8323  0.8597 -2.9866
17677TIP3   OH274521   0.743   3.642  11.920 -0.2334 -0.8596 -0.1785
17677TIP3    H174522   0.659   3.643  11.875 -0.1721 -1.8390 -0.3135
17677TIP3    H274523   0.765   3.735  11.931 -1.1114 -0.6025 -0.5360
17678TIP3   OH274524   5.584   4.084   1.750 -0.1528  0.2988 -0.7020
17678TIP3    H174525   5.619   4.069   1.838  0.9881  0.2202 -1.1699
17678TIP3    H274526   5.639   4.032   1.692 -0.5142  0.8326 -1.5395
17679TIP3   OH274527   2.434   4.409  15.041  0.1965 -0.3691 -0.2449
17679TIP3    H174528   2.522   4.377  15.062  1.0913  2.2205  0.1561
17679TIP3    H274529   2.406   4.455  15.121 -1.3667 -0.8163 -0.5197
17680TIP3   OH274530   4.875   2.444  15.454 -0.6106 -0.0157  0.1850
17680TIP3    H174531   4.836   2.523  15.416  0.3495 -0.0972 -0.9957
17680TIP3    H274532   4.880   2.462  15.547  1.7530  2.2732 -0.3367
17681TIP3   OH274533   3.265   2.848  10.871 -0.4152 -0.9909  0.0176
17681TIP3    H174534   3.325   2.881  10.938  0.7602 -3.3814  0.2119
17681TIP3    H274535   3.313   2.861  10.789 -0.7751 -0.4153 -0.1024
17682TIP3   OH274536   1.084   5.511   4.592 -0.5237 -0.5739 -0.5069
17682TIP3    H174537   1.029   5.585   4.568 -1.0138 -0.3165  1.3587
17682TIP3    H274538   1.111   5.473   4.508 -1.9907  0.4238 -1.4479
17683TIP3   OH274539   5.820   2.791   0.409  0.3245 -0.2117 -0.0251
17683TIP3    H174540   5.829   2.876   0.367  1.4753  0.2952  1.1988
17683TIP3    H274541   5.787   2.811   0.497  1.6106 -0.9174  0.6382
17684TIP3   OH274542   4.253   1.956   5.186  0.2016 -0.4037 -0.0223
17684TIP3    H174543   4.225   1.900   5.258 -0.3693  1.7306  1.4984
17684TIP3    H274544   4.173   2.001   5.158  1.3969  3.4784  2.3224
17685TIP3   OH274545   2.484   3.996   1.384 -0.0663  0.5188  0.3287
17685TIP3    H174546   2.502   4.066   1.320  0.6891 -1.2202 -1.4374
17685TIP3    H274547   2.392   3.974   1.370  0.5893 -1.1625 -1.5485
17686TIP3   OH274548   4.853   6.192   3.757 -0.1136  0.0826 -0.0225
17686TIP3    H174549   4.759   6.187   3.741  0.2900  0.4081 -2.8413
17686TIP3    H274550   4.880   6.102   3.774 -0.9531  0.0250  1.0549
17687TIP3   OH274551   2.088   0.577   2.012 -0.1001 -0.6336  0.3567
17687TIP3    H174552   2.034   0.530   2.076  1.7929 -0.0043  2.4288
17687TIP3    H274553   2.066   0.669   2.025 -0.0962 -0.5345 -0.2987
17688TIP3   OH274554   2.375   6.513  16.718  0.9218 -0.7343 -0.1436
17688TIP3    H174555   2.439   6.472  16.777  1.1957  1.0964  0.8583
17688TIP3    H274556   2.389   6.607  16.728  1.0657 -0.3551 -3.2349
17689TIP3   OH274557   0.453   4.854  17.053 -0.5753 -0.1156  0.2769
17689TIP3    H174558   0.461   4.856  17.149 -1.2828  0.9849  0.3176
17689TIP3    H274559   0.413   4.770  17.034  0.3372 -0.6982  0.8949
17690TIP3   OH274560   4.759   3.948  16.923  0.2885  0.3893 -0.5918
17690TIP3    H174561   4.809   4.024  16.950  1.4440 -0.6332  0.1888
17690TIP3    H274562   4.757   3.892  17.000  0.2371 -0.7840 -1.4331
17691TIP3   OH274563   3.993   1.574   3.795 -0.2911  0.0748 -0.4681
17691TIP3    H174564   3.916   1.528   3.828 -0.3532 -1.2329 -2.3450
17691TIP3    H274565   4.067   1.518   3.819  0.0035  0.9565  0.6814
17692TIP3   OH274566   3.234   4.411  11.068 -0.5813 -0.0429 -0.0497
17692TIP3    H174567   3.168   4.480  11.075 -0.6796 -0.0403 -0.9406
17692TIP3    H274568   3.218   4.371  10.982 -2.4819 -3.1827  1.6603
17693TIP3   OH274569   4.436   0.083   3.230 -0.1603 -0.1035  0.3032
17693TIP3    H174570   4.410   0.070   3.321 -1.0463  1.2501  0.2539
17693TIP3    H274571   4.522   0.124   3.235 -1.5859  2.9795  0.6170
17694TIP3   OH274572   0.905   3.533   0.381 -0.4293  0.2574  0.0874
17694TIP3    H174573   0.824   3.509   0.426 -0.3493 -1.8271 -0.8272
17694TIP3    H274574   0.889   3.510   0.290  0.5078  1.6379 -0.4417
17695TIP3   OH274575   2.817   3.873  11.829  0.0558 -0.3990  0.0377
17695TIP3    H174576   2.865   3.887  11.910  0.7403 -0.9051 -0.2852
17695TIP3    H274577   2.859   3.931  11.766  0.1858 -0.7792 -0.2235
17696TIP3   OH274578   1.620   3.842  12.543  0.0547  0.3745  0.8123
17696TIP3    H174579   1.628   3.806  12.455  1.0035  0.7442  0.7358
17696TIP3    H274580   1.701   3.893  12.556 -0.1241  0.4185  1.8466
17697TIP3   OH274581   0.286   5.513   6.357  0.5473  0.3289 -0.6193
17697TIP3    H174582   0.298   5.581   6.292 -1.5463 -0.9232 -2.3739
17697TIP3    H274583   0.191   5.497   6.359  0.8854 -1.8149  0.4442
17698TIP3   OH274584   4.075   4.500   3.301  0.7516  0.0315 -0.2081
17698TIP3    H174585   4.084   4.584   3.345 -1.6348  0.0739  0.2730
17698TIP3    H274586   4.097   4.518   3.210  0.2637  1.2016 -0.1094
17699TIP3   OH274587   5.648   1.237   1.150  0.5776  0.0767 -0.0796
17699TIP3    H174588   5.668   1.203   1.063 -1.1041  1.5594 -1.0563
17699TIP3    H274589   5.731   1.275   1.181  0.9691  0.2838 -1.3712
17700TIP3   OH274590   6.219   5.794   5.678  0.2206  0.2006  0.1870
17700TIP3    H174591   6.199   5.872   5.729  1.3292  0.6313 -0.0251
17700TIP3    H274592   6.134   5.766   5.643 -0.0023  2.1135 -0.8644
17701TIP3   OH274593   1.151   0.649   4.220 -0.5891 -0.3700  0.3048
17701TIP3    H174594   1.155   0.580   4.287 -1.0924  2.3514  3.2685
17701TIP3    H274595   1.242   0.673   4.205 -0.4509 -1.2374 -0.3150
17702TIP3   OH274596   0.747   3.449   3.717  0.5206 -0.4044  0.1383
17702TIP3    H174597   0.803   3.397   3.659 -0.0417 -1.2033  0.2986
17702TIP3    H274598   0.677   3.389   3.742  0.1802  0.2619  0.7981
17703TIP3   OH274599   4.345   6.414   2.192  0.2273  0.3492  0.1971
17703TIP3    H174600   4.310   6.355   2.126 -0.7597  0.8110  0.2895
17703TIP3    H274601   4.438   6.393   2.198  0.2912  0.2199 -1.2388
17704TIP3   OH274602   0.718   0.493   5.115 -0.0719  0.4849 -0.2212
17704TIP3    H174603   0.623   0.495   5.124  0.1193  1.1440  2.0719
17704TIP3    H274604   0.750   0.473   5.203  1.8436 -2.3652 -1.4844
17705TIP3   OH274605   3.452   0.448   1.295  0.1131  0.3737 -0.0732
17705TIP3    H174606   3.380   0.455   1.232  0.4165  0.5324 -0.4013
17705TIP3    H274607   3.477   0.356   1.292  1.0822  0.6613 -1.2495
17706TIP3   OH274608   1.185   1.246  16.412  0.0017  0.3713 -0.2482
17706TIP3    H174609   1.094   1.277  16.405  0.0102  1.7463  4.3247
17706TIP3    H274610   1.178   1.151  16.404 -1.3544  0.6659 -3.4753
17707TIP3   OH274611   4.902   1.200   6.577 -0.1959 -0.5102  0.2709
17707TIP3    H174612   4.966   1.134   6.602  2.5176  2.0020  0.3042
17707TIP3    H274613   4.882   1.246   6.659 -0.8472 -0.2888 -0.0100
17708TIP3   OH274614   5.876   0.741   3.313  0.2640  0.0524  0.1438
17708TIP3    H174615   5.817   0.799   3.361 -0.3814 -0.9666  0.5990
17708TIP3    H274616   5.903   0.792   3.237 -0.6981  0.7710  0.2765
17709TIP3   OH274617   4.840   1.021   5.813  0.4922  0.8564 -0.8081
17709TIP3    H174618   4.928   1.040   5.846  1.0924 -1.5243 -0.9300
17709TIP3    H274619   4.855   0.975   5.730 -0.8468  0.1319 -0.6608
17710TIP3   OH274620   1.447   6.405  17.096 -0.2943  0.4496 -0.3885
17710TIP3    H174621   1.507   6.361  17.037  0.8663 -1.1875  1.9580
17710TIP3    H274622   1.378   6.340  17.114  0.6502  0.0476  1.9328
17711TIP3   OH274623   4.960   1.014  13.951 -0.1749  0.1252  0.0706
17711TIP3    H174624   5.053   1.004  13.930 -0.3528 -0.8933 -0.2851
17711TIP3    H274625   4.931   1.089  13.899  0.6974  1.1272  1.0278
17712TIP3   OH274626   5.281   4.193  17.021  0.1871 -0.0899 -0.7213
17712TIP3    H174627   5.262   4.108  17.059  0.3790 -0.3139 -1.1163
17712TIP3    H274628   5.376   4.200  17.024  0.2329 -0.2992 -1.5521
17713TIP3   OH274629   4.213   0.002  14.889 -0.2595 -0.0208  0.3287
17713TIP3    H174630   4.186  -0.083  14.853 -3.1378  0.6068  0.8996
17713TIP3    H274631   4.212  -0.011  14.984 -0.9672  0.7355  0.4221
17714TIP3   OH274632   6.158   2.337   0.398  0.6737 -0.5933 -1.1832
17714TIP3    H174633   6.092   2.406   0.403 -0.8854 -2.0335 -1.3409
17714TIP3    H274634   6.202   2.351   0.314  2.4162  1.9690  0.0949
17715TIP3   OH274635   4.131   1.714   5.283 -0.0197 -0.3790 -0.0331
17715TIP3    H174636   4.049   1.693   5.326 -1.0063 -0.2012 -1.7646
17715TIP3    H274637   4.177   1.630   5.278 -0.4908 -0.6523  0.1413
17716TIP3   OH274638   0.928   3.089  12.604 -0.4941 -0.0263 -0.0036
17716TIP3    H174639   0.934   3.065  12.697 -1.2007 -0.4518 -0.0664
17716TIP3    H274640   0.916   3.006  12.558 -2.3378  0.3649 -0.2742
17717TIP3   OH274641   6.236   6.469  14.994  0.1188 -0.3094  0.5492
17717TIP3    H174642   6.200   6.392  14.950 -1.9343  0.6494  0.5010
17717TIP3    H274643   6.216   6.542  14.936  1.2240  0.3958  1.0390
17718TIP3   OH274644   3.084   5.599   0.660  0.2618 -0.4695  0.4743
17718TIP3    H174645   3.081   5.524   0.600 -2.3112 -0.4416  0.5186
17718TIP3    H274646   3.177   5.615   0.674  0.8559 -2.7215 -0.7176
17719TIP3   OH274647   3.539   4.947   3.016 -0.7042  0.0054 -0.0738
17719TIP3    H174648   3.450   4.969   3.042 -0.9242 -1.3254  0.3549
17719TIP3    H274649   3.530   4.911   2.928 -0.5326  0.3138 -0.2161
17720TIP3   OH274650   0.104   4.297   1.557  0.1506 -0.2329  0.2898
17720TIP3    H174651   0.027   4.241   1.566  0.3789 -0.6776 -0.5082
17720TIP3    H274652   0.084   4.374   1.610 -1.1886  0.0263 -0.5737
17721TIP3   OH274653   2.876   1.243   2.134 -0.5796 -0.0626  0.6004
17721TIP3    H174654   2.891   1.312   2.070 -1.3401 -0.0080  0.4749
17721TIP3    H274655   2.912   1.164   2.094 -1.5495 -0.1344 -0.1311
17722TIP3   OH274656   3.580   2.866  14.604 -0.2096  0.3534  0.4978
17722TIP3    H174657   3.532   2.943  14.575 -0.7226 -0.3172 -0.4853
17722TIP3    H274658   3.515   2.795  14.600  1.0510 -0.7533 -1.7589
17723TIP3   OH274659   1.711   2.203   5.755  0.2751 -0.0614  0.5990
17723TIP3    H174660   1.792   2.178   5.799  0.2810 -2.3669 -0.6539
17723TIP3    H274661   1.644   2.148   5.795 -0.2604  0.1184 -0.0392
17724TIP3   OH274662   1.157   1.465   3.494  0.2294 -0.7586 -0.2455
17724TIP3    H174663   1.211   1.463   3.415 -0.2127 -0.4822 -0.5672
17724TIP3    H274664   1.100   1.541   3.480  0.4610 -0.4408  0.5512
17725TIP3   OH274665   2.828   1.156  15.442  0.1250  0.2025 -0.0147
17725TIP3    H174666   2.869   1.240  15.463 -0.0132  0.0368  0.9373
17725TIP3    H274667   2.812   1.161  15.347 -0.0583  1.3252  0.0605
17726TIP3   OH274668   0.076   0.103   0.634  0.2673 -0.0235 -0.0054
17726TIP3    H174669   0.135   0.132   0.564 -0.5765 -0.6795 -1.0178
17726TIP3    H274670   0.005   0.166   0.633 -0.3765 -0.7497 -0.5991
17727TIP3   OH274671   6.128   4.345  17.136 -0.0854 -0.6081 -0.4426
17727TIP3    H174672   6.099   4.255  17.123 -2.9087  0.3372 -1.0439
17727TIP3    H274673   6.154   4.349  17.228 -2.5813 -1.3888  0.3461
17728TIP3   OH274674   0.445   1.003  15.625  0.0844  0.1624 -0.6876
17728TIP3    H174675   0.485   0.969  15.706  0.8902 -1.0374 -1.5715
17728TIP3    H274676   0.367   0.949  15.613 -0.9389  1.4356  0.1691
17729TIP3   OH274677   6.306   0.341   0.075 -0.4615  0.4028  0.7585
17729TIP3    H174678   6.275   0.316  -0.012  0.7250 -1.0952  0.7376
17729TIP3    H274679   6.394   0.303   0.080  0.2718  2.1939  1.8455
17730TIP3   OH274680   6.472   6.442   1.181  0.3483 -0.5280  0.1915
17730TIP3    H174681   6.526   6.371   1.145 -0.5497 -0.1020 -2.0690
17730TIP3    H274682   6.488   6.516   1.123 -3.3289 -0.6311 -1.0601
17731TIP3   OH274683   3.111   5.034   0.694 -0.1141 -0.0216  0.4308
17731TIP3    H174684   3.170   5.109   0.689  0.4987 -0.5203  0.2283
17731TIP3    H274685   3.024   5.071   0.676  0.3768  0.3837 -1.0944
17732TIP3   OH274686   5.625   2.122  14.313 -0.4531  0.5010  0.1812
17732TIP3    H174687   5.706   2.088  14.277 -1.1559  1.0845 -2.0935
17732TIP3    H274688   5.638   2.123  14.408  1.5920 -0.8448 -0.0614
17733TIP3   OH274689   4.284   2.142   3.565  0.0104 -0.1976  0.2114
17733TIP3    H174690   4.325   2.153   3.651 -0.2795 -0.1869  0.3473
17733TIP3    H274691   4.207   2.089   3.581 -0.3932  0.3352  0.0548
17734TIP3   OH274692   1.714   2.186  10.946 -0.4027  0.3484 -0.7076
17734TIP3    H174693   1.694   2.269  10.990  1.3209  0.1582  0.4877
17734TIP3    H274694   1.712   2.208  10.853 -2.7040  1.0793 -0.5212
17735TIP3   OH274695   1.845   1.263   1.558 -0.2300 -0.0577 -0.0623
17735TIP3    H174696   1.801   1.254   1.643  2.0451 -1.9515  0.9432
17735TIP3    H274697   1.814   1.188   1.507  0.1701 -0.1845 -0.1151
17736TIP3   OH274698   1.875   1.420  15.390  0.3871  0.1603  0.2784
17736TIP3    H174699   1.816   1.407  15.315  1.1840  0.2447 -0.3717
17736TIP3    H274700   1.942   1.352  15.380 -1.2133 -1.8369  2.6452
17737TIP3   OH274701   4.599   0.604  12.980  0.0181  0.1569 -0.8545
17737TIP3    H174702   4.559   0.591  12.894 -0.3871  0.9531 -0.7984
17737TIP3    H274703   4.534   0.572  13.042 -0.7418  1.8627 -0.7421
17738TIP3   OH274704   1.838   1.602   6.201  0.2390 -0.0559 -0.3118
17738TIP3    H174705   1.813   1.535   6.264  0.6110  1.1373  1.1149
17738TIP3    H274706   1.929   1.622   6.221  1.3390 -1.7819 -3.1639
17739TIP3   OH274707   0.563   6.023  15.327 -0.0224  0.2357 -0.1729
17739TIP3    H174708   0.490   6.002  15.267 -1.8273  1.3055  1.5951
17739TIP3    H274709   0.565   6.119  15.329  1.4838  0.2141 -0.2157
17740TIP3   OH274710   3.166   0.466   3.068 -0.2103  0.0774  0.0706
17740TIP3    H174711   3.149   0.544   3.120 -1.1015 -1.0858  1.5497
17740TIP3    H274712   3.105   0.400   3.101  2.3043 -2.0487  0.6469
17741TIP3   OH274713   1.586   2.661   5.573 -0.1968  0.1842  0.2826
17741TIP3    H174714   1.620   2.572   5.565 -1.3050 -0.2140  0.0027
17741TIP3    H274715   1.524   2.670   5.501 -1.8152  0.3990  1.6701
17742TIP3   OH274716   2.534   1.891   4.237  0.3157 -0.0491 -0.2149
17742TIP3    H174717   2.624   1.913   4.262  0.4059 -2.0699  1.3473
17742TIP3    H274718   2.481   1.920   4.312 -0.1212 -0.6305 -0.2999
17743TIP3   OH274719   2.116   0.296  14.090 -0.3461 -0.4805  0.0793
17743TIP3    H174720   2.150   0.208  14.078  1.7127  0.4191 -0.9004
17743TIP3    H274721   2.189   0.354  14.068 -1.6176  1.4772  0.8092
17744TIP3   OH274722   5.669   5.259  15.998  0.2531 -0.2104  0.3257
17744TIP3    H174723   5.576   5.243  15.983  0.1004 -1.2339  2.1400
17744TIP3    H274724   5.671   5.319  16.073  1.0341  0.9685 -0.6253
17745TIP3   OH274725   4.740   0.912   3.690 -0.2280  0.1210  0.0597
17745TIP3    H174726   4.826   0.896   3.651 -0.4106  0.0787 -0.3257
17745TIP3    H274727   4.757   0.976   3.759 -0.2733  2.0229 -1.6547
17746TIP3   OH274728   1.821   6.031  10.668  0.4875  0.2580 -0.0512
17746TIP3    H174729   1.860   5.963  10.612 -0.0016  0.4019 -0.5717
17746TIP3    H274730   1.739   5.992  10.699  0.4408  0.4253  0.0371
17747TIP3   OH274731   6.132   1.777  16.785 -0.2564 -0.8295  0.2685
17747TIP3    H174732   6.051   1.772  16.735 -1.4813  1.0467  1.9893
17747TIP3    H274733   6.201   1.763  16.720 -1.8410  0.1886 -1.7053
17748TIP3   OH274734   2.628   4.127  16.472 -0.1828 -0.7415 -0.5955
17748TIP3    H174735   2.612   4.172  16.555  1.9169 -1.4935  0.2439
17748TIP3    H274736   2.565   4.054  16.472 -1.3922  0.2864 -0.4885
17749TIP3   OH274737   1.433   4.052   4.972  0.1409 -0.2352 -1.0547
17749TIP3    H174738   1.506   3.991   4.964  1.1891  0.9282 -0.6708
17749TIP3    H274739   1.412   4.076   4.882  0.9049  0.1743 -1.1313
17750TIP3   OH274740   1.350   1.385  15.147  0.0837 -0.6645 -0.0486
17750TIP3    H174741   1.402   1.457  15.113  0.4420 -1.3211 -0.8995
17750TIP3    H274742   1.298   1.355  15.073 -2.3141  0.6746  1.0564
17751TIP3   OH274743   2.191   2.725  15.866  0.0280  0.0193  0.0859
17751TIP3    H174744   2.152   2.732  15.953 -0.1430  1.9268 -0.1270
17751TIP3    H274745   2.197   2.631  15.850  1.5046 -0.3822  2.7768
17752TIP3   OH274746   6.707   2.672  12.853 -0.1488  0.7050  0.2619
17752TIP3    H174747   6.726   2.715  12.769 -1.2243 -0.2032 -0.4728
17752TIP3    H274748   6.646   2.730  12.897  0.3284  1.1311  0.3563
17753TIP3   OH274749   3.170   1.208  13.190  0.2422 -0.3514  0.0913
17753TIP3    H174750   3.119   1.184  13.112 -0.1105  0.2773  0.1248
17753TIP3    H274751   3.127   1.287  13.223  1.3314  0.2708  0.0406
17754TIP3   OH274752   3.605   1.250   2.614 -0.2815  0.1739  1.2440
17754TIP3    H174753   3.553   1.328   2.633 -0.9837  0.7180 -2.5279
17754TIP3    H274754   3.549   1.197   2.558  2.1557 -0.5480 -0.5631
17755TIP3   OH274755   3.178   6.544   1.471 -0.5689 -0.1527 -0.4213
17755TIP3    H174756   3.230   6.581   1.400  0.1325 -0.2142  0.0594
17755TIP3    H274757   3.242   6.503   1.529 -1.0547  0.6204  0.6824
17756TIP3   OH274758   3.450   1.333   4.869 -0.3571  0.6141  0.1985
17756TIP3    H174759   3.537   1.296   4.886 -0.6270  0.0003  0.2584
17756TIP3    H274760   3.465   1.427   4.858  0.3307  0.4900  0.0849
17757TIP3   OH274761   2.689   1.229  17.201 -0.2089  0.2888  0.0171
17757TIP3    H174762   2.700   1.167  17.272 -2.2174 -0.8560 -0.6299
17757TIP3    H274763   2.770   1.280  17.200 -0.4240  0.7645  3.5138
17758TIP3   OH274764   2.806   4.155  12.395  0.1933  0.3598 -0.6230
17758TIP3    H174765   2.838   4.164  12.306 -2.8076  1.6984 -1.6123
17758TIP3    H274766   2.876   4.193  12.449  1.5982  0.4422 -2.4429
17759TIP3   OH274767   0.675   0.154   1.512  0.3834 -0.0608  0.1328
17759TIP3    H174768   0.741   0.116   1.454  0.5245  0.8547 -0.3081
17759TIP3    H274769   0.658   0.085   1.577  0.7477 -0.8199 -0.5666
17760TIP3   OH274770   6.382   5.309  10.477  0.8837 -0.0982 -0.3006
17760TIP3    H174771   6.362   5.249  10.549  0.4127  0.1544 -0.2196
17760TIP3    H274772   6.309   5.371  10.476  1.1723  0.2393 -0.6359
17761TIP3   OH274773   0.494   1.575  13.714 -0.2374  0.2996 -0.1194
17761TIP3    H174774   0.524   1.484  13.726 -1.1578  0.2169  1.6772
17761TIP3    H274775   0.421   1.585  13.775  0.4867  2.5637  0.4201
17762TIP3   OH274776   2.295   6.511  16.205 -0.0795  0.2407 -0.1137
17762TIP3    H174777   2.216   6.535  16.156  0.1954  0.6384 -0.3683
17762TIP3    H274778   2.280   6.420  16.233 -0.0891 -0.1090 -1.2390
17763TIP3   OH274779   1.727   6.411   3.860 -0.1446 -0.4106  0.0482
17763TIP3    H174780   1.641   6.447   3.885 -0.3669 -0.8837 -0.0202
17763TIP3    H274781   1.707   6.324   3.825  0.5906 -1.5147  2.2601
17764TIP3   OH274782   6.745   6.084  13.820  0.4061 -0.0947  0.2082
17764TIP3    H174783   6.772   6.050  13.906  1.3492 -0.4951 -0.2331
17764TIP3    H274784   6.818   6.138  13.792  0.4735 -0.6622 -0.7265
17765TIP3   OH274785   1.346   3.698  13.616 -0.6827 -0.0568 -0.6502
17765TIP3    H174786   1.314   3.750  13.542 -0.9311  1.0199  0.2097
17765TIP3    H274787   1.289   3.721  13.688 -0.3496 -1.0087 -0.0732
17766TIP3   OH274788   0.956   3.344  15.840 -0.2914 -0.5205  0.2839
17766TIP3    H174789   0.921   3.263  15.803  1.5153 -0.8085 -0.8525
17766TIP3    H274790   1.049   3.325  15.853  0.2182  1.5204 -0.3694
17767TIP3   OH274791   0.850   0.444  17.270 -0.6597  0.1765  0.0110
17767TIP3    H174792   0.905   0.501  17.324  0.0374 -0.7382  0.2682
17767TIP3    H274793   0.823   0.374  17.328 -0.2811 -0.5708 -0.7036
17768TIP3   OH274794   1.742   4.102  13.843 -0.3340 -0.5579 -0.1157
17768TIP3    H174795   1.798   4.179  13.854 -1.2872  0.0831  0.4011
17768TIP3    H274796   1.792   4.043  13.787  1.9522 -1.1333  2.4591
17769TIP3   OH274797   6.353   4.545   2.777 -0.1139 -0.0608  0.0522
17769TIP3    H174798   6.447   4.560   2.768 -0.3331  1.1096 -0.4563
17769TIP3    H274799   6.338   4.461   2.734  0.6646 -0.1361 -0.0848
17770TIP3   OH274800   5.030   4.599  14.576 -0.3495  0.1740 -0.0179
17770TIP3    H174801   5.041   4.692  14.598 -1.1480  0.5548 -1.2099
17770TIP3    H274802   4.936   4.586  14.573 -0.2593 -1.0932  1.8005
17771TIP3   OH274803   5.256   0.905   2.091  0.7508  0.8000 -0.0019
17771TIP3    H174804   5.302   0.869   2.166 -2.1322 -0.5868  1.1754
17771TIP3    H274805   5.295   0.860   2.016  1.1408 -0.5259  0.9732
17772TIP3   OH274806   5.372   2.706   2.363 -0.9024  0.0431  0.0260
17772TIP3    H174807   5.307   2.639   2.344  0.4433 -0.9128 -1.3063
17772TIP3    H274808   5.347   2.780   2.307 -0.9786 -0.2461 -0.3261
17773TIP3   OH274809   2.140   5.799   4.868 -0.6838 -0.3864 -0.2478
17773TIP3    H174810   2.151   5.894   4.865 -0.9067 -0.3661 -0.4206
17773TIP3    H274811   2.092   5.783   4.950 -0.3645 -0.3772 -0.0615
17774TIP3   OH274812   5.095   6.619   3.016 -0.2494  0.2028 -0.7249
17774TIP3    H174813   5.016   6.672   3.001  0.7730  2.4754  1.4200
17774TIP3    H274814   5.117   6.636   3.108  2.5104 -0.7036 -1.1805
17775TIP3   OH274815   4.182   6.620   0.297  0.1044  0.7843  0.6229
17775TIP3    H174816   4.248   6.551   0.285  0.2056  0.9656  0.1213
17775TIP3    H274817   4.140   6.628   0.211 -2.6878 -1.4903  1.6951
17776TIP3   OH274818   6.336   0.430   6.472 -0.3139 -0.6738  0.1887
17776TIP3    H174819   6.336   0.367   6.399 -0.3844 -0.8196  0.3158
17776TIP3    H274820   6.380   0.385   6.543  0.3649 -0.2823  0.0276
17777TIP3   OH274821   2.939   4.152   1.923  0.2371  0.5714 -0.0723
17777TIP3    H174822   2.860   4.117   1.882  0.3952  1.6080 -1.2706
17777TIP3    H274823   2.934   4.122   2.014 -1.2329  0.1295 -0.2913
17778TIP3   OH274824   0.040   1.458  15.890  0.0708  0.0056 -0.2608
17778TIP3    H174825   0.098   1.384  15.868  1.1047  0.5996  0.4081
17778TIP3    H274826   0.080   1.496  15.968  0.7479  2.5755 -1.8144
17779TIP3   OH274827   0.919   0.243  15.561 -0.3556 -0.1053  0.0363
17779TIP3    H174828   0.845   0.276  15.612  0.8704  1.3360  0.9355
17779TIP3    H274829   0.977   0.203  15.626 -0.3464 -1.2254 -0.6626
17780TIP3   OH274830   1.584   1.786   2.508  0.1604 -0.6028  0.2741
17780TIP3    H174831   1.503   1.811   2.464  0.8494 -0.1308 -0.7260
17780TIP3    H274832   1.592   1.850   2.580  0.9237  0.8926 -1.1190
17781TIP3   OH274833   2.317   3.530   6.551 -0.0040 -0.0886  0.0810
17781TIP3    H174834   2.334   3.439   6.576 -2.7082 -0.4794  0.5828
17781TIP3    H274835   2.306   3.526   6.456 -0.4587 -0.3357  0.1430
17782TIP3   OH274836   4.310   2.713  12.690  0.0589  0.4361 -0.0007
17782TIP3    H174837   4.248   2.754  12.751  2.5735  1.1122  2.2124
17782TIP3    H274838   4.334   2.784  12.630  2.3938  1.6438  2.2159
17783TIP3   OH274839   1.163   2.122  16.314  0.1479  0.2371 -0.1370
17783TIP3    H174840   1.077   2.097  16.281  0.2972 -0.4387 -0.0269
17783TIP3    H274841   1.211   2.151  16.237 -0.5023  1.5675 -0.0511
17784TIP3   OH274842   5.141   0.025  15.889 -0.1090 -0.1262  0.6654
17784TIP3    H174843   5.178   0.109  15.917 -0.3901 -0.4041  1.8908
17784TIP3    H274844   5.048   0.032  15.911 -0.6863  0.2883 -1.7318
17785TIP3   OH274845   0.523   1.809   4.707 -0.0784 -1.2704  0.3946
17785TIP3    H174846   0.546   1.892   4.749 -2.5528 -0.3200 -0.0249
17785TIP3    H274847   0.474   1.761   4.773 -0.3429 -1.5638 -0.0123
17786TIP3   OH274848   1.183   4.666  11.290  0.2255 -0.1095  0.3752
17786TIP3    H174849   1.188   4.734  11.358 -0.7386 -0.6417  0.9926
17786TIP3    H274850   1.187   4.584  11.339  1.0648 -0.5029 -0.3506
17787TIP3   OH274851   4.373   5.715  12.962  0.2475 -0.3806  0.2075
17787TIP3    H174852   4.379   5.783  13.030 -0.9070 -0.9238  0.8658
17787TIP3    H274853   4.298   5.741  12.909  1.3163  0.1928 -1.0609
17788TIP3   OH274854   4.319   2.018   4.317  0.4201  0.2885 -0.1629
17788TIP3    H174855   4.412   2.021   4.341  0.4835 -0.3974 -0.3004
17788TIP3    H274856   4.284   1.944   4.367 -0.3191  1.2609  0.7854
17789TIP3   OH274857   3.516   1.114   0.862 -0.3192 -0.0320 -0.3593
17789TIP3    H174858   3.594   1.068   0.833  0.0463  0.9944 -1.0477
17789TIP3    H274859   3.516   1.195   0.811 -2.4585 -0.5531 -1.2381
17790TIP3   OH274860   4.076   5.946   5.723  0.1239  0.0083 -0.0858
17790TIP3    H174861   4.067   5.851   5.728 -0.6600  0.1861  2.5108
17790TIP3    H274862   4.162   5.964   5.762 -1.0118  0.5855  2.1811
17791TIP3   OH274863   4.266   5.749  11.971  0.4106 -0.5527 -0.0609
17791TIP3    H174864   4.324   5.678  11.945  1.4323  0.2205  0.0524
17791TIP3    H274865   4.268   5.810  11.897 -1.4710 -1.2356 -0.7031
17792TIP3   OH274866   1.828   2.831   4.933  0.1066  0.1281 -0.5405
17792TIP3    H174867   1.866   2.909   4.894 -0.3263 -0.4741 -2.1900
17792TIP3    H274868   1.827   2.766   4.862 -1.6815 -0.6448  0.1547
17793TIP3   OH274869   0.400   4.739   1.478  0.2616  0.3408 -0.0668
17793TIP3    H174870   0.392   4.835   1.481  2.3653  0.5061  1.7090
17793TIP3    H274871   0.396   4.712   1.570  0.2074 -1.2325 -0.5180
17794TIP3   OH274872   2.032   5.371   0.553 -0.0454  0.1985 -0.1089
17794TIP3    H174873   1.982   5.290   0.546 -0.4756  0.4374  0.1484
17794TIP3    H274874   2.036   5.388   0.647  1.1745 -0.2212 -0.0767
17795TIP3   OH274875   5.907   0.033  17.289  0.2313 -0.2816  0.0752
17795TIP3    H174876   5.873  -0.048  17.327 -0.7154  0.3159  0.5131
17795TIP3    H274877   5.963   0.003  17.217 -1.3444 -1.2870 -0.7819
17796TIP3   OH274878   6.521   5.472   5.609 -0.0884 -0.6875  0.4980
17796TIP3    H174879   6.466   5.526   5.552  0.2734 -0.1684  0.6310
17796TIP3    H274880   6.601   5.524   5.620 -1.0696  0.3098  3.3524
17797TIP3   OH274881   0.373   3.587  16.847  0.0790 -0.1557 -0.1283
17797TIP3    H174882   0.309   3.588  16.775  1.5189  0.0239 -1.4444
17797TIP3    H274883   0.385   3.679  16.869  1.0096 -0.0831 -0.9207
17798TIP3   OH274884   6.589   4.404   2.157 -0.3826  0.1050  0.6319
17798TIP3    H174885   6.504   4.443   2.178 -0.2424 -0.0753  1.5720
17798TIP3    H274886   6.652   4.460   2.201 -0.0210  0.1933 -0.0031
17799TIP3   OH274887   1.813   2.327  13.804  0.8155  0.0382 -0.2859
17799TIP3    H174888   1.721   2.335  13.829  0.8239 -2.7253  0.8381
17799TIP3    H274889   1.849   2.415  13.816 -0.9103  0.4187  2.5384
17800TIP3   OH274890   1.738   6.689  15.490  0.2829  0.0277 -0.1465
17800TIP3    H174891   1.710   6.644  15.570 -0.5854  1.7241  0.5103
17800TIP3    H274892   1.812   6.743  15.518 -0.1456  0.7730 -0.4399
17801TIP3   OH274893   2.971   4.689  14.950  0.1003 -0.4351  1.2240
17801TIP3    H174894   3.033   4.752  14.914 -0.8115  0.7151  1.6353
17801TIP3    H274895   3.024   4.613  14.972  1.0062 -0.3529 -0.5657
17802TIP3   OH274896   1.423   0.452  13.202 -0.0343 -0.0571 -0.0240
17802TIP3    H174897   1.361   0.498  13.145  0.5219 -0.2821 -0.8121
17802TIP3    H274898   1.486   0.519  13.229 -0.1052 -0.0235  0.0585
17803TIP3   OH274899   2.451   1.552  15.208  0.2212 -0.3146  0.8779
17803TIP3    H174900   2.457   1.643  15.179  0.1302 -0.2022  1.2112
17803TIP3    H274901   2.400   1.556  15.289 -2.9502 -1.0563 -1.0121
17804TIP3   OH274902   3.658   6.620  12.642 -0.8730  0.0639  0.5472
17804TIP3    H174903   3.694   6.699  12.601  0.3883 -0.7937 -0.0252
17804TIP3    H274904   3.729   6.589  12.699 -1.3514 -0.6836  0.7378
17805TIP3   OH274905   0.603   1.045   6.167 -0.3313  0.4445  0.2484
17805TIP3    H174906   0.537   1.048   6.098 -1.4832  1.3995  1.3723
17805TIP3    H274907   0.619   0.952   6.180 -1.3088  0.2089 -0.1707
17806TIP3   OH274908   3.285   2.563   1.838  0.5984  0.2012  0.0781
17806TIP3    H174909   3.278   2.470   1.859  0.7714 -0.5782 -3.0371
17806TIP3    H274910   3.380   2.578   1.830  0.5582  0.5838  0.3148
17807TIP3   OH274911   2.262   5.420   3.588 -0.3083  0.0085 -0.1683
17807TIP3    H174912   2.357   5.417   3.595 -0.3746 -1.8234  0.1534
17807TIP3    H274913   2.245   5.429   3.494  0.1662 -0.6078 -0.3129
17808TIP3   OH274914   3.977   4.331  17.211 -0.3477 -0.1939  0.2406
17808TIP3    H174915   3.888   4.353  17.239 -1.0027  0.2599 -2.0827
17808TIP3    H274916   3.966   4.257  17.153  0.9386 -0.8845  0.8524
17809TIP3   OH274917   3.714   2.059  16.228  0.3070 -0.1660 -0.0191
17809TIP3    H174918   3.625   2.060  16.263  0.2188 -0.8371 -0.2072
17809TIP3    H274919   3.702   2.043  16.134  0.6574 -1.1921  0.0992
17810TIP3   OH274920   6.087   1.936  13.192 -0.0487  0.1501 -0.3663
17810TIP3    H174921   6.001   1.901  13.170  0.4070 -0.4723 -1.2079
17810TIP3    H274922   6.114   1.887  13.269 -0.7014  0.7622  0.2542
17811TIP3   OH274923   2.839   2.321  16.275 -0.5496 -0.4494 -0.2306
17811TIP3    H174924   2.749   2.290  16.286 -0.7870  0.3395  0.1306
17811TIP3    H274925   2.858   2.367  16.357 -0.1989  0.3210 -0.7412
17812TIP3   OH274926   5.224   4.953   3.181  0.3152 -0.9727 -0.0376
17812TIP3    H174927   5.164   4.881   3.198 -0.5189 -0.6594 -1.5237
17812TIP3    H274928   5.288   4.949   3.252 -0.2561 -2.5994  0.4019
17813TIP3   OH274929   1.570   0.759   2.581  0.5200  0.0832  0.2110
17813TIP3    H174930   1.480   0.749   2.610 -0.0784  1.6390 -1.0064
17813TIP3    H274931   1.575   0.711   2.498 -0.0925  2.5900 -1.3436
17814TIP3   OH274932   4.038   6.784   0.468 -0.2736 -0.4880  0.2470
17814TIP3    H174933   4.105   6.732   0.423  0.3451  1.0794 -0.7150
17814TIP3    H274934   4.089   6.849   0.517 -1.0336 -0.6706  1.2780
17815TIP3   OH274935   0.354   0.702   6.099  0.3689 -0.4335  0.4543
17815TIP3    H174936   0.306   0.628   6.062 -0.4456  0.3716 -0.1231
17815TIP3    H274937   0.371   0.677   6.190  1.5345 -2.0154 -0.1873
17816TIP3   OH274938   5.141   0.812   4.420 -0.0704 -0.4538  0.1059
17816TIP3    H174939   5.116   0.838   4.332 -0.0801 -1.2059 -0.1232
17816TIP3    H274940   5.064   0.831   4.474 -0.9237 -2.1123 -0.4721
17817TIP3   OH274941   3.013   5.428  13.855 -0.6043  0.1623  0.1023
17817TIP3    H174942   3.029   5.396  13.944 -0.0587 -0.4389 -0.2056
17817TIP3    H274943   3.065   5.370  13.799 -2.0520 -0.3630 -0.7387
17818TIP3   OH274944   4.786   4.308   2.916  0.0538 -0.6597  0.5360
17818TIP3    H174945   4.745   4.392   2.896  0.7143 -0.5794 -0.5600
17818TIP3    H274946   4.739   4.276   2.993  1.6215  1.9666  2.6480
17819TIP3   OH274947   6.750   1.834   3.242  0.3163 -0.3687 -0.2370
17819TIP3    H174948   6.802   1.881   3.177 -1.1452  0.9467 -0.5091
17819TIP3    H274949   6.795   1.852   3.325  0.2301  0.8747 -0.4440
17820TIP3   OH274950   6.435   3.613   1.528 -0.4663 -0.2393  0.2779
17820TIP3    H174951   6.488   3.543   1.567  0.0570  0.3671  0.6481
17820TIP3    H274952   6.399   3.661   1.602 -2.3649 -1.2452  0.0513
17821TIP3   OH274953   0.130   0.216   3.410 -0.4919  0.1386  0.6654
17821TIP3    H174954   0.221   0.201   3.384 -0.6478  0.8533 -0.3211
17821TIP3    H274955   0.108   0.301   3.372 -2.9567 -1.9575 -2.9319
17822TIP3   OH274956   4.152   0.376   6.770  0.0622  0.4610 -0.0535
17822TIP3    H174957   4.107   0.332   6.699  0.5977  0.2401 -0.2609
17822TIP3    H274958   4.241   0.391   6.737  0.1609  0.8307  0.3671
17823TIP3   OH274959   5.772   6.016   5.859 -0.5446 -0.9686 -0.3262
17823TIP3    H174960   5.686   6.057   5.850  0.5138  1.0123 -1.5361
17823TIP3    H274961   5.786   6.010   5.954 -2.4216 -2.2145 -0.1008
17824TIP3   OH274962   0.576   4.421  13.648 -0.2110 -0.4260 -0.5680
17824TIP3    H174963   0.601   4.329  13.651 -0.2959 -0.4312  0.0483
17824TIP3    H274964   0.509   4.426  13.579 -1.1635 -1.0610  0.3023
17825TIP3   OH274965   4.991   4.450  15.569 -0.1229  0.0831  0.1106
17825TIP3    H174966   5.067   4.393  15.580  0.6031  0.4545 -2.6417
17825TIP3    H274967   4.922   4.392  15.539 -0.4890  0.0132  1.0780
17826TIP3   OH274968   5.861   1.294   1.794 -0.1036  0.6580  0.5177
17826TIP3    H174969   5.923   1.365   1.811  0.1069  0.7043 -0.4214
17826TIP3    H274970   5.797   1.332   1.735 -1.7908  1.0056  2.5033
17827TIP3   OH274971   2.660   5.524  16.213 -0.2569 -0.3022  0.4184
17827TIP3    H174972   2.751   5.547  16.231 -0.6955  0.4400  1.7609
17827TIP3    H274973   2.659   5.428  16.214  0.1299 -0.2962  2.4045
17828TIP3   OH274974   6.318   4.604   5.577 -0.1119  0.3706  0.5838
17828TIP3    H174975   6.245   4.589   5.516  0.4759  1.5411 -0.4396
17828TIP3    H274976   6.308   4.695   5.604 -0.0737  0.0027  1.8773
17829TIP3   OH274977   2.486   4.754  17.091  0.4793  0.0445 -0.1775
17829TIP3    H174978   2.553   4.793  17.146  2.6162 -2.2166 -1.0846
17829TIP3    H274979   2.460   4.825  17.031  2.1574  0.9050  0.0876
17830TIP3   OH274980   5.499   6.399  11.132 -0.0314  0.1542  0.0062
17830TIP3    H174981   5.478   6.378  11.041  0.5107 -0.0577 -0.0696
17830TIP3    H274982   5.470   6.323  11.182  0.6676 -0.1940 -0.1132
17831TIP3   OH274983   1.011   5.383  12.374  0.2260  0.0105 -0.3167
17831TIP3    H174984   0.933   5.410  12.325 -0.1083 -2.8444 -1.4365
17831TIP3    H274985   1.084   5.417  12.322 -0.2044  1.8207  0.2062
17832TIP3   OH274986   2.237   5.828  11.608 -0.4241  0.1646 -0.2012
17832TIP3    H174987   2.267   5.737  11.613 -1.4559 -0.1319  1.0698
17832TIP3    H274988   2.142   5.821  11.597 -0.1888  1.0950 -3.2635
17833TIP3   OH274989   2.423   1.573   2.060  0.3052  0.6865 -0.7873
17833TIP3    H174990   2.464   1.656   2.040  0.0572  0.5601 -1.8261
17833TIP3    H274991   2.329   1.592   2.064  0.3773  0.7986  0.7023
17834TIP3   OH274992   0.662   0.014  14.829  0.4988 -0.3139 -0.5028
17834TIP3    H174993   0.705  -0.052  14.883  1.3174  0.5981 -0.0258
17834TIP3    H274994   0.606   0.061  14.890  1.0237  0.3736 -0.5448
17835TIP3   OH274995   3.586   2.809  15.235  0.2611 -0.9459  0.1437
17835TIP3    H174996   3.643   2.744  15.275  1.4447  0.3898  0.6730
17835TIP3    H274997   3.533   2.842  15.308 -1.5828 -2.5229 -0.4238
17836TIP3   OH274998   0.330   5.374  14.006 -0.0501  0.6123 -0.7245
17836TIP3    H174999   0.337   5.457  13.960  1.9876  0.1524 -1.3070
17836TIP3    H275000   0.418   5.337  14.003 -0.4868 -0.7025  1.1619
17837TIP3   OH275001   0.760   0.178  11.483  0.4103  0.3480 -0.1355
17837TIP3    H175002   0.782   0.255  11.432 -0.2617 -0.8197 -2.2162
17837TIP3    H275003   0.669   0.157  11.459 -0.0249 -0.0512  1.7469
17838TIP3   OH275004   3.719   1.148  10.507 -0.4799 -0.0418 -0.7333
17838TIP3    H175005   3.777   1.215  10.472  1.1575 -1.2492 -0.3652
17838TIP3    H275006   3.705   1.088  10.434 -1.4118  0.3249 -0.8667
17839TIP3   OH275007   4.565   0.134   4.706 -0.3718  0.0713 -0.4795
17839TIP3    H175008   4.631   0.068   4.689 -0.4766  0.1373 -1.1457
17839TIP3    H275009   4.554   0.180   4.623  1.0151  2.1224  0.4059
17840TIP3   OH275010   1.279   3.238  12.528  0.2430  0.1749 -0.2232
17840TIP3    H175011   1.202   3.227  12.472  0.0150  0.2033  0.0804
17840TIP3    H275012   1.347   3.272  12.470 -0.0374  0.3569 -0.4444
17841TIP3   OH275013   5.583   2.768   4.699  0.0706 -0.3574  0.6518
17841TIP3    H175014   5.665   2.810   4.673 -1.3676  0.9335 -2.0125
17841TIP3    H275015   5.533   2.760   4.618 -3.0731  0.2747  2.4300
17842TIP3   OH275016   0.686   3.674   6.784  0.2424 -0.0302  0.3233
17842TIP3    H175017   0.777   3.694   6.760  0.8773 -0.9535  1.8993
17842TIP3    H275018   0.647   3.760   6.803  0.9946  0.3051  0.3828
17843TIP3   OH275019   2.049   6.794  14.548 -0.0611 -0.4767  0.1958
17843TIP3    H175020   2.099   6.730  14.498  2.0643  1.2193  0.0301
17843TIP3    H275021   2.066   6.771  14.640 -1.2867 -1.6109  0.1406
17844TIP3   OH275022   1.512   1.802   1.347 -0.1365 -0.0643 -0.6493
17844TIP3    H175023   1.469   1.843   1.422 -1.4549 -0.0544 -1.4105
17844TIP3    H275024   1.483   1.711   1.349  0.9115 -0.4047 -0.3585
17845TIP3   OH275025   5.232   0.933  16.642 -0.6540 -0.5507  0.2124
17845TIP3    H175026   5.222   0.872  16.569 -0.7667  0.6602 -0.8055
17845TIP3    H275027   5.183   1.011  16.615  0.9406  0.6590  0.7173
17846TIP3   OH275028   0.293   1.945  12.319  0.2872 -0.0729  0.0761
17846TIP3    H175029   0.371   1.969  12.370 -1.3853 -0.2339  2.8202
17846TIP3    H275030   0.321   1.870  12.267  2.3290  0.7129 -0.0157
17847TIP3   OH275031   3.736   2.603   0.498  0.0824 -0.5981 -0.1598
17847TIP3    H175032   3.672   2.647   0.442 -0.9521 -1.3590  0.4055
17847TIP3    H275033   3.722   2.640   0.585 -0.3240 -1.5290  0.1795
17848TIP3   OH275034   0.218   2.480  11.591  0.3413 -0.0524 -0.2503
17848TIP3    H175035   0.275   2.455  11.664 -0.9564  0.0354  0.7988
17848TIP3    H275036   0.238   2.416  11.523  0.0314 -1.4402  0.9431
17849TIP3   OH275037   6.215   4.308  12.379 -0.1049 -0.8708  0.2693
17849TIP3    H175038   6.193   4.234  12.322 -2.6136  0.4700 -0.6038
17849TIP3    H275039   6.261   4.369  12.321  1.6813 -1.5597  0.9136
17850TIP3   OH275040   5.262   5.725  15.235 -0.0628 -0.6002  0.3319
17850TIP3    H175041   5.182   5.690  15.273 -1.6154  1.1287 -1.2156
17850TIP3    H275042   5.256   5.820  15.248  1.5108 -0.3963 -0.2286
17851TIP3   OH275043   5.094   3.270  10.720 -0.4792 -0.1820  0.2774
17851TIP3    H175044   5.085   3.285  10.814  0.0853 -0.3510  0.3586
17851TIP3    H275045   5.031   3.330  10.680  0.9130  1.5529  0.6541
17852TIP3   OH275046   4.288   0.907  15.528 -0.3341  0.0212 -0.1319
17852TIP3    H175047   4.375   0.898  15.488  0.8211 -0.7096  2.4129
17852TIP3    H275048   4.233   0.843  15.483  0.5002  0.3461 -1.6312
17853TIP3   OH275049   6.323   4.135   2.867  0.1643 -0.1172 -0.1512
17853TIP3    H175050   6.266   4.165   2.938 -0.0200  2.8853 -1.4807
17853TIP3    H275051   6.310   4.041   2.863 -0.8276 -0.1527  2.9216
17854TIP3   OH275052   3.846   0.585   2.564 -1.1615 -0.6363 -0.6828
17854TIP3    H175053   3.913   0.584   2.496 -0.9103 -0.0863 -0.4457
17854TIP3    H275054   3.787   0.656   2.539 -1.2363 -0.6300 -0.4902
17855TIP3   OH275055   2.782   2.453  14.195 -0.5192 -0.3973  0.1171
17855TIP3    H175056   2.706   2.507  14.176 -1.2205 -1.3445  0.1801
17855TIP3    H275057   2.747   2.364  14.205  0.5692 -0.8239  0.2845
17856TIP3   OH275058   0.807   3.064   2.927  0.1371  0.0070 -0.1198
17856TIP3    H175059   0.740   3.128   2.952  0.2847 -0.2490  0.9943
17856TIP3    H275060   0.849   3.041   3.010  0.7594 -0.7776 -0.6483
17857TIP3   OH275061   4.975   3.115   2.252  0.7588 -0.0490  0.7424
17857TIP3    H175062   4.914   3.122   2.325 -0.5090 -2.4305 -0.0370
17857TIP3    H275063   4.925   3.141   2.175  1.8383  1.6183  0.5837
17858TIP3   OH275064   3.253   1.891  16.604 -0.5404 -0.8260  0.1016
17858TIP3    H175065   3.229   1.897  16.512 -1.1694 -0.6732  0.2780
17858TIP3    H275066   3.325   1.954  16.614 -1.3025  0.0745 -0.0077
17859TIP3   OH275067   3.096   6.419  15.410  0.6075  0.2063  0.1867
17859TIP3    H175068   3.023   6.457  15.360  1.4490  0.6146 -0.7466
17859TIP3    H275069   3.083   6.325  15.403  0.0046  0.2798  0.2650
17860TIP3   OH275070   0.060   5.208  11.019  0.2338 -0.2625  0.3203
17860TIP3    H175071   0.118   5.149  10.971  1.6125  1.8413 -0.6887
17860TIP3    H275072   0.093   5.296  10.998 -1.6060  0.8573  1.9692
17861TIP3   OH275073   4.536   5.776  16.787  0.1111 -0.1197  0.3529
17861TIP3    H175074   4.451   5.798  16.749  1.9515  0.6014 -3.5946
17861TIP3    H275075   4.529   5.682  16.806 -1.9052  0.1374  1.0504
17862TIP3   OH275076   2.119   0.969   0.008 -0.3969 -0.0284 -0.1135
17862TIP3    H175077   2.209   0.940  -0.008 -0.8482 -1.0645 -0.8082
17862TIP3    H275078   2.126   1.025   0.086  0.6765 -1.0358  0.5426
17863TIP3   OH275079   1.678   1.205  16.372 -0.0920  0.4116  0.0216
17863TIP3    H175080   1.586   1.215  16.399 -0.2256 -3.1519  1.0945
17863TIP3    H275081   1.728   1.240  16.445 -0.5692  2.0552 -0.4161
17864TIP3   OH275082   1.449   1.787  16.479 -0.3146 -0.2755 -0.2616
17864TIP3    H175083   1.483   1.713  16.428  0.2734  0.7741 -1.4377
17864TIP3    H275084   1.526   1.840  16.499 -0.9467  0.9935 -1.0770
17865TIP3   OH275085   1.289   3.775  14.130 -1.1652  0.9250 -0.6948
17865TIP3    H175086   1.233   3.836  14.178 -0.5537  1.2491 -0.3915
17865TIP3    H275087   1.264   3.688  14.162 -0.9385  1.1240  0.0173
17866TIP3   OH275088   2.145   1.236   1.222  0.2017 -0.0226 -0.4464
17866TIP3    H175089   2.122   1.158   1.271 -0.7828  0.4353 -0.1641
17866TIP3    H275090   2.158   1.206   1.132  2.4401 -0.9440  0.1313
17867TIP3   OH275091   3.702   6.469  13.886 -0.2734  0.2191  0.0343
17867TIP3    H175092   3.774   6.408  13.868 -0.8441 -0.3499 -0.3490
17867TIP3    H275093   3.728   6.512  13.968 -0.7004 -1.8529  1.3161
17868TIP3   OH275094   2.421   5.149  10.599 -0.2581  0.3257  0.4727
17868TIP3    H175095   2.457   5.237  10.603  1.1598 -0.1655 -0.8653
17868TIP3    H275096   2.447   5.108  10.682  1.4598  0.3041 -0.0505
17869TIP3   OH275097   6.640   6.290  10.662  1.1164 -0.0422 -0.5812
17869TIP3    H175098   6.580   6.320  10.594  0.1324  0.3782  0.4604
17869TIP3    H275099   6.583   6.245  10.725  1.2893  3.8266  2.4635
17870TIP3   OH275100   4.723   1.422  12.197 -0.2884  0.1958  0.2442
17870TIP3    H175101   4.709   1.328  12.209 -0.2173  0.3778  2.0135
17870TIP3    H275102   4.687   1.461  12.277 -0.7030  1.7161 -0.6585
17871TIP3   OH275103   1.879   3.531   1.199 -0.4394 -0.5784  0.5010
17871TIP3    H175104   1.887   3.554   1.106  1.2714 -0.2465  0.7304
17871TIP3    H275105   1.858   3.437   1.198  0.6175 -0.8148 -0.1900
17872TIP3   OH275106   6.560   2.844   5.356  0.0442 -0.1509  0.2924
17872TIP3    H175107   6.621   2.885   5.294 -0.3588  0.3426  0.2240
17872TIP3    H275108   6.574   2.750   5.344 -0.7170 -0.0859 -1.2339
17873TIP3   OH275109   1.703   1.682  16.685 -0.4349 -0.1161 -0.2155
17873TIP3    H175110   1.730   1.690  16.593  0.5003 -1.6386 -0.0875
17873TIP3    H275111   1.684   1.589  16.696 -0.2866  0.0166  1.2131
17874TIP3   OH275112   4.379   6.083  13.408  0.2119 -0.0916  0.0626
17874TIP3    H175113   4.411   6.171  13.430  0.0947 -0.5860  2.3292
17874TIP3    H275114   4.285   6.088  13.425 -0.0406 -0.2452 -1.2433
17875TIP3   OH275115   5.757   3.928   2.650 -0.2124 -0.1228  0.2091
17875TIP3    H175116   5.781   4.019   2.632 -0.0283 -0.0392  0.8593
17875TIP3    H275117   5.661   3.929   2.654 -0.1534  0.3766  1.8956
17876TIP3   OH275118   0.498   3.838  16.911  0.0747 -0.8028 -0.0532
17876TIP3    H175119   0.471   3.841  17.003 -0.0306  2.5673 -0.1217
17876TIP3    H275120   0.592   3.818  16.914 -0.1570 -1.8283  0.7116
17877TIP3   OH275121   3.216   1.104  16.470  0.1750 -0.8524 -0.5618
17877TIP3    H175122   3.122   1.102  16.489  0.0850 -0.3156 -0.9345
17877TIP3    H275123   3.222   1.145  16.384  0.8614  0.7125  0.2237
17878TIP3   OH275124   1.130   3.708   5.709  0.5798  0.1049  0.0110
17878TIP3    H175125   1.063   3.761   5.667 -0.6453 -1.0623  0.4375
17878TIP3    H275126   1.160   3.762   5.783 -1.3320 -0.1372  1.0171
17879TIP3   OH275127   1.486   4.638  13.513  0.1003 -0.1302 -0.2298
17879TIP3    H175128   1.564   4.664  13.561 -0.7224  1.5364  0.2516
17879TIP3    H275129   1.518   4.587  13.439  1.7279  1.6970 -0.7994
17880TIP3   OH275130   5.324   3.389  12.418 -0.3836 -0.2622  0.0686
17880TIP3    H175131   5.345   3.423  12.505  0.2432 -0.4281 -0.0112
17880TIP3    H275132   5.360   3.454  12.358 -0.8698 -0.1181 -0.0672
17881TIP3   OH275133   6.572   6.149  12.461 -0.5108 -0.0016  0.6933
17881TIP3    H175134   6.639   6.143  12.528 -1.0044  0.3915  1.2332
17881TIP3    H275135   6.500   6.094  12.493 -1.3705  1.4103  1.2482
17882TIP3   OH275136   5.330   4.656  12.113 -0.3242  0.8204 -0.0872
17882TIP3    H175137   5.244   4.616  12.101 -0.7516  1.4012  0.9873
17882TIP3    H275138   5.390   4.599  12.064 -0.9666 -0.9379  1.1375
17883TIP3   OH275139   1.804   3.143  14.748 -0.3155 -0.0472 -0.3200
17883TIP3    H175140   1.808   3.070  14.687  1.2217  0.0144 -0.3132
17883TIP3    H275141   1.840   3.108  14.830  1.5092  1.0055 -0.6350
17884TIP3   OH275142   4.797   5.395  12.997  0.0539  0.3077 -0.9284
17884TIP3    H175143   4.868   5.452  13.025  0.7203 -0.6495 -0.6345
17884TIP3    H275144   4.822   5.366  12.909  0.4697 -0.7153 -0.4857
17885TIP3   OH275145   1.331   5.476   5.889  0.3519 -0.4752  0.4852
17885TIP3    H175146   1.339   5.530   5.967  3.2318 -1.0281  0.6413
17885TIP3    H275147   1.418   5.480   5.848 -0.7727 -1.1148 -2.0768
17886TIP3   OH275148   3.987   1.224  17.284  0.3232  0.0468 -0.3723
17886TIP3    H175149   3.997   1.260  17.372  1.4014  0.2544 -0.5693
17886TIP3    H275150   3.913   1.272  17.247  1.2409  1.5241 -0.3461
17887TIP3   OH275151   6.528   6.220  10.911 -0.2223 -0.1169  0.8382
17887TIP3    H175152   6.498   6.129  10.913  1.3495 -0.6271  1.3761
17887TIP3    H275153   6.455   6.269  10.949 -1.0802 -1.1461  0.5554
17888TIP3   OH275154   3.252   3.155   6.198  0.0011  0.2063  0.3376
17888TIP3    H175155   3.327   3.204   6.232  0.7939 -1.2321  0.6770
17888TIP3    H275156   3.186   3.160   6.267  0.1840  0.5583  0.4871
17889TIP3   OH275157   3.957   3.026  10.826 -0.2929  0.3397 -0.0981
17889TIP3    H175158   3.955   3.093  10.758 -0.9768 -0.3683 -0.7930
17889TIP3    H275159   3.903   2.955  10.791 -0.2352 -0.2415  0.9688
17890TIP3   OH275160   1.370   2.904   1.115  0.5336 -0.0880  0.0312
17890TIP3    H175161   1.416   2.843   1.172  0.6549 -0.1155 -0.0949
17890TIP3    H275162   1.386   2.990   1.155 -1.2444 -0.3185  1.2870
17891TIP3   OH275163   2.668   4.860  12.023  0.5035  0.0531  0.2756
17891TIP3    H175164   2.599   4.874  12.088 -0.7946 -0.2783 -0.9982
17891TIP3    H275165   2.741   4.913  12.054 -0.8755  1.7178  0.7969
17892TIP3   OH275166   1.537   3.964   1.849 -0.4379 -0.7957 -0.2721
17892TIP3    H175167   1.444   3.967   1.869 -0.0528  1.3758  1.4078
17892TIP3    H275168   1.558   4.052   1.816  1.3411 -0.6780  1.0572
17893TIP3   OH275169   4.515   5.019   2.125 -0.5220 -0.1329  0.2171
17893TIP3    H175170   4.586   5.083   2.122 -1.6934  1.3500  2.6722
17893TIP3    H275171   4.458   5.041   2.052 -0.2774  0.8753  0.3266
17894TIP3   OH275172   2.410   5.067   3.661 -0.1840  0.4757 -0.4328
17894TIP3    H175173   2.413   5.116   3.579  0.5815 -0.8902 -1.2473
17894TIP3    H275174   2.423   4.976   3.635  1.0620  0.1214  1.3028
17895TIP3   OH275175   0.415   5.858   3.894 -0.3071 -0.3346  0.7271
17895TIP3    H175176   0.485   5.892   3.839 -0.4069 -1.5316 -0.1809
17895TIP3    H275177   0.458   5.794   3.951 -0.6904 -1.3633 -0.1021
17896TIP3   OH275178   3.871   6.254  16.230 -0.1887 -0.3730  0.6137
17896TIP3    H175179   3.965   6.243  16.241  0.1090 -0.9452 -2.1787
17896TIP3    H275180   3.860   6.346  16.205 -0.2277 -0.6203 -0.3063
17897TIP3   OH275181   3.216   1.512   1.701  0.2846  0.3951  0.1750
17897TIP3    H175182   3.227   1.550   1.614 -0.3131 -0.3982 -0.2541
17897TIP3    H275183   3.251   1.578   1.761  0.3409  1.1109 -0.6396
17898TIP3   OH275184   6.615   1.969   4.918 -0.4060  0.1862 -0.0777
17898TIP3    H175185   6.684   2.032   4.935  0.1696 -0.3441 -0.4203
17898TIP3    H275186   6.539   2.003   4.965  0.1653  0.6171  0.5380
17899TIP3   OH275187   0.579   5.751   2.775 -0.0273  0.1773 -0.0555
17899TIP3    H175188   0.597   5.658   2.761 -1.8064 -0.0359 -1.0645
17899TIP3    H275189   0.485   5.755   2.795  0.2382  1.6520  0.9962
17900TIP3   OH275190   5.487   0.902  11.290 -0.3745 -0.1110 -0.1702
17900TIP3    H175191   5.551   0.887  11.359  2.4147  0.7184 -2.4784
17900TIP3    H275192   5.500   0.830  11.228  0.1514  1.4391 -1.9291
17901TIP3   OH275193   0.833   1.998  12.519 -0.3399 -0.4566 -0.5082
17901TIP3    H175194   0.890   1.949  12.459 -3.4110 -1.6803 -2.5891
17901TIP3    H275195   0.831   2.086  12.483 -2.3262 -1.2359 -2.3908
17902TIP3   OH275196   4.998   3.353  16.664 -0.2794 -0.2179  0.5835
17902TIP3    H175197   4.996   3.402  16.746 -1.7238  0.8290 -0.0600
17902TIP3    H275198   4.968   3.265  16.688 -2.5425  0.5999  0.8627
17903TIP3   OH275199   5.168   4.330   3.177 -0.4699 -0.1026 -0.1428
17903TIP3    H175200   5.160   4.423   3.156 -2.6309 -0.8354 -2.9063
17903TIP3    H275201   5.136   4.322   3.267  1.4881  2.0499  0.7798
17904TIP3   OH275202   6.113   5.546  13.669  0.3131 -0.2075  0.4619
17904TIP3    H175203   6.175   5.517  13.602  1.5141  2.9885  0.1148
17904TIP3    H275204   6.161   5.537  13.752  1.9260  3.7716  0.0517
17905TIP3   OH275205   0.060   1.382   1.370  0.1713  0.0626  0.2889
17905TIP3    H175206  -0.002   1.314   1.342  1.4370 -0.9907 -0.0019
17905TIP3    H275207   0.079   1.432   1.290  1.5976 -1.1761 -0.1755
17906TIP3   OH275208   1.925   2.570   5.788  0.2253  0.1209  0.9440
17906TIP3    H175209   1.979   2.647   5.766 -0.6266 -0.4269 -3.4875
17906TIP3    H275210   1.976   2.496   5.757 -0.4939 -0.8587  2.0817
17907TIP3   OH275211   2.638   2.254   0.015  0.3600 -0.7677 -0.3093
17907TIP3    H175212   2.585   2.334   0.014 -0.3806 -1.2407  0.1624
17907TIP3    H275213   2.587   2.191  -0.035  0.5878 -1.1534 -0.0571
17908TIP3   OH275214   0.255   4.964  15.976  0.4941 -0.2739  0.4027
17908TIP3    H175215   0.323   4.898  15.966  0.3098 -0.6932  1.8241
17908TIP3    H275216   0.258   4.988  16.069 -3.0173 -2.2197  1.1108
17909TIP3   OH275217   5.609   0.628   5.119 -0.3409 -0.0352 -0.3653
17909TIP3    H175218   5.559   0.550   5.140  0.7135 -0.5743  0.2024
17909TIP3    H275219   5.674   0.635   5.189  0.1634  0.8281 -0.9027
17910TIP3   OH275220   4.049   1.634  11.280  0.0730  0.1127 -0.5553
17910TIP3    H175221   4.027   1.707  11.222  0.8146  0.3508 -0.5346
17910TIP3    H275222   3.965   1.588  11.294 -0.3390  0.7980 -0.7807
17911TIP3   OH275223   0.050   6.463  14.245 -0.1617  0.0117 -0.1018
17911TIP3    H175224   0.085   6.552  14.256 -2.1102  0.7598  0.3485
17911TIP3    H275225   0.127   6.407  14.238  1.0882  1.8178 -1.0156
17912TIP3   OH275226   3.772   2.040   6.331 -0.2503 -0.5604 -0.0471
17912TIP3    H175227   3.781   2.136   6.328 -0.4939 -0.5741 -1.6605
17912TIP3    H275228   3.681   2.024   6.306 -0.1111 -1.2322 -0.1165
17913TIP3   OH275229   6.332   4.305   2.643  0.7510  0.3085 -0.1718
17913TIP3    H175230   6.309   4.247   2.570  1.8542 -0.8951  0.4122
17913TIP3    H275231   6.332   4.248   2.720  0.6487  1.3467  0.6108
17914TIP3   OH275232   5.299   4.994  11.362 -0.0348  0.0323  0.3691
17914TIP3    H175233   5.228   4.942  11.400  1.4911 -2.4675 -0.0400
17914TIP3    H275234   5.377   4.938  11.372  1.5107  1.9127 -0.8697
17915TIP3   OH275235   1.489   3.543  12.199  0.0807 -0.3589 -0.0874
17915TIP3    H175236   1.531   3.483  12.138  0.1043 -3.1149  2.5350
17915TIP3    H275237   1.397   3.517  12.199 -0.0194 -0.0132  0.6604
17916TIP3   OH275238   3.871   0.360  11.453  0.6235  0.2577  0.0071
17916TIP3    H175239   3.812   0.396  11.519  0.3078  0.2947 -0.2966
17916TIP3    H275240   3.867   0.422  11.381 -0.6296 -0.8522 -0.8970
17917TIP3   OH275241   1.879   2.183  11.703  0.8304  0.4441 -0.3273
17917TIP3    H175242   1.810   2.163  11.640  1.4925 -2.4915 -0.1898
17917TIP3    H275243   1.833   2.218  11.779 -0.3838 -0.2442 -0.7384
17918TIP3   OH275244   6.782   5.367   0.454 -0.3475  0.0887 -0.5330
17918TIP3    H175245   6.738   5.450   0.435  1.2257  1.9279  3.2802
17918TIP3    H275246   6.859   5.367   0.397 -0.5238  1.1314 -0.7800
17919TIP3   OH275247   3.731   3.877  14.565  0.0416  0.0777  0.6337
17919TIP3    H175248   3.733   3.904  14.474  1.2512 -0.1348  0.5979
17919TIP3    H275249   3.764   3.952  14.614  1.8481 -0.7143  0.6709
17920TIP3   OH275250   3.793   4.451  15.898  0.2196  0.0775 -0.5420
17920TIP3    H175251   3.838   4.414  15.974  0.1894 -0.3955 -0.7519
17920TIP3    H275252   3.863   4.484  15.842  0.1833  1.5798  0.2784
17921TIP3   OH275253   1.238   0.905   0.686  0.5808 -0.0320  0.0590
17921TIP3    H175254   1.206   0.838   0.745  1.5411 -0.2194  0.3686
17921TIP3    H275255   1.222   0.988   0.732  1.9146 -0.2126  0.8712
17922TIP3   OH275256   6.369   1.165   5.270 -0.1480 -0.4775 -0.2145
17922TIP3    H175257   6.282   1.195   5.295  0.7401  0.2836  2.0609
17922TIP3    H275258   6.381   1.084   5.320  0.2260 -0.9075 -0.9950
17923TIP3   OH275259   2.279   4.540  13.092  0.1535 -0.3167  0.0418
17923TIP3    H175260   2.366   4.537  13.053  0.1833  0.1404  0.0646
17923TIP3    H275261   2.294   4.566  13.183  0.0389 -0.8213  0.2070
17924TIP3   OH275262   6.178   5.628  15.449  0.3385 -0.0824  0.1979
17924TIP3    H175263   6.125   5.665  15.378 -1.0924 -0.2619  1.1530
17924TIP3    H275264   6.114   5.593  15.510  1.5709 -0.0904  1.4971
17925TIP3   OH275265   3.831   5.664  15.719 -0.6132 -0.5661 -0.6044
17925TIP3    H175266   3.897   5.678  15.787 -0.2447 -1.9187 -0.6686
17925TIP3    H275267   3.819   5.750  15.680  3.0091 -0.7348 -2.2966
17926TIP3   OH275268   4.306   4.169  16.914  0.0162 -0.3654  0.3762
17926TIP3    H175269   4.318   4.128  16.828  0.1285 -0.9409  0.6561
17926TIP3    H275270   4.294   4.095  16.974 -0.2484  0.0377  0.8278
17927TIP3   OH275271   2.973   2.043  16.361  0.1281 -0.2784  0.0147
17927TIP3    H175272   2.919   2.010  16.433  0.2595  2.8740  1.6491
17927TIP3    H275273   2.918   2.107  16.317  0.9708 -0.3003 -1.1031
17928TIP3   OH275274   5.577   4.989  14.091  0.1072 -0.1660  0.1353
17928TIP3    H175275   5.496   4.940  14.106 -1.7141  3.2170  1.8662
17928TIP3    H275276   5.562   5.033  14.008  0.8359 -0.7615 -0.3149
17929TIP3   OH275277   0.727   6.594   0.114 -0.1649 -0.1558 -0.0785
17929TIP3    H175278   0.643   6.633   0.088 -0.2519  0.0397  0.4733
17929TIP3    H275279   0.703   6.529   0.180  0.2309  0.8189  1.0334
17930TIP3   OH275280   6.460   3.109   4.012  0.1349  0.5775  0.2529
17930TIP3    H175281   6.436   3.169   4.083  0.5658 -0.3880  1.2249
17930TIP3    H275282   6.488   3.029   4.057  0.0435 -0.1761 -1.0242
17931TIP3   OH275283   4.057   5.268   3.706 -0.4084 -0.4934  0.0341
17931TIP3    H175284   4.060   5.228   3.619 -1.3029  1.4238 -0.8906
17931TIP3    H275285   4.129   5.331   3.706  0.6666 -1.6705  1.3107
17932TIP3   OH275286   4.287   3.841  14.366 -0.5895  0.1833  0.0623
17932TIP3    H175287   4.252   3.782  14.432  0.2464 -0.2677  0.1069
17932TIP3    H275288   4.216   3.850  14.302 -1.4282  0.6794  1.0457
17933TIP3   OH275289   2.898   0.957  11.266 -0.2931  0.5501 -0.6199
17933TIP3    H175290   2.885   1.033  11.321 -1.2137  0.1874 -0.3284
17933TIP3    H275291   2.875   0.987  11.178 -1.2380  0.4617 -0.4158
17934TIP3   OH275292   1.230   4.446   1.863 -0.1389  0.0085 -0.2988
17934TIP3    H175293   1.298   4.454   1.929 -1.0989 -0.8776  0.7969
17934TIP3    H275294   1.241   4.525   1.809  1.2642  0.2454  0.3076
17935TIP3   OH275295   6.095   5.513   5.629  0.1646 -0.0443 -0.0487
17935TIP3    H175296   6.041   5.486   5.703 -0.5366  1.4748  0.0191
17935TIP3    H275297   6.180   5.471   5.644 -0.3586 -0.7499  0.9512
17936TIP3   OH275298   6.119   3.430   5.640 -0.0983 -0.7655  0.3633
17936TIP3    H175299   6.056   3.406   5.708 -1.0289  3.4196  1.1316
17936TIP3    H275300   6.068   3.438   5.560  0.1233 -0.8918  0.2058
17937TIP3   OH275301   3.123   2.842  13.753  0.0572  0.2954  0.2405
17937TIP3    H175302   3.103   2.749  13.750  0.7687  0.1551 -0.2638
17937TIP3    H275303   3.216   2.848  13.729  0.3784  1.0103  1.5857
17938TIP3   OH275304   4.671   6.341   2.408 -0.5039  0.6063  0.4343
17938TIP3    H175305   4.641   6.413   2.352 -1.4448 -0.4029 -0.3938
17938TIP3    H275306   4.590   6.297   2.435 -0.1410  1.6820  3.4558
17939TIP3   OH275307   4.564   4.243  16.540 -0.6547  0.3115 -0.0975
17939TIP3    H175308   4.607   4.242  16.626  0.3901 -2.1668 -0.6114
17939TIP3    H275309   4.592   4.325  16.500  1.9694 -0.3199  0.3808
17940TIP3   OH275310   3.976   1.166   5.586  0.3665  0.3353 -0.0410
17940TIP3    H175311   3.885   1.191   5.575  0.1816 -0.8322 -1.2870
17940TIP3    H275312   3.994   1.182   5.678 -0.9668  0.9831  0.1200
17941TIP3   OH275313   1.091   1.251   5.885  0.7512  0.1130 -0.0676
17941TIP3    H175314   1.100   1.273   5.978  1.2339  0.0633 -0.1032
17941TIP3    H275315   1.032   1.175   5.884  1.3798 -0.3816  0.2498
17942TIP3   OH275316   3.096   4.611   6.431 -0.6765  0.8300  0.2155
17942TIP3    H175317   3.057   4.526   6.413 -1.6084  1.1510  0.7233
17942TIP3    H275318   3.023   4.667   6.455 -0.1695  1.9918 -0.8953
17943TIP3   OH275319   2.658   3.324  11.871 -0.6535  0.3768  0.0216
17943TIP3    H175320   2.691   3.338  11.783 -1.9321 -0.5305 -0.6193
17943TIP3    H275321   2.658   3.411  11.911  0.8237  0.6464 -0.5434
17944TIP3   OH275322   1.750   0.902  16.211 -0.0982 -0.4615  0.2231
17944TIP3    H175323   1.685   0.882  16.279  1.5431 -2.2731  1.3296
17944TIP3    H275324   1.835   0.886  16.254  1.0688  1.4796 -1.3024
17945TIP3   OH275325   2.001   3.200  12.734  0.5212  0.0238  0.3780
17945TIP3    H175326   1.958   3.203  12.820 -0.6708  1.3103 -0.2508
17945TIP3    H275327   2.095   3.197  12.754  0.1861 -2.6335  1.7774
17946TIP3   OH275328   6.073   6.763   1.589 -0.0805  0.1483 -0.0027
17946TIP3    H175329   6.131   6.757   1.665 -0.1376 -2.1432 -0.1131
17946TIP3    H275330   6.118   6.715   1.520 -1.4434 -0.4558 -0.4953
17947TIP3   OH275331   4.479   6.574  12.844  0.4093 -0.6469 -0.4009
17947TIP3    H175332   4.520   6.568  12.931 -0.1107  0.4677 -0.0647
17947TIP3    H275333   4.386   6.581  12.862  0.4414  1.7504 -0.9201
17948TIP3   OH275334   0.096   2.923   6.541  0.0423 -0.1867  0.2542
17948TIP3    H175335   0.055   3.000   6.581 -0.9407  0.2962 -1.5933
17948TIP3    H275336   0.024   2.860   6.533  0.2372 -0.2951 -0.6690
17949TIP3   OH275337   4.302   1.960  11.806 -0.4613  0.8274 -0.0717
17949TIP3    H175338   4.342   1.882  11.766 -0.6120  0.8058 -0.1790
17949TIP3    H275339   4.224   1.928  11.849  0.1470  0.7125  0.9597
17950TIP3   OH275340   1.882   3.008   2.090  0.1859  0.0135 -0.6760
17950TIP3    H175341   1.922   3.094   2.099  0.6171 -0.2169 -0.3515
17950TIP3    H275342   1.789   3.025   2.078  0.4630  0.5799 -2.0730
17951TIP3   OH275343   3.505   6.245   4.068  0.6268 -0.0109 -0.5809
17951TIP3    H175344   3.491   6.219   3.977  0.1428  0.4043 -0.6277
17951TIP3    H275345   3.530   6.164   4.113 -1.4053 -0.6694 -0.6055
17952TIP3   OH275346   4.533   6.551  16.499  0.1920  0.3092  0.5472
17952TIP3    H175347   4.531   6.556  16.404 -2.2233 -1.0550  0.4774
17952TIP3    H275348   4.623   6.528  16.521  0.9084  1.2210 -1.3499
17953TIP3   OH275349   2.732   1.393  12.986  0.0392 -0.5807 -0.3048
17953TIP3    H175350   2.734   1.478  13.030 -0.4160  0.2635 -1.8621
17953TIP3    H275351   2.813   1.391  12.935 -0.7321 -0.3739 -1.5446
17954TIP3   OH275352   5.686   3.167   6.127 -0.6551 -0.2588  0.3931
17954TIP3    H175353   5.690   3.196   6.036 -0.9955 -1.5037 -0.0184
17954TIP3    H275354   5.639   3.238   6.172 -1.6149 -0.2328 -0.6321
17955TIP3   OH275355   3.961   3.917   3.808  0.6517  0.5592  0.2513
17955TIP3    H175356   3.987   3.901   3.899 -0.6977  1.1399  0.7479
17955TIP3    H275357   3.993   4.005   3.789  2.0346 -0.0313 -0.2626
17956TIP3   OH275358   5.489   4.878   0.858 -0.0908 -0.2677  0.8627
17956TIP3    H175359   5.543   4.854   0.933  0.6455 -0.4452  0.2794
17956TIP3    H275360   5.415   4.817   0.861 -0.1155 -0.2063  1.4989
17957TIP3   OH275361   2.432   4.687  16.583 -0.1664  0.2779 -0.0065
17957TIP3    H175362   2.424   4.610  16.638  0.7691 -0.4944 -0.9390
17957TIP3    H275363   2.509   4.733  16.617  1.2711 -0.9487 -1.5617
17958TIP3   OH275364   0.976   1.422  15.385  0.7476  0.1006 -0.3492
17958TIP3    H175365   0.948   1.489  15.446  1.3499  0.4222 -0.4187
17958TIP3    H275366   0.911   1.352  15.394 -0.5126  1.1556 -1.0976
17959TIP3   OH275367   6.374   3.259   0.758 -0.4700 -0.1862  0.3691
17959TIP3    H175368   6.340   3.170   0.768  0.4195 -0.4204  1.3429
17959TIP3    H275369   6.440   3.252   0.689 -0.1971 -0.3285  0.6486
17960TIP3   OH275370   6.264   6.709  13.714  0.0773  0.0187 -0.3757
17960TIP3    H175371   6.265   6.739  13.804 -1.6971  0.3117 -0.4270
17960TIP3    H275372   6.351   6.673  13.699  0.8878  1.4059  0.9512
17961TIP3   OH275373   2.827   0.619   5.532  0.1165  0.5451  0.0771
17961TIP3    H175374   2.739   0.617   5.569 -1.0544 -2.4275 -2.6251
17961TIP3    H275375   2.877   0.559   5.586 -0.6319 -0.9311 -0.8272
17962TIP3   OH275376   5.666   2.086   4.138  0.5483  0.1153  0.1319
17962TIP3    H175377   5.594   2.047   4.089  0.3824 -1.0295  1.2605
17962TIP3    H275378   5.643   2.178   4.147 -0.9839 -0.3289  0.8369
17963TIP3   OH275379   3.586   5.617  15.866  0.3916 -0.0568 -0.5351
17963TIP3    H175380   3.506   5.664  15.840 -0.1430 -0.8601 -0.3835
17963TIP3    H275381   3.645   5.627  15.792  0.2140  0.7145 -0.5734
17964TIP3   OH275382   4.556   0.482  16.716 -0.1473  0.4218  0.1979
17964TIP3    H175383   4.540   0.480  16.810 -1.6643  1.1167 -0.0349
17964TIP3    H275384   4.547   0.575  16.692  0.4173  0.2756 -0.5966
17965TIP3   OH275385   4.151   6.183  14.182  0.0257  0.2677 -0.0505
17965TIP3    H175386   4.206   6.243  14.232 -0.1851  0.5859 -0.2014
17965TIP3    H275387   4.207   6.151  14.111 -0.1898  1.1165 -0.6073
17966TIP3   OH275388   1.605   4.710  14.044  0.0892  0.4903  0.0737
17966TIP3    H175389   1.581   4.762  13.967 -0.2964  1.3428  0.7579
17966TIP3    H275390   1.658   4.770  14.097  0.6207 -0.1992  0.3212
17967TIP3   OH275391   1.285   5.192   4.148 -0.4247 -0.3583 -0.2027
17967TIP3    H175392   1.340   5.253   4.099 -2.1889  0.3894 -1.3231
17967TIP3    H275393   1.305   5.106   4.111 -0.2162 -0.0522 -0.8084
17968TIP3   OH275394   5.374   6.056  13.937 -0.1097  0.1437  0.4056
17968TIP3    H175395   5.335   5.972  13.964 -1.3114  0.2184 -1.0688
17968TIP3    H275396   5.315   6.122  13.973 -0.3458  0.2985 -0.2592
17969TIP3   OH275397   5.355   4.979  11.049 -0.0497  0.1470 -0.3350
17969TIP3    H175398   5.356   5.028  10.967 -0.7010 -1.0519 -1.0779
17969TIP3    H275399   5.262   4.973  11.072  0.1982  1.2671  0.9791
17970TIP3   OH275400   1.216   1.484  14.873  0.2405 -0.6250 -0.2373
17970TIP3    H175401   1.145   1.518  14.928 -0.0754 -1.5818 -0.0496
17970TIP3    H275402   1.196   1.391  14.862  0.8116 -0.6482 -1.1901
17971TIP3   OH275403   1.813   2.255   3.253  0.6092 -0.1051  0.5750
17971TIP3    H175404   1.733   2.257   3.200  0.6522  1.2222  0.5519
17971TIP3    H275405   1.864   2.183   3.216  0.2745  0.2767 -0.6583
17972TIP3   OH275406   5.083   2.260   2.011 -0.2648  0.4967  0.3254
17972TIP3    H175407   5.032   2.330   1.969 -2.1007 -1.4637 -0.8472
17972TIP3    H275408   5.073   2.275   2.104 -3.1703  0.1266  0.1330
17973TIP3   OH275409   5.113   2.937   2.851  0.0991  0.8218  0.8590
17973TIP3    H175410   5.174   2.930   2.925  0.4896 -0.8872  0.3969
17973TIP3    H275411   5.111   2.849   2.813 -0.0256  1.7074 -1.2459
17974TIP3   OH275412   1.572   2.674   2.253  0.3377  0.0032 -0.1974
17974TIP3    H175413   1.595   2.589   2.215  0.7744  0.0922 -0.1298
17974TIP3    H275414   1.655   2.721   2.260  0.2790 -0.0409  0.9402
17975TIP3   OH275415   6.183   6.235   5.218 -0.1914  0.3301  0.2340
17975TIP3    H175416   6.220   6.163   5.269  2.6056  3.3707  2.7279
17975TIP3    H275417   6.090   6.234   5.241 -0.7651 -3.9618 -1.7679
17976TIP3   OH275418   5.232   3.799  13.532  0.0219 -0.1621  0.2955
17976TIP3    H175419   5.265   3.843  13.454 -0.4660  1.3826  0.9387
17976TIP3    H275420   5.140   3.826  13.538 -0.1653 -0.9185  0.9511
17977TIP3   OH275421   5.311   6.675  12.412 -0.1268 -0.4506 -0.0647
17977TIP3    H175422   5.397   6.662  12.452 -0.5201  0.2553  1.0388
17977TIP3    H275423   5.328   6.730  12.336  0.1671  1.3286  1.2562
17978TIP3   OH275424   0.614   1.483  13.392  0.0369  0.0587  0.3104
17978TIP3    H175425   0.653   1.541  13.459 -0.8652  0.8946  0.1208
17978TIP3    H275426   0.616   1.535  13.312 -1.0831 -0.0648  0.2071
17979TIP3   OH275427   5.690   5.599   0.750 -0.2844 -0.0636 -0.0436
17979TIP3    H175428   5.698   5.580   0.657 -1.6422 -0.6853 -0.0438
17979TIP3    H275429   5.764   5.656   0.770 -1.0401  1.6289 -1.9204
17980TIP3   OH275430   6.736   3.665   5.332  0.4219 -0.3957 -0.0063
17980TIP3    H175431   6.720   3.573   5.311  0.0352 -0.3894  0.2680
17980TIP3    H275432   6.772   3.664   5.420 -1.2047 -0.1570  0.6746
17981TIP3   OH275433   4.946   4.344   4.657 -0.0966  0.9568  0.2963
17981TIP3    H175434   4.921   4.252   4.671 -1.5073  1.1482 -0.8319
17981TIP3    H275435   5.014   4.361   4.723  2.3140 -1.7622 -1.3675
17982TIP3   OH275436   4.704   1.320   3.161 -0.3485  0.2056  0.2282
17982TIP3    H175437   4.792   1.321   3.198 -0.2569 -0.6210  0.0411
17982TIP3    H275438   4.675   1.411   3.166  0.5955  0.5193  0.1034
17983TIP3   OH275439   1.088   4.481  17.137  0.1613  0.4925  0.5506
17983TIP3    H175440   1.177   4.460  17.165  0.0002 -0.9161  0.0605
17983TIP3    H275441   1.033   4.447  17.207 -0.1597 -1.7511 -0.7194
17984TIP3   OH275442   5.713   6.091   2.288 -0.1157  0.0225 -0.1015
17984TIP3    H175443   5.749   6.141   2.215  1.4104 -1.4160 -0.3613
17984TIP3    H275444   5.754   6.005   2.281  0.5433  0.0360  2.8156
17985TIP3   OH275445   6.033   5.865  15.877  0.0106 -0.5738 -0.9126
17985TIP3    H175446   6.060   5.773  15.876  1.5022 -0.1731  0.2551
17985TIP3    H275447   5.994   5.877  15.964 -0.7353 -0.2493 -1.2870
17986TIP3   OH275448   0.211   2.809  14.920  0.0358 -0.5055 -0.0227
17986TIP3    H175449   0.241   2.812  14.829 -0.7464  0.6806 -0.2561
17986TIP3    H275450   0.118   2.789  14.914  0.7512 -4.4569  0.7140
17987TIP3   OH275451   5.815   0.800  15.243  0.1877 -0.3861 -0.1339
17987TIP3    H175452   5.794   0.766  15.156 -1.5983 -0.3060  0.2460
17987TIP3    H275453   5.835   0.892  15.229  1.7080 -0.7825 -0.6955
17988TIP3   OH275454   0.582   2.589   4.420  0.3465  0.0646 -1.0140
17988TIP3    H175455   0.572   2.528   4.492 -0.6011  2.1472  0.6773
17988TIP3    H275456   0.677   2.597   4.409  0.4866 -0.9395 -0.5962
17989TIP3   OH275457   2.674   1.874   2.898 -0.3543 -0.1763  0.3311
17989TIP3    H175458   2.697   1.813   2.828  1.6085  0.0421  0.7693
17989TIP3    H275459   2.614   1.825   2.954  0.5548 -1.4216  0.2223
17990TIP3   OH275460   1.484   5.690   3.680  0.0660  0.9383  0.0758
17990TIP3    H175461   1.452   5.717   3.766  1.4166  3.5344 -0.2125
17990TIP3    H275462   1.579   5.689   3.689  0.2049  0.9689 -1.3251
17991TIP3   OH275463   4.239   3.599  12.096 -0.4340 -0.6447 -0.5688
17991TIP3    H175464   4.314   3.574  12.150 -2.3026 -1.3157  1.7827
17991TIP3    H275465   4.175   3.529  12.109 -1.5597  0.0152 -2.3705
17992TIP3   OH275466   5.443   4.855  15.339 -0.4116  0.1298  0.2354
17992TIP3    H175467   5.371   4.821  15.287  0.7070 -1.3710 -0.3733
17992TIP3    H275468   5.436   4.950  15.332 -1.5590 -0.0323 -0.8560
17993TIP3   OH275469   5.460   3.916   2.632 -0.8358  0.0757  0.5021
17993TIP3    H175470   5.478   3.832   2.590 -0.7119 -0.6952  2.0494
17993TIP3    H275471   5.365   3.923   2.634 -0.8618 -0.3265  0.9087
17994TIP3   OH275472   6.316   5.042  16.830 -0.2137  0.1419  0.6794
17994TIP3    H175473   6.411   5.039  16.825 -0.2962  0.5564 -1.3956
17994TIP3    H275474   6.286   4.972  16.772 -1.1894  0.8487  0.3144
17995TIP3   OH275475   5.867   5.423   1.918 -0.0523 -0.1859 -0.3812
17995TIP3    H175476   5.777   5.410   1.891 -0.3062  0.3028  0.2248
17995TIP3    H275477   5.911   5.341   1.896 -0.8449 -0.7514  0.1574
17996TIP3   OH275478   2.108   3.278  16.863 -0.1798 -0.0862  0.2395
17996TIP3    H175479   2.197   3.276  16.830  0.5349 -0.3431  2.1238
17996TIP3    H275480   2.111   3.230  16.945 -1.7915  0.9952  0.9696
17997TIP3   OH275481   6.296   4.985   0.747  0.0629  0.1889 -0.6355
17997TIP3    H175482   6.347   5.065   0.739  2.0136 -0.7385  1.9542
17997TIP3    H275483   6.223   5.008   0.804  1.7243 -0.3307  1.7612
17998TIP3   OH275484   3.296   5.938   4.201  0.8414 -0.2152 -0.7212
17998TIP3    H175485   3.219   5.932   4.144 -0.8571  0.0205  1.4707
17998TIP3    H275486   3.338   5.853   4.193 -0.3041 -0.7622 -1.0887
17999TIP3   OH275487   2.868   0.917   4.226 -0.2099 -0.3331 -0.6134
17999TIP3    H175488   2.808   0.978   4.183 -0.4492  0.2694  0.5630
17999TIP3    H275489   2.910   0.870   4.154 -1.1120  0.1749 -1.4854
18000TIP3   OH275490   0.544   1.468   1.991 -0.6666 -0.2052 -0.0679
18000TIP3    H175491   0.581   1.552   1.963 -0.5483 -0.3682 -0.4017
18000TIP3    H275492   0.613   1.405   1.974 -0.2887 -0.1823  1.3882
18001TIP3   OH275493   5.769   5.502   0.199  0.6668  0.1034  0.3060
18001TIP3    H175494   5.823   5.466   0.270  0.5577  1.2481  0.9870
18001TIP3    H275495   5.822   5.490   0.120  0.1777 -2.5343  0.3334
18002TIP3   OH275496   5.358   4.880   3.615  0.1185 -0.2878  0.3876
18002TIP3    H175497   5.317   4.818   3.554 -2.9976 -0.0058  2.1090
18002TIP3    H275498   5.366   4.961   3.564  1.9220 -1.3317 -1.0840
18003TIP3   OH275499   5.731   2.818   5.056 -0.4190  0.1931 -0.5348
18003TIP3    H175500   5.674   2.865   5.117  0.2106 -1.1641  1.1443
18003TIP3    H275501   5.753   2.736   5.101  2.3999  0.4361 -1.3746
18004TIP3   OH275502   4.074   6.681   2.815 -0.1985  0.5408 -1.0281
18004TIP3    H175503   4.128   6.755   2.843 -2.4192  1.6112  0.5883
18004TIP3    H275504   3.996   6.721   2.775 -0.0317 -0.9672 -2.9432
18005TIP3   OH275505   5.447   4.288  15.299 -0.0602  0.0573  0.7527
18005TIP3    H175506   5.466   4.368  15.348 -0.4394 -0.9251  2.5713
18005TIP3    H275507   5.527   4.270  15.250 -1.1997  3.4920 -2.5184
18006TIP3   OH275508   3.534   6.578  12.088  0.0555 -0.6867 -0.0455
18006TIP3    H175509   3.471   6.627  12.141  0.3308  0.0653 -0.4026
18006TIP3    H275510   3.492   6.571  12.002  0.3876 -0.3231 -0.2388
18007TIP3   OH275511   3.952   0.295   4.070  0.0696  0.0088 -0.1433
18007TIP3    H175512   3.901   0.216   4.049  2.5909 -1.3413 -1.3280
18007TIP3    H275513   3.957   0.343   3.988 -2.0279  1.8059  0.7280
18008TIP3   OH275514   4.433   2.774  14.893 -0.1975 -0.6205  0.2651
18008TIP3    H175515   4.523   2.741  14.896 -0.5385 -1.5608  0.4689
18008TIP3    H275516   4.434   2.851  14.949  0.9334  0.5161 -1.2850
18009TIP3   OH275517   0.910   5.615  12.755  0.0831 -0.3915  0.2271
18009TIP3    H175518   0.949   5.693  12.715 -0.4753 -0.6033 -0.7408
18009TIP3    H275519   0.985   5.562  12.781  0.4787 -0.7236 -1.4866
18010TIP3   OH275520   4.966   3.101  16.437  0.6295  0.3993 -0.1801
18010TIP3    H175521   4.876   3.118  16.465  0.5814  0.9171 -0.6433
18010TIP3    H275522   4.993   3.182  16.392  1.0367 -0.0723 -0.7878
18011TIP3   OH275523   0.962   5.387  15.211  0.4352  0.3150  0.1284
18011TIP3    H175524   1.051   5.419  15.226  0.0505  0.7561  1.5350
18011TIP3    H275525   0.926   5.374  15.299 -0.9491  0.3091 -0.4313
18012TIP3   OH275526   2.121   6.594  16.016 -0.4249 -0.0503 -0.2906
18012TIP3    H175527   2.033   6.569  15.988 -0.7964 -0.6506  1.3323
18012TIP3    H275528   2.178   6.569  15.943 -1.5987  0.2971 -1.3254
18013TIP3   OH275529   0.561   5.515   1.597  0.1564  0.1896  0.0661
18013TIP3    H175530   0.534   5.425   1.579 -0.5726  0.7053 -1.5312
18013TIP3    H275531   0.640   5.506   1.651  0.7818 -1.4245 -1.0772
18014TIP3   OH275532   6.433   5.005   4.595  0.3050 -0.5425 -0.1311
18014TIP3    H175533   6.391   5.040   4.673  1.4051  0.4639  0.0214
18014TIP3    H275534   6.371   5.022   4.524 -0.8230 -1.7293  0.5648
18015TIP3   OH275535   4.841   1.757  15.823  0.3023 -0.7460 -0.7033
18015TIP3    H175536   4.826   1.724  15.734  1.0766 -0.7879 -0.8188
18015TIP3    H275537   4.931   1.791  15.821  0.0674 -0.0868 -0.1376
18016TIP3   OH275538   4.839   0.067  15.859  0.0273 -0.6427 -0.8751
18016TIP3    H175539   4.871   0.139  15.805 -0.0302 -0.5570 -0.7923
18016TIP3    H275540   4.751   0.092  15.884  1.3735  1.0605  2.3802
18017TIP3   OH275541   3.757   3.037  13.952  0.3567 -0.2975 -0.1805
18017TIP3    H175542   3.680   3.088  13.927  0.3745  0.2791  0.9486
18017TIP3    H275543   3.749   3.025  14.046  1.3572 -0.7239 -0.1453
18018TIP3   OH275544   2.526   5.984  10.299 -0.6283  0.1777 -0.5804
18018TIP3    H175545   2.507   6.065  10.346 -2.4971  0.2033 -1.3355
18018TIP3    H275546   2.604   6.004  10.247  0.4655  0.6677  1.1874
18019TIP3   OH275547   2.985   3.182   4.035  0.2565 -0.2617 -0.2348
18019TIP3    H175548   3.025   3.203   4.119 -0.4984 -2.8952  0.8142
18019TIP3    H275549   2.899   3.145   4.057  0.4163 -1.8231 -2.1040
18020TIP3   OH275550   0.114   0.986  14.493  0.2336  0.4813 -0.5589
18020TIP3    H175551   0.058   0.938  14.553 -0.9049  1.5389 -0.7536
18020TIP3    H275552   0.137   1.066  14.540  0.1701  0.8450 -1.1363
18021TIP3   OH275553   1.570   0.345  12.988  0.4432 -0.0051 -0.8824
18021TIP3    H175554   1.518   0.388  13.055 -0.3329  0.2953 -1.6615
18021TIP3    H275555   1.534   0.257  12.982 -0.7851  0.5520 -2.2292
18022TIP3   OH275556   3.626   0.237   4.642  0.4167 -0.5730  0.5005
18022TIP3    H175557   3.591   0.264   4.557 -0.0723 -0.3019  0.7843
18022TIP3    H275558   3.583   0.153   4.660  0.1755 -0.4090  0.6889
18023TIP3   OH275559   1.149   1.478  12.827 -0.0368 -0.4532 -0.2055
18023TIP3    H175560   1.130   1.394  12.785  0.7321 -0.7695  0.0731
18023TIP3    H275561   1.235   1.466  12.867 -0.4098  0.0993  0.7920
18024TIP3   OH275562   1.749   4.744  12.093  0.6859 -0.0400  0.7106
18024TIP3    H175563   1.688   4.810  12.059  0.3264 -1.5023 -1.6038
18024TIP3    H275564   1.704   4.661  12.079  3.5737 -1.2408 -2.0148
18025TIP3   OH275565   3.663   4.425  14.822  0.2876 -0.2826  0.0935
18025TIP3    H175566   3.714   4.369  14.880  1.1997  0.2289 -0.2126
18025TIP3    H275567   3.692   4.514  14.842  0.3932 -0.0793 -0.9271
18026TIP3   OH275568   1.605   3.526   0.548 -0.1943 -0.0311  0.5076
18026TIP3    H175569   1.537   3.460   0.562 -1.4789  0.7531 -1.7166
18026TIP3    H275570   1.577   3.572   0.468  2.9452  0.2901 -0.4751
18027TIP3   OH275571   0.003   5.785  16.549  0.2103  0.0253  0.5280
18027TIP3    H175572  -0.027   5.694  16.545  0.7116 -0.1427  0.6586
18027TIP3    H275573   0.050   5.791  16.632  1.6156 -0.0381 -0.2492
18028TIP3   OH275574   3.236   3.001   1.150 -0.2869  0.1999 -0.1180
18028TIP3    H175575   3.143   3.023   1.155  0.1586  1.5519  4.8521
18028TIP3    H275576   3.239   2.906   1.155 -1.3337  0.2943  2.8714
18029TIP3   OH275577   6.529   0.102   2.164 -0.1343 -0.6461  0.0815
18029TIP3    H175578   6.452   0.112   2.221 -0.0503 -1.9654  0.4446
18029TIP3    H275579   6.531   0.009   2.143  0.5724 -0.3845 -1.0728
18030TIP3   OH275580   1.412   0.879  13.529  0.1169 -0.9765  0.2649
18030TIP3    H175581   1.317   0.879  13.538  0.0870 -2.5489  0.2216
18030TIP3    H275582   1.428   0.896  13.437 -0.0975 -0.0505  0.3971
18031TIP3   OH275583   0.084   5.552   1.247  0.0634 -0.1077  0.1518
18031TIP3    H175584   0.001   5.506   1.259 -0.9647  1.3965 -1.1203
18031TIP3    H275585   0.066   5.621   1.183  1.6039  1.9693  1.8403
18032TIP3   OH275586   2.299   0.290  10.724 -0.3127 -0.3442 -0.3168
18032TIP3    H175587   2.303   0.300  10.629 -1.5626 -2.7036 -0.6646
18032TIP3    H275588   2.247   0.364  10.754 -0.9190 -0.2311 -1.6146
18033TIP3   OH275589   5.551   6.231   1.680  0.5229  0.1944  0.1584
18033TIP3    H175590   5.582   6.322   1.676 -0.2621  0.4294 -0.7424
18033TIP3    H275591   5.608   6.189   1.744  1.1445  1.2279  0.2928
18034TIP3   OH275592   4.930   5.563   2.283  0.4198 -0.3290 -0.6546
18034TIP3    H175593   5.012   5.571   2.235 -0.4122  0.7161 -1.9283
18034TIP3    H275594   4.879   5.500   2.233 -0.2088  0.3010 -0.8179
18035TIP3   OH275595   1.738   3.703   4.186 -0.3724  0.0107  0.4044
18035TIP3    H175596   1.827   3.699   4.150  0.4096 -0.1921  2.2820
18035TIP3    H275597   1.730   3.623   4.238 -0.4760  1.5185  2.7941
18036TIP3   OH275598   5.858   2.273   2.666  0.0920 -0.0787 -0.1872
18036TIP3    H175599   5.765   2.272   2.644  0.1076  0.3627 -0.2590
18036TIP3    H275600   5.901   2.231   2.592 -0.2183 -1.8601  0.6010
18037TIP3   OH275601   1.925   5.135   3.981 -0.7390 -0.4968  0.8022
18037TIP3    H175602   1.985   5.095   4.044 -0.3218  0.1014  0.7945
18037TIP3    H275603   1.942   5.229   3.989 -0.3964 -0.4452 -0.4920
18038TIP3   OH275604   0.576   4.124  11.518 -0.2495 -0.1925  0.0025
18038TIP3    H175605   0.559   4.059  11.450 -0.3559  0.4530 -0.6014
18038TIP3    H275606   0.497   4.122  11.573 -1.0820  0.7647 -1.1273
18039TIP3   OH275607   1.305   3.019   3.535 -0.2700  0.1164 -0.3353
18039TIP3    H175608   1.325   3.062   3.618  1.3032 -1.3385  0.0710
18039TIP3    H275609   1.380   3.039   3.479  0.1840 -1.5366 -0.3488
18040TIP3   OH275610   3.539   3.119  14.465  0.3082  0.5095  0.7193
18040TIP3    H175611   3.501   3.186  14.522 -1.3227 -0.4621  0.8160
18040TIP3    H275612   3.633   3.135  14.469  0.0878  1.5364  2.3300
18041TIP3   OH275613   0.256   6.291  15.896  0.2102  0.0695  0.0947
18041TIP3    H175614   0.270   6.318  15.987 -1.3276 -0.5747  0.5307
18041TIP3    H275615   0.191   6.221  15.901  0.5930 -0.4104 -1.4476
18042TIP3   OH275616   1.971   5.471   4.936 -0.0792 -0.4006 -0.1006
18042TIP3    H175617   1.906   5.531   4.900  0.9378  1.3082  0.8056
18042TIP3    H275618   1.976   5.399   4.874 -2.1088 -0.0622 -0.6711
18043TIP3   OH275619   6.158   5.768  10.655  0.2888  0.0280 -0.2026
18043TIP3    H175620   6.150   5.672  10.659 -1.3838  0.2217  1.8776
18043TIP3    H275621   6.171   5.787  10.562 -1.1619 -2.0989 -0.8754
18044TIP3   OH275622   6.229   4.832  16.667 -0.3389  0.4010 -0.5577
18044TIP3    H175623   6.141   4.796  16.656 -0.3230 -0.5919  2.1044
18044TIP3    H275624   6.261   4.844  16.578 -3.4921  1.6654 -1.6107
18045TIP3   OH275625   0.597   2.932   1.798  0.1476 -0.8772 -0.8604
18045TIP3    H175626   0.654   2.877   1.851 -0.5120 -1.7619 -1.0506
18045TIP3    H275627   0.575   3.006   1.855  0.1930 -1.3452 -0.2368
18046TIP3   OH275628   1.492   4.083  15.254 -0.0717  0.3579  0.4563
18046TIP3    H175629   1.479   4.100  15.347  0.2536 -1.5061  0.8723
18046TIP3    H275630   1.583   4.054  15.247 -0.4082 -0.5869 -0.2587
18047TIP3   OH275631   1.482   1.770   0.373  0.1234 -0.3598 -0.1099
18047TIP3    H175632   1.418   1.807   0.435 -0.4886 -2.0739  0.3083
18047TIP3    H275633   1.563   1.818   0.391 -1.0753  2.0022 -0.7922
18048TIP3   OH275634   1.702   5.272  16.424  0.0120  0.1008 -0.1654
18048TIP3    H175635   1.673   5.360  16.448  0.7997  0.3728 -0.1819
18048TIP3    H275636   1.683   5.265  16.330  0.8786  0.6359 -0.3865
18049TIP3   OH275637   2.354   4.969   2.505 -0.8400  0.1432 -0.4122
18049TIP3    H175638   2.379   4.979   2.413 -0.4776 -0.6329 -0.4014
18049TIP3    H275639   2.432   4.933   2.547 -2.1271 -2.9541 -0.5058
18050TIP3   OH275640   6.715   2.541   0.462  0.4239 -0.4503 -0.0304
18050TIP3    H175641   6.680   2.547   0.374  1.3522  0.0814 -0.3673
18050TIP3    H275642   6.767   2.460   0.462  0.2350 -0.5718  0.0949
18051TIP3   OH275643   6.401   4.806  12.211 -0.6087 -0.2221  0.1118
18051TIP3    H175644   6.462   4.787  12.140  0.6650 -0.3630  1.2336
18051TIP3    H275645   6.320   4.832  12.166  0.0859 -0.5835 -1.3872
18052TIP3   OH275646   1.799   2.320   4.025 -1.1889  0.1740 -0.4889
18052TIP3    H175647   1.737   2.298   3.956 -1.3573 -0.0097 -0.2809
18052TIP3    H275648   1.803   2.242   4.080  0.4510 -0.3973 -1.3911
18053TIP3   OH275649   2.979   1.967  11.494 -0.5210  0.3201 -0.2990
18053TIP3    H175650   2.884   1.983  11.498 -0.8842 -1.8203  0.3902
18053TIP3    H275651   2.991   1.883  11.538  1.7921  0.8390  0.1424
18054TIP3   OH275652   0.836   3.381   1.648  0.0387 -0.2187  0.1404
18054TIP3    H175653   0.804   3.471   1.647 -2.0762 -0.9474  0.1220
18054TIP3    H275654   0.922   3.387   1.689 -0.8059  1.5742  1.7439
18055TIP3   OH275655   5.279   4.720   3.420  0.4046 -0.5574  0.1664
18055TIP3    H175656   5.278   4.682   3.332 -3.7756  1.3287 -0.7603
18055TIP3    H275657   5.213   4.670   3.469 -0.2029  0.9595  0.9566
18056TIP3   OH275658   4.402   3.494  15.878  0.6123  0.5533 -0.0816
18056TIP3    H175659   4.376   3.474  15.788  1.2297  0.3675 -0.2180
18056TIP3    H275660   4.320   3.518  15.921  0.2131 -0.0012 -0.5184
18057TIP3   OH275661   4.533   5.265  15.797 -0.2691  0.6705  0.4518
18057TIP3    H175662   4.615   5.312  15.784 -0.6096  1.3333  0.6968
18057TIP3    H275663   4.526   5.253  15.891  0.6268 -1.3412  0.2993
18058TIP3   OH275664   1.543   6.213  16.210  0.5304 -0.1216  0.3376
18058TIP3    H175665   1.460   6.183  16.174  0.6947 -1.7040  1.2542
18058TIP3    H275666   1.555   6.300  16.171 -1.3981  0.0155 -0.0286
18059TIP3   OH275667   3.985   6.177   1.260  0.8531  0.1307 -0.4634
18059TIP3    H175668   3.949   6.112   1.319 -0.4867  2.1030  0.9719
18059TIP3    H275669   4.080   6.169   1.270  0.6681 -0.6052  0.8216
18060TIP3   OH275670   1.753   6.266  15.093 -0.2183  0.2377  0.3232
18060TIP3    H175671   1.737   6.342  15.037  0.7232  0.9317  0.9858
18060TIP3    H275672   1.711   6.288  15.176 -0.2580 -0.1269  0.4015
18061TIP3   OH275673   1.649   3.513  14.409 -0.5855  0.1154  0.3600
18061TIP3    H175674   1.735   3.549  14.389 -0.2437 -0.6268  0.5022
18061TIP3    H275675   1.642   3.516  14.504 -0.0006 -1.4708  0.4602
18062TIP3   OH275676   4.462   4.925   1.660  0.5356 -0.0338 -0.4163
18062TIP3    H175677   4.417   4.943   1.742  0.8889 -0.8950 -0.0213
18062TIP3    H275678   4.392   4.907   1.597  0.2922 -0.2179 -0.0926
18063TIP3   OH275679   3.511   2.288  13.763  0.6803 -0.2856 -1.0094
18063TIP3    H175680   3.529   2.262  13.853 -1.0382  1.8575 -0.0036
18063TIP3    H275681   3.539   2.379  13.758  0.0593 -0.1571 -2.4162
18064TIP3   OH275682   4.554   1.616   4.573 -0.4832 -0.4648 -0.4851
18064TIP3    H175683   4.590   1.678   4.509 -0.8325 -0.3821 -0.5990
18064TIP3    H275684   4.625   1.605   4.637 -1.2994  2.0013  0.9160
18065TIP3   OH275685   3.928   3.909   1.649  0.0094 -0.0151 -0.2564
18065TIP3    H175686   4.022   3.891   1.646 -0.0347 -0.1244 -1.1371
18065TIP3    H275687   3.922   4.003   1.661  0.2426  0.1409 -1.2766
18066TIP3   OH275688   5.280   2.161  16.926 -0.0674  0.5349  0.1232
18066TIP3    H175689   5.273   2.066  16.940 -0.5808  0.2544 -1.8547
18066TIP3    H275690   5.212   2.198  16.982  1.3553 -0.0893  2.3565
18067TIP3   OH275691   2.869   2.365   5.340 -0.0155 -0.3812  0.9099
18067TIP3    H175692   2.889   2.313   5.418 -0.6664 -1.6302  0.2643
18067TIP3    H275693   2.952   2.371   5.293 -0.1917 -1.8506  0.4018
18068TIP3   OH275694   1.159   5.139  11.392 -0.2482  0.4555 -0.2849
18068TIP3    H175695   1.087   5.199  11.374 -0.4250  0.6158  0.8986
18068TIP3    H275696   1.177   5.096  11.308 -2.6447 -0.6006 -0.2966
18069TIP3   OH275697   2.901   2.738   2.095  0.8353 -0.7723  0.2662
18069TIP3    H175698   2.828   2.799   2.090  0.7674 -0.7114  1.8807
18069TIP3    H275699   2.879   2.679   2.167  1.9514 -1.3173  0.1795
18070TIP3   OH275700   5.185   3.637  12.117  0.0707  0.5115  1.0845
18070TIP3    H175701   5.207   3.704  12.053 -0.1219 -0.1882  0.2817
18070TIP3    H275702   5.264   3.582  12.122 -0.5471 -0.4614  0.1491
18071TIP3   OH275703   4.262   3.777   0.500 -0.0279 -0.0241  0.1109
18071TIP3    H175704   4.336   3.792   0.441 -2.5129 -0.2694 -3.2316
18071TIP3    H275705   4.204   3.852   0.485 -1.1267 -0.5562  1.5986
18072TIP3   OH275706   3.678   5.943   0.842  0.3563  0.2578  0.0554
18072TIP3    H175707   3.706   6.007   0.907 -0.0281 -0.4065  0.8978
18072TIP3    H275708   3.752   5.933   0.783  1.0752  0.1577  0.9662
18073TIP3   OH275709   2.571   6.474  16.906 -0.4595  0.9635 -0.1430
18073TIP3    H175710   2.667   6.469  16.901 -0.5372  0.2882 -0.9775
18073TIP3    H275711   2.552   6.478  17.000  0.5398  4.0936  0.0018
18074TIP3   OH275712   4.608   3.425  12.088 -0.1715 -0.4313  0.2396
18074TIP3    H175713   4.537   3.384  12.039 -0.1197 -0.1744 -0.0540
18074TIP3    H275714   4.565   3.475  12.157 -0.1875 -1.8686  1.2830
18075TIP3   OH275715   5.906   4.764   0.941  0.0151  0.0378  0.1401
18075TIP3    H175716   5.960   4.780   1.018  0.0194 -0.2433  0.1941
18075TIP3    H275717   5.965   4.780   0.867  0.8814 -2.6462  0.1946
18076TIP3   OH275718   4.685   5.288  15.439 -0.0148 -0.0259  0.2158
18076TIP3    H175719   4.721   5.208  15.479  0.0795 -1.5261 -2.7046
18076TIP3    H275720   4.731   5.359  15.482  2.6906 -1.7115  0.2533
18077TIP3   OH275721   5.388   4.806  12.338  0.2733  0.1080 -0.4822
18077TIP3    H175722   5.366   4.771  12.252 -0.2157  1.2352 -0.8191
18077TIP3    H275723   5.328   4.762  12.399  0.1015 -0.1171 -0.8162
18078TIP3   OH275724   3.870   4.761   6.026  0.1003  0.0134  0.2775
18078TIP3    H175725   3.802   4.773   5.960  0.3567  0.8318  0.1530
18078TIP3    H275726   3.885   4.849   6.062  0.8065 -0.2212  0.5803
18079TIP3   OH275727   0.452   2.233   2.153  0.4887  0.2051  0.3819
18079TIP3    H175728   0.514   2.281   2.098 -1.2965  2.4723  0.2396
18079TIP3    H275729   0.469   2.265   2.241 -0.0694  0.3673  0.4294
18080TIP3   OH275730   3.400   1.816  11.288  0.1074  0.0235 -0.1336
18080TIP3    H175731   3.488   1.793  11.319  0.4070  0.3335 -0.7464
18080TIP3    H275732   3.341   1.766  11.345  0.6359  0.7463  1.0757
18081TIP3   OH275733   4.559   3.066  15.995  0.0234 -0.4623  0.6886
18081TIP3    H175734   4.535   2.974  15.987  1.1995 -0.6473 -0.9754
18081TIP3    H275735   4.603   3.072  16.080  1.5665 -1.8368  0.0287
18082TIP3   OH275736   5.964   3.372   5.884 -0.0485 -0.2852 -0.3777
18082TIP3    H175737   5.944   3.282   5.907 -0.4336 -0.0600  0.1563
18082TIP3    H275738   5.881   3.419   5.893  0.3661  0.3253  0.3349
18083TIP3   OH275739   5.377   3.657  12.792 -0.4180 -0.4465 -0.0752
18083TIP3    H175740   5.311   3.604  12.747  0.5525 -0.7720 -1.1563
18083TIP3    H275741   5.411   3.599  12.860  0.5133 -1.1797 -1.1380
18084TIP3   OH275742   5.104   5.718  16.813 -0.3824 -0.1179  0.0105
18084TIP3    H175743   5.092   5.767  16.894  0.4396  2.1131 -1.1956
18084TIP3    H275744   5.015   5.696  16.785 -0.7696  1.0010  0.3537
18085TIP3   OH275745   0.059   0.471   0.803 -0.1985 -0.1455  0.0687
18085TIP3    H175746   0.021   0.391   0.767  0.4108 -0.2229 -0.4171
18085TIP3    H275747   0.154   0.459   0.794 -0.0869  0.4365  0.4050
18086TIP3   OH275748   5.107   1.786   0.063 -0.4910 -0.8399  0.1646
18086TIP3    H175749   5.069   1.849   0.124  0.0482 -1.2626  0.9342
18086TIP3    H275750   5.184   1.752   0.107  0.3255 -0.6147 -1.0522
18087TIP3   OH275751   6.137   0.816  16.239 -0.2613 -0.3857  0.6741
18087TIP3    H175752   6.146   0.771  16.323  0.5040 -2.2256 -0.3570
18087TIP3    H275753   6.071   0.765  16.192  2.0946 -1.7193 -1.3039
18088TIP3   OH275754   4.972   4.078  13.704 -0.2903  0.8197 -0.0651
18088TIP3    H175755   4.885   4.040  13.705 -1.4070  3.3113  1.2083
18088TIP3    H275756   5.012   4.043  13.624 -1.8607 -1.5464  0.1221
18089TIP3   OH275757   0.957   6.380  13.497 -0.7152 -0.0188 -0.4984
18089TIP3    H175758   1.037   6.409  13.452  0.4500 -0.5946  1.1507
18089TIP3    H275759   0.979   6.383  13.590 -2.9078  0.6121  0.0429
18090TIP3   OH275760   0.563   4.881  11.420 -0.0822  0.2955  0.2217
18090TIP3    H175761   0.555   4.919  11.333  2.8204  2.6931  0.9024
18090TIP3    H275762   0.623   4.807  11.409 -0.8439 -0.3038 -0.0140
18091TIP3   OH275763   3.796   3.631   5.943 -0.2167 -0.2599  0.0554
18091TIP3    H175764   3.850   3.554   5.924  1.0777  0.5357  0.4434
18091TIP3    H275765   3.800   3.639   6.039 -0.9550 -0.1450  0.0752
18092TIP3   OH275766   2.838   0.608  14.522  0.0070 -0.5100  0.1209
18092TIP3    H175767   2.904   0.678  14.528 -0.4714 -0.1140  0.7663
18092TIP3    H275768   2.796   0.623  14.437  1.5126 -1.4487 -0.8113
18093TIP3   OH275769   1.217   0.676  14.307  0.4803 -0.3862 -0.3475
18093TIP3    H175770   1.294   0.630  14.276  2.1894  1.6550  0.6782
18093TIP3    H275771   1.249   0.731  14.379 -1.6371  1.5993 -0.8383
18094TIP3   OH275772   2.706   1.675  13.676 -0.5143  0.2226 -0.3749
18094TIP3    H175773   2.650   1.610  13.718 -0.6683 -1.6140 -3.2991
18094TIP3    H275774   2.646   1.741  13.641 -0.5715  0.3385 -0.0562
18095TIP3   OH275775   3.635   3.201  13.703  0.1726  0.2357 -0.0288
18095TIP3    H175776   3.702   3.222  13.638  1.1262  1.4238  1.2979
18095TIP3    H275777   3.589   3.125  13.667  1.0087  0.5539 -1.8306
18096TIP3   OH275778   4.693   4.878  13.962 -0.1045  0.2687  0.5509
18096TIP3    H175779   4.639   4.802  13.981 -3.3496  2.5428  0.8227
18096TIP3    H275780   4.728   4.862  13.875  0.1037 -1.9528  1.0165
18097TIP3   OH275781   6.751   1.604  13.186 -0.1310 -0.4536  0.3875
18097TIP3    H175782   6.722   1.584  13.096  0.8907 -0.4912  0.0572
18097TIP3    H275783   6.696   1.548  13.241  0.5640 -1.9141 -0.3448
18098TIP3   OH275784   2.900   6.356  11.980 -0.3131  0.1967  0.0678
18098TIP3    H175785   2.929   6.268  11.957 -0.2070 -0.1259  1.3809
18098TIP3    H275786   2.980   6.408  11.984 -0.0972 -0.2338  1.7361
18099TIP3   OH275787   1.938   4.317  16.909 -0.1030  0.1656 -0.0957
18099TIP3    H175788   1.992   4.297  16.986 -0.9139  2.2842  1.0580
18099TIP3    H275789   1.848   4.310  16.941 -0.4581  4.4296  0.1372
18100TIP3   OH275790   6.655   5.519   6.036  0.1536 -0.4866 -0.2202
18100TIP3    H175791   6.607   5.479   5.964 -0.3686  1.4437 -0.9641
18100TIP3    H275792   6.598   5.507   6.112 -0.9957  0.7706 -0.8698
18101TIP3   OH275793   6.476   6.113  12.184  0.4429  0.3741 -0.7835
18101TIP3    H175794   6.489   6.125  12.278  2.2322  0.3830 -1.0225
18101TIP3    H275795   6.489   6.019  12.169 -0.9913  0.1649 -0.8685
18102TIP3   OH275796   5.424   1.302   4.336  0.4471 -0.0483 -0.4622
18102TIP3    H175797   5.398   1.389   4.306  0.8810  0.5279  0.8289
18102TIP3    H275798   5.469   1.317   4.419 -0.1847 -1.5740  0.1708
18103TIP3   OH275799   5.774   2.849   3.317  0.2024 -0.0647 -0.3396
18103TIP3    H175800   5.743   2.791   3.247  0.3097  0.9182 -1.2136
18103TIP3    H275801   5.761   2.937   3.282  3.4393  0.4073 -0.5530
18104TIP3   OH275802   6.034   2.045  13.988 -0.1071 -0.1279  0.2062
18104TIP3    H175803   6.099   2.047  13.918 -0.0747  0.8058  0.2558
18104TIP3    H275804   6.056   1.966  14.039  0.0763 -0.6154 -0.6265
18105TIP3   OH275805   5.210   4.665   5.641 -0.5488  0.4407 -0.0237
18105TIP3    H175806   5.258   4.630   5.566  0.3402  1.2007  0.1897
18105TIP3    H275807   5.278   4.694   5.702 -1.2694  0.1423  0.9356
18106TIP3   OH275808   4.928   2.894  14.342  0.0112 -0.4588  0.5244
18106TIP3    H175809   5.010   2.867  14.301 -0.6737 -1.3352 -0.2778
18106TIP3    H275810   4.882   2.943  14.274  0.2616  0.8476  1.2637
18107TIP3   OH275811   4.265   0.361   3.748  0.0095 -0.3393 -0.6927
18107TIP3    H175812   4.180   0.364   3.794 -0.3004 -1.3059 -1.1969
18107TIP3    H275813   4.309   0.442   3.775 -1.0443  0.1407 -0.3717
18108TIP3   OH275814   0.637   0.763   6.139  0.4400  0.1642 -0.4710
18108TIP3    H175815   0.549   0.791   6.113  0.3393  0.1731 -0.1187
18108TIP3    H275816   0.634   0.667   6.132  0.1062  0.0998  0.4686
18109TIP3   OH275817   4.999   5.895  17.034 -0.0716 -0.8760  0.5694
18109TIP3    H175818   4.905   5.896  17.015  0.1390  0.2293 -0.4487
18109TIP3    H275819   5.008   5.947  17.114 -0.4478 -1.8999  1.2862
18110TIP3   OH275820   1.186   3.033   0.078  0.0362  0.1526  0.0134
18110TIP3    H175821   1.119   3.009   0.142  1.0333  1.9782  1.8039
18110TIP3    H275822   1.260   2.976   0.098  1.1926  2.3024  2.0722
18111TIP3   OH275823   0.554   3.045  15.330  0.1252  0.1138 -0.0456
18111TIP3    H175824   0.527   3.089  15.410 -0.0885 -1.1629  0.6095
18111TIP3    H275825   0.485   2.979  15.314  1.4082 -1.2960  0.1014
18112TIP3   OH275826   0.752   1.661  13.620 -0.0662 -0.1519 -0.2763
18112TIP3    H175827   0.784   1.713  13.694 -0.3119  0.7156 -0.7743
18112TIP3    H275828   0.663   1.638  13.645  0.1455 -0.5939  0.0780
18113TIP3   OH275829   6.061   2.179   5.777  0.0054 -0.8825 -0.2212
18113TIP3    H175830   5.990   2.217   5.725  0.1906  0.2339  0.3186
18113TIP3    H275831   6.031   2.090   5.797 -2.0559  0.1340  1.4632
18114TIP3   OH275832   4.829   0.001   3.650  0.3599 -0.3452  0.7265
18114TIP3    H175833   4.832  -0.073   3.710 -0.0505 -2.5443 -1.8907
18114TIP3    H275834   4.741  -0.002   3.612  1.0215  0.2399 -0.9046
18115TIP3   OH275835   1.526   3.799   6.318 -0.2494 -0.2233 -0.5885
18115TIP3    H175836   1.534   3.774   6.410  0.8816  0.7356 -0.3989
18115TIP3    H275837   1.445   3.849   6.313  0.3479  0.8413  0.1724
18116TIP3   OH275838   5.020   3.687  16.368 -0.2795  0.1063  0.7222
18116TIP3    H175839   4.997   3.722  16.283 -0.3486  0.1693  0.7680
18116TIP3    H275840   4.946   3.631  16.393 -0.4141  0.3591  0.8944
18117TIP3   OH275841   4.849   6.058   1.819 -0.8096 -0.1716 -0.4314
18117TIP3    H175842   4.807   5.974   1.803  0.1898 -0.8541  0.5076
18117TIP3    H275843   4.941   6.038   1.833 -0.8605  0.8536  1.6296
18118TIP3   OH275844   3.347   2.385  15.984  0.0148 -0.1587 -0.3365
18118TIP3    H175845   3.440   2.404  15.974  0.1490 -1.1701 -1.1182
18118TIP3    H275846   3.309   2.466  16.018  1.2442  0.1283  0.3786
18119TIP3   OH275847   5.391   0.876  13.138 -0.1872 -0.0966  0.2086
18119TIP3    H175848   5.429   0.841  13.057 -1.3411 -1.3163  0.1798
18119TIP3    H275849   5.399   0.804  13.200 -0.5541  0.3681  0.7958
18120TIP3   OH275850   5.598   5.281   3.108  0.0555  0.0266  0.0025
18120TIP3    H175851   5.653   5.299   3.184  2.2210 -1.6706 -1.1273
18120TIP3    H275852   5.628   5.197   3.075 -3.2510 -0.9908 -0.6649
18121TIP3   OH275853   2.582   4.378   2.507  0.1445 -0.8938  0.1899
18121TIP3    H175854   2.611   4.387   2.598 -1.9855 -1.0363  0.9077
18121TIP3    H275855   2.589   4.284   2.489 -1.6044 -1.1984  0.9837
18122TIP3   OH275856   0.975   2.962  11.772 -0.7791  0.2188 -0.0231
18122TIP3    H175857   1.017   2.924  11.696 -0.2818  0.7412 -0.0034
18122TIP3    H275858   0.887   2.985  11.742 -0.3595  1.0489 -0.6213
18123TIP3   OH275859   1.953   6.442   0.668 -0.7542  0.4362  0.1220
18123TIP3    H175860   1.968   6.424   0.761 -0.3664 -0.8594 -0.1732
18123TIP3    H275861   1.867   6.484   0.666 -1.0940 -0.1783  1.0149
18124TIP3   OH275862   2.357   5.115  11.510 -1.1091 -0.4145 -0.0840
18124TIP3    H175863   2.326   5.041  11.458 -0.5897  0.5676 -1.8238
18124TIP3    H275864   2.280   5.146  11.557 -1.3995 -1.8488  0.4004
18125TIP3   OH275865   3.623   0.325   5.823 -0.2115  0.1723  0.7048
18125TIP3    H175866   3.608   0.291   5.911  0.4172 -0.9280  0.4015
18125TIP3    H275867   3.539   0.312   5.778 -0.4964  0.6287  1.0981
18126TIP3   OH275868   0.145   4.308   2.737  0.4249 -0.0435  0.1772
18126TIP3    H175869   0.146   4.228   2.790  1.9549  0.3432  0.7484
18126TIP3    H275870   0.233   4.345   2.748 -0.5811  2.2389  0.6802
18127TIP3   OH275871   3.511   6.533   4.746 -0.0005 -0.2458  0.5420
18127TIP3    H175872   3.502   6.518   4.841 -1.1825  0.9133  0.6265
18127TIP3    H275873   3.546   6.450   4.712  0.3382 -0.7088  1.9780
18128TIP3   OH275874   0.594   6.616   4.390 -0.0715 -0.0160  0.3489
18128TIP3    H175875   0.588   6.681   4.320  0.0750  2.8745  2.9229
18128TIP3    H275876   0.687   6.600   4.401 -0.0112  0.6624  0.8625
18129TIP3   OH275877   0.865   0.048   5.751 -0.1381 -0.3757  0.2398
18129TIP3    H175878   0.822  -0.021   5.701 -1.7864  0.2367  0.7921
18129TIP3    H275879   0.799   0.117   5.759 -0.0251 -0.5546  3.4743
18130TIP3   OH275880   1.637   2.791   6.425  0.4475  0.1243  0.5332
18130TIP3    H175881   1.656   2.869   6.372 -0.0557  0.5092  0.9117
18130TIP3    H275882   1.692   2.802   6.503  0.8544 -0.2190  0.2953
18131TIP3   OH275883   0.559   3.958   6.346 -0.1537 -0.3498  0.5180
18131TIP3    H175884   0.493   4.012   6.302  1.3970  0.6182 -0.6970
18131TIP3    H275885   0.513   3.878   6.370 -1.5270 -0.1058 -1.2113
18132TIP3   OH275886   1.926   1.770  14.688 -0.1122  0.1123 -1.2234
18132TIP3    H175887   1.960   1.706  14.626 -2.2404  0.3641 -2.6982
18132TIP3    H275888   1.859   1.723  14.737  1.8342 -0.1999  1.2202
18133TIP3   OH275889   1.483   4.217   6.065 -0.1764  0.2537 -0.2948
18133TIP3    H175890   1.496   4.161   6.141 -2.4593  0.5719  0.3799
18133TIP3    H275891   1.449   4.159   5.997  0.2157  0.2780 -0.5089
18134TIP3   OH275892   2.241   3.547   3.285 -0.0621 -0.3763 -0.4380
18134TIP3    H175893   2.313   3.483   3.288  0.0292 -0.2573  0.0015
18134TIP3    H275894   2.173   3.503   3.234  0.0929 -0.7315 -0.3456
18135TIP3   OH275895   0.123   3.630   3.845 -0.0793  0.7857 -0.2122
18135TIP3    H175896   0.107   3.710   3.795 -0.0199 -0.6744 -2.6505
18135TIP3    H275897   0.050   3.572   3.821  1.0534 -0.6811 -0.2234
18136TIP3   OH275898   6.546   3.341  16.111 -0.9941 -0.1120  0.5169
18136TIP3    H175899   6.576   3.306  16.195  1.7707  2.4833  0.6864
18136TIP3    H275900   6.596   3.292  16.046 -0.0948  0.7068  0.5824
18137TIP3   OH275901   4.340   5.304   4.591  0.0891  0.0643 -0.2242
18137TIP3    H175902   4.273   5.250   4.633  0.5124 -0.2510  0.0483
18137TIP3    H275903   4.413   5.245   4.576  0.8454  0.7452  0.7752
18138TIP3   OH275904   0.780   1.096   1.665  0.7337 -0.0851 -0.2320
18138TIP3    H175905   0.746   1.186   1.661  1.5870  0.2411 -0.2759
18138TIP3    H275906   0.828   1.086   1.583  0.2457 -0.7489 -0.4376
18139TIP3   OH275907   2.576   2.507   1.704 -0.4604 -0.1208 -0.7319
18139TIP3    H175908   2.518   2.433   1.721  2.0341 -2.0494 -0.4445
18139TIP3    H275909   2.590   2.505   1.609 -1.3125  0.7195 -0.8863
18140TIP3   OH275910   6.591   5.274   2.538  0.0888  0.2805 -0.0993
18140TIP3    H175911   6.629   5.352   2.578  0.1184 -0.4877  1.4058
18140TIP3    H275912   6.497   5.294   2.532  0.2836  0.9612 -0.9892
18141TIP3   OH275913   0.023   3.057  12.710  0.1783  0.0214  0.0287
18141TIP3    H175914  -0.024   3.113  12.649  1.9670  0.3734 -1.0447
18141TIP3    H275915   0.006   2.968  12.679 -1.1438  0.0411  0.6495
18142TIP3   OH275916   4.418   2.162  11.961 -0.3766 -0.2843 -0.6046
18142TIP3    H175917   4.377   2.096  11.905 -2.3013  0.6331 -0.2985
18142TIP3    H275918   4.426   2.239  11.905 -0.0115 -0.1320 -0.3450
18143TIP3   OH275919   5.731   1.325  14.447  0.5225 -0.2154 -0.0736
18143TIP3    H175920   5.738   1.231  14.462 -1.5053 -0.3540  0.1725
18143TIP3    H275921   5.809   1.347  14.397  0.7967 -2.1122 -0.5354
18144TIP3   OH275922   0.589   5.414   1.214 -0.3525 -0.8934 -0.1177
18144TIP3    H175923   0.507   5.462   1.230 -0.0237 -0.4257  0.1960
18144TIP3    H275924   0.603   5.421   1.120  1.5236  2.6692  0.3647
18145TIP3   OH275925   6.211   2.952  12.147  0.4519 -0.1314  0.3696
18145TIP3    H175926   6.138   2.913  12.193  0.0396 -0.2177 -0.3563
18145TIP3    H275927   6.189   2.944  12.054  1.4006 -0.2114  0.1419
18146TIP3   OH275928   2.692   4.760   0.419  0.6376 -0.1900 -0.4123
18146TIP3    H175929   2.693   4.856   0.417 -1.0085 -0.0913  2.0610
18146TIP3    H275930   2.601   4.737   0.402  1.0860 -1.3672 -1.3259
18147TIP3   OH275931   0.266   2.537  15.276  0.2621  0.3277  0.0948
18147TIP3    H175932   0.215   2.502  15.203 -1.2533 -0.1449  1.3753
18147TIP3    H275933   0.354   2.551  15.239  0.4573 -3.1857 -0.8792
18148TIP3   OH275934   5.714   0.061  12.657 -0.4362  0.0652 -0.4400
18148TIP3    H175935   5.781   0.031  12.718 -2.2122  0.0239  1.5513
18148TIP3    H275936   5.671  -0.019  12.627 -2.3483  0.2902  1.5679
18149TIP3   OH275937   1.023   6.759   3.682  0.1502 -0.0215  0.2962
18149TIP3    H175938   1.046   6.844   3.645  1.1676  0.4234  1.8774
18149TIP3    H275939   1.088   6.699   3.645 -0.2964 -0.0442 -0.4714
18150TIP3   OH275940   6.528   1.506   4.530  0.0253  0.1279  0.1719
18150TIP3    H175941   6.485   1.488   4.613 -1.0852  0.1846 -0.3828
18150TIP3    H275942   6.585   1.430   4.515 -0.0968 -0.0804  0.7709
18151TIP3   OH275943   1.121   4.711  11.988  0.5553  0.4352  0.0598
18151TIP3    H175944   1.075   4.655  12.051  0.3461 -0.3492 -0.7697
18151TIP3    H275945   1.056   4.728  11.920  0.4685  2.1186  0.5554
18152TIP3   OH275946   2.345   0.810  17.287  0.9662  0.2952  0.3051
18152TIP3    H175947   2.329   0.723  17.325  1.3870  0.8477  1.7877
18152TIP3    H275948   2.395   0.793  17.208  0.3460 -0.8717  0.1476
18153TIP3   OH275949   0.316   3.107  17.072 -0.0203  0.1060 -0.2542
18153TIP3    H175950   0.298   3.013  17.064 -1.1420  0.3708 -0.8861
18153TIP3    H275951   0.380   3.113  17.143  0.4081 -1.1739 -0.5245
18154TIP3   OH275952   5.816   1.445   6.575 -0.2442  0.4297 -0.0646
18154TIP3    H175953   5.796   1.520   6.519 -0.8586 -0.2850 -0.8134
18154TIP3    H275954   5.911   1.436   6.570 -0.2108  0.8818 -0.3227
18155TIP3   OH275955   1.881   0.385  11.994 -0.1029 -0.1502  0.2086
18155TIP3    H175956   1.854   0.454  12.055  0.8864  0.8194 -0.4138
18155TIP3    H275957   1.963   0.352  12.030  0.3392  0.2322 -0.4331
18156TIP3   OH275958   6.295   6.624   2.788 -0.0516 -0.3889 -0.5121
18156TIP3    H175959   6.360   6.586   2.847  1.6321  1.4408 -1.1414
18156TIP3    H275960   6.262   6.700   2.835 -2.7621 -2.0525  0.3694
18157TIP3   OH275961   3.538   1.111  11.697  0.3073  0.1113  0.4050
18157TIP3    H175962   3.510   1.026  11.663 -1.9625  0.3385  1.5939
18157TIP3    H275963   3.534   1.169  11.622  1.6188 -0.7736 -0.3591
18158TIP3   OH275964   0.705   2.585  16.891 -0.0653 -0.4387  0.0002
18158TIP3    H175965   0.714   2.548  16.804  2.0159  0.4585 -0.1941
18158TIP3    H275966   0.777   2.548  16.941 -1.3316 -1.0754  1.4253
18159TIP3   OH275967   6.272   1.702   6.411 -0.2400  0.3244 -0.1463
18159TIP3    H175968   6.204   1.762   6.378 -0.8088  0.5867  1.4444
18159TIP3    H275969   6.354   1.750   6.397 -0.5014  0.6109 -0.7532
18160TIP3   OH275970   1.344   2.523  11.220  0.3181 -0.1106 -0.4429
18160TIP3    H175971   1.308   2.465  11.152 -2.0087  0.0350  0.6339
18160TIP3    H275972   1.356   2.607  11.175 -0.0534 -0.3397 -0.9813
18161TIP3   OH275973   0.801   4.261   1.437 -0.0712 -0.2511 -0.9687
18161TIP3    H175974   0.836   4.176   1.463  2.9392 -0.3649 -4.9399
18161TIP3    H275975   0.876   4.320   1.438 -1.4908  1.6211 -1.2660
18162TIP3   OH275976   6.598   6.478  14.306 -0.8013 -0.3563  0.2795
18162TIP3    H175977   6.692   6.466  14.319 -0.6781  0.7190  0.3603
18162TIP3    H275978   6.563   6.389  14.310  0.3232 -0.8703 -0.7184
18163TIP3   OH275979   3.200   0.327   1.203 -0.5791 -0.5266 -0.5996
18163TIP3    H175980   3.131   0.300   1.142 -0.2533  0.4741 -1.4329
18163TIP3    H275981   3.248   0.247   1.222 -0.6470 -0.8402 -1.7082
18164TIP3   OH275982   4.608   0.968   2.515 -0.5236 -0.6585  0.0536
18164TIP3    H175983   4.638   0.940   2.602  0.1076 -0.2123 -0.0125
18164TIP3    H275984   4.685   0.957   2.459 -1.2703 -2.0459 -0.7026
18165TIP3   OH275985   5.606   3.116  15.971 -0.0408  0.1749  0.0272
18165TIP3    H175986   5.650   3.067  16.040 -0.2355  1.1632  0.8581
18165TIP3    H275987   5.552   3.051  15.926  2.6253 -1.1833 -1.3656
18166TIP3   OH275988   6.581   0.285   3.208  0.0114 -0.0235 -0.1754
18166TIP3    H175989   6.498   0.320   3.175  0.8906  2.2483 -0.0763
18166TIP3    H275990   6.585   0.315   3.299  1.4418  0.8767 -0.5158
18167TIP3   OH275991   1.048   2.584  13.584 -0.5866 -0.5298 -0.0392
18167TIP3    H175992   0.979   2.523  13.557 -1.6810  1.2439 -1.2903
18167TIP3    H275993   1.053   2.648  13.513 -1.1811  2.2870  2.3561
18168TIP3   OH275994   5.920   0.463   5.553  0.3746 -0.3543  0.4056
18168TIP3    H175995   5.947   0.553   5.568 -0.5141 -0.1508  0.8387
18168TIP3    H275996   5.965   0.413   5.622  3.2561 -0.7047 -1.6494
18169TIP3   OH275997   6.650   3.939   6.814  0.1506 -0.1730  0.2528
18169TIP3    H175998   6.598   3.978   6.744  0.2100 -3.1671 -1.5372
18169TIP3    H275999   6.663   4.010   6.877 -4.2817  1.2078 -0.2681
18170TIP3   OH276000   3.764   5.453   4.730 -0.0046  0.1795 -0.2537
18170TIP3    H176001   3.699   5.504   4.778  0.1170  1.7399 -1.7256
18170TIP3    H276002   3.724   5.437   4.644  0.9482 -0.1234 -0.6472
18171TIP3   OH276003   0.966   5.153  16.616 -0.5237  0.1816  0.3283
18171TIP3    H176004   0.883   5.121  16.651  0.9670 -3.7389  0.5441
18171TIP3    H276005   1.002   5.077  16.569  2.1350  2.3285 -1.1942
18172TIP3   OH276006   6.419   5.925   1.284 -0.4093  0.6126  0.3880
18172TIP3    H176007   6.389   5.933   1.194 -0.8771 -1.1537  0.3803
18172TIP3    H276008   6.477   6.000   1.297 -1.0616  1.3816 -1.0873
18173TIP3   OH276009   0.665   4.379  12.411  0.3510 -0.8037 -0.4575
18173TIP3    H176010   0.678   4.432  12.489 -0.0916  0.7789 -1.4420
18173TIP3    H276011   0.570   4.383  12.394  0.6520  0.3326 -2.0605
18174TIP3   OH276012   1.520   3.709   6.608  0.2350  0.2310 -0.1269
18174TIP3    H176013   1.457   3.637   6.602  1.6419 -0.9750 -0.6122
18174TIP3    H276014   1.600   3.668   6.640  0.9226  1.6642 -0.0031
18175TIP3   OH276015   5.609   6.366   5.123  1.1014  0.0972 -0.3029
18175TIP3    H176016   5.582   6.449   5.083 -1.1137 -0.6714 -0.4960
18175TIP3    H276017   5.630   6.389   5.213  1.1742  0.9981 -0.5452
18176TIP3   OH276018   1.956   5.520   3.448 -0.3234  0.1213 -0.1663
18176TIP3    H176019   1.977   5.611   3.426 -0.6804  0.1801 -0.2691
18176TIP3    H276020   2.039   5.473   3.438  0.6376  1.0304  3.1020
18177TIP3   OH276021   5.497   3.469   3.388 -0.2209 -0.1472  0.0200
18177TIP3    H176022   5.405   3.490   3.407  0.2164 -0.0452  2.1596
18177TIP3    H276023   5.543   3.552   3.401 -0.0310  0.2436 -2.8211
18178TIP3   OH276024   5.448   5.496  12.946 -0.1943  0.1254 -0.4144
18178TIP3    H176025   5.378   5.533  13.000 -0.1348  1.8754 -1.4989
18178TIP3    H276026   5.527   5.543  12.974  0.0701  0.1032 -1.1058
18179TIP3   OH276027   2.039   5.751  12.229 -0.0665 -0.1929  0.0203
18179TIP3    H176028   2.034   5.765  12.134  0.0347  0.9558  0.1799
18179TIP3    H276029   2.035   5.655  12.239 -2.3259 -0.2176 -0.9863
18180TIP3   OH276030   2.458   3.455  13.533 -0.2283  0.2058 -0.2309
18180TIP3    H176031   2.431   3.529  13.478 -0.6868  2.0423  2.3712
18180TIP3    H276032   2.388   3.445  13.597  0.6548 -1.3747  0.5302
18181TIP3   OH276033   3.094   6.237  11.618  0.6461 -0.4716  0.2778
18181TIP3    H176034   3.029   6.271  11.556 -1.1895  1.1611  2.9753
18181TIP3    H276035   3.178   6.272  11.588 -0.2113  0.2430 -1.3033
18182TIP3   OH276036   2.805   6.054  15.081 -0.5564 -0.1703  0.1448
18182TIP3    H176037   2.792   6.010  14.997 -0.4203  0.5694 -0.2713
18182TIP3    H276038   2.841   5.987  15.139  0.0335 -0.4858 -0.5942
18183TIP3   OH276039   5.518   6.582  11.545  0.6337 -0.0205  0.4951
18183TIP3    H176040   5.440   6.626  11.510  2.2225  1.7506 -0.9146
18183TIP3    H276041   5.544   6.636  11.620  1.6725  0.5511 -0.2731
18184TIP3   OH276042   2.472   5.464  15.180  0.0360  0.6937 -0.3328
18184TIP3    H176043   2.446   5.454  15.271 -0.1059  2.8003 -0.1117
18184TIP3    H276044   2.393   5.449  15.130 -0.1710  0.7848 -0.0336
18185TIP3   OH276045   2.453   4.595   6.452 -0.1643 -0.3428  0.1852
18185TIP3    H176046   2.509   4.633   6.519  0.0888  0.7753 -0.6486
18185TIP3    H276047   2.375   4.651   6.450 -0.2730 -0.5000 -0.2915
18186TIP3   OH276048   0.453   4.309  16.182  0.4045 -0.2548 -0.2187
18186TIP3    H176049   0.494   4.379  16.132 -0.5134  0.5018  0.0703
18186TIP3    H276050   0.451   4.342  16.272 -2.6776  0.6148 -0.5407
18187TIP3   OH276051   0.906   2.514   6.092 -0.0774 -0.1147 -0.2246
18187TIP3    H176052   0.997   2.527   6.064  0.2743 -0.8072  0.5582
18187TIP3    H276053   0.913   2.454   6.166 -1.0564  0.9226  0.7244
18188TIP3   OH276054   4.236   4.050  11.987 -0.6187  0.1216 -0.0565
18188TIP3    H176055   4.202   4.004  12.064 -0.2204  1.1559  0.7543
18188TIP3    H276056   4.328   4.024  11.983 -1.0447 -1.2987 -1.2233
18189TIP3   OH276057   3.609   6.143   6.366  0.6975  0.5093  0.3882
18189TIP3    H176058   3.667   6.171   6.437 -1.0344  1.3451  1.5435
18189TIP3    H276059   3.603   6.220   6.309  0.2958  0.6308  0.5884
18190TIP3   OH276060   2.707   3.248   5.616 -0.0216  0.5517  0.3973
18190TIP3    H176061   2.786   3.253   5.563 -1.9257  0.2840 -2.6098
18190TIP3    H276062   2.698   3.335   5.655  1.0854  0.9508 -0.2208
18191TIP3   OH276063   6.379   1.275   1.731  0.3293 -0.2091  0.1054
18191TIP3    H176064   6.424   1.217   1.670  0.5229  1.3026 -1.2355
18191TIP3    H276065   6.431   1.356   1.730 -0.6252  0.4344  0.9729
18192TIP3   OH276066   4.228   5.208  12.525  0.6018  0.4988 -0.1956
18192TIP3    H176067   4.308   5.218  12.475  0.3848  2.0718 -0.2443
18192TIP3    H276068   4.183   5.134  12.484  2.2214 -0.6915  0.1202
18193TIP3   OH276069   5.639   2.540  10.825  0.0028  0.4997 -0.0453
18193TIP3    H176070   5.666   2.623  10.864  1.3609 -0.2882  0.7035
18193TIP3    H276071   5.575   2.565  10.758  0.1440  2.1165  0.4042
18194TIP3   OH276072   2.067   1.388  15.888  0.1298 -0.1592  0.3640
18194TIP3    H176073   2.092   1.393  15.980  2.1345  1.3672 -0.2336
18194TIP3    H276074   2.138   1.338  15.847 -0.4747 -0.3500 -0.4648
18195TIP3   OH276075   5.446   5.378  10.796 -0.7338 -0.0151  0.3440
18195TIP3    H176076   5.480   5.467  10.794 -0.9687  0.0637 -2.2100
18195TIP3    H276077   5.472   5.341  10.711 -1.1046 -2.2040  1.1415
18196TIP3   OH276078   4.030   0.638   2.372 -0.2602 -0.5344  0.2322
18196TIP3    H176079   4.057   0.568   2.312 -4.5293 -1.3165 -0.9012
18196TIP3    H276080   4.038   0.718   2.320 -1.4665 -0.9167 -0.5462
18197TIP3   OH276081   2.430   0.291   4.290 -0.0026 -0.5522 -0.3983
18197TIP3    H176082   2.355   0.231   4.287 -0.5845  0.1710 -0.3529
18197TIP3    H276083   2.435   0.326   4.201 -1.1196  1.1095  0.1734
18198TIP3   OH276084   2.805   3.591  12.171 -0.2374  0.3820 -0.1982
18198TIP3    H176085   2.754   3.589  12.090  1.4998 -0.4002 -1.3056
18198TIP3    H276086   2.742   3.569  12.239 -1.9645  2.1827 -1.1903
18199TIP3   OH276087   4.753   1.506   4.997 -0.0131 -0.3195 -0.9078
18199TIP3    H176088   4.755   1.576   5.063  1.9092  0.0710 -1.3480
18199TIP3    H276089   4.753   1.425   5.048  0.6256 -0.0091 -0.4091
18200TIP3   OH276090   6.208   6.395   1.163 -0.6084 -0.5360  0.3630
18200TIP3    H176091   6.167   6.333   1.224 -1.4188  1.0189  1.4204
18200TIP3    H276092   6.300   6.396   1.189 -0.2092 -2.6622 -0.8511
18201TIP3   OH276093   4.443   6.702   1.985  0.9501 -0.3318 -0.1475
18201TIP3    H176094   4.515   6.765   1.982  0.1634  0.6038  0.5345
18201TIP3    H276095   4.462   6.648   2.061  0.3666  0.6078  0.6783
18202TIP3   OH276096   4.441   0.444   1.462 -0.3252  0.1828 -0.0041
18202TIP3    H176097   4.376   0.431   1.392  0.1627  0.9729 -0.6118
18202TIP3    H276098   4.479   0.357   1.476 -1.8467 -0.3957  0.6913
18203TIP3   OH276099   0.480   3.861  12.005 -0.2901 -0.4203  0.1310
18203TIP3    H176100   0.487   3.796  11.935  0.4785 -0.4227  0.2093
18203TIP3    H276101   0.488   3.812  12.086 -0.8517 -0.3716  0.2225
18204TIP3   OH276102   1.688   2.537   3.895 -0.2861  0.0888  0.0790
18204TIP3    H176103   1.720   2.503   3.811 -0.5365 -0.5125  0.2195
18204TIP3    H276104   1.731   2.482   3.960 -0.0790  0.5699  0.3437
18205TIP3   OH276105   0.092   3.093  14.084 -1.1477 -0.1573  0.6251
18205TIP3    H176106   0.112   3.083  13.991  1.6193 -1.0433  1.2707
18205TIP3    H276107   0.075   3.186  14.095 -1.5327 -0.0505 -0.7717
18206TIP3   OH276108   6.443   1.038  12.301  0.4036  0.3106  0.8689
18206TIP3    H176109   6.417   0.952  12.335  1.8691 -1.0148 -1.2351
18206TIP3    H276110   6.536   1.045  12.322  0.3093  1.3536  0.9589
18207TIP3   OH276111   4.774   4.891   2.179  0.2282  0.2797 -0.0374
18207TIP3    H176112   4.801   4.801   2.198 -0.1951  0.8294  3.5056
18207TIP3    H276113   4.691   4.882   2.131 -0.8837 -1.2295  2.0923
18208TIP3   OH276114   1.681   3.206   5.223 -0.3940  0.1269  0.3999
18208TIP3    H176115   1.656   3.133   5.281  1.3596 -0.2445  0.7305
18208TIP3    H276116   1.767   3.181   5.190 -0.9476  0.8109 -1.6073
18209TIP3   OH276117   2.807   6.329   4.196 -0.2189 -0.0435  0.1955
18209TIP3    H176118   2.740   6.379   4.151 -0.4869  0.3885  1.0710
18209TIP3    H276119   2.862   6.395   4.239 -0.1727 -0.4677  0.7932
18210TIP3   OH276120   2.333   5.699  15.532 -0.3186  0.2319  0.2569
18210TIP3    H176121   2.339   5.702  15.628 -0.7604  0.0756  0.2886
18210TIP3    H276122   2.285   5.778  15.508 -0.7853 -0.0665  0.2099
18211TIP3   OH276123   2.815   0.851   4.894 -0.0096 -0.1256 -0.0832
18211TIP3    H176124   2.889   0.791   4.887 -0.0463 -0.1262 -0.4790
18211TIP3    H276125   2.809   0.893   4.808 -1.1994 -0.9801 -0.4304
18212TIP3   OH276126   0.942   2.779   4.930  0.2310  0.3544 -0.1091
18212TIP3    H176127   0.975   2.828   4.855 -1.4724  0.7806 -0.5978
18212TIP3    H276128   0.912   2.846   4.991 -0.2660 -0.0361  0.0808
18213TIP3   OH276129   3.432   6.770   2.200  0.5077  0.3407  0.1052
18213TIP3    H176130   3.511   6.761   2.253  0.4181 -0.1788  0.1469
18213TIP3    H276131   3.465   6.777   2.110  0.5146 -1.7683 -0.0738
18214TIP3   OH276132   2.158   2.850  15.623 -0.0285 -0.5259 -0.6242
18214TIP3    H176133   2.192   2.778  15.570 -0.3245 -1.1317 -0.0039
18214TIP3    H276134   2.160   2.817  15.713 -1.3150 -0.2054 -0.4603
18215TIP3   OH276135   1.223   5.433  12.189 -0.5634 -0.5921 -0.6480
18215TIP3    H176136   1.301   5.394  12.229  0.4384  1.8839 -0.0490
18215TIP3    H276137   1.256   5.479  12.112 -1.0957  2.0928  0.6855
18216TIP3   OH276138   1.014   5.732  17.119  0.4169  0.3142  0.6685
18216TIP3    H176139   0.984   5.747  17.208 -1.1440 -0.1879  0.2371
18216TIP3    H276140   1.034   5.638  17.115  2.0310  0.6377  0.9463
18217TIP3   OH276141   5.190   6.220   3.353  0.0973 -0.2146 -0.2743
18217TIP3    H176142   5.151   6.273   3.423  1.6624  2.0111 -1.0445
18217TIP3    H276143   5.184   6.130   3.386 -1.3519  0.5487  1.6707
18218TIP3   OH276144   4.200   0.659  15.065 -0.6007 -0.2040 -0.3679
18218TIP3    H176145   4.180   0.578  15.111  0.6971 -1.4293 -1.9130
18218TIP3    H276146   4.287   0.645  15.028 -1.2883  1.0278 -2.5505
18219TIP3   OH276147   2.475   3.387   3.285  0.2752 -0.7949 -0.0788
18219TIP3    H176148   2.567   3.412   3.293  0.1189  0.6992 -2.5329
18219TIP3    H276149   2.474   3.292   3.298  1.9885 -0.6512  1.1766
18220TIP3   OH276150   4.867   4.804  15.031 -0.1068  0.7048  0.1952
18220TIP3    H176151   4.873   4.712  15.007 -1.1070  0.2803  1.5189
18220TIP3    H276152   4.910   4.810  15.117  1.1203  1.7165 -0.4741
18221TIP3   OH276153   4.854   5.811   6.346 -0.6789  0.1172  0.1355
18221TIP3    H176154   4.796   5.886   6.334 -1.0163 -0.2041 -0.3008
18221TIP3    H276155   4.797   5.735   6.330  0.0252 -0.1804 -1.0286
18222TIP3   OH276156   6.710   2.807  15.254 -0.0601  0.6533  0.1643
18222TIP3    H176157   6.747   2.782  15.169  0.4258  1.0122  0.2703
18222TIP3    H276158   6.615   2.797  15.243  0.1326 -1.7058  0.3470
18223TIP3   OH276159   6.562   6.459   3.620 -0.1701  0.5657  0.0729
18223TIP3    H176160   6.627   6.481   3.687  0.7020  0.0928 -0.6034
18223TIP3    H276161   6.611   6.463   3.537 -0.1658 -2.9848 -0.1749
18224TIP3   OH276162   2.109   6.258  12.499 -0.1934  0.1199 -0.1068
18224TIP3    H176163   2.020   6.265  12.533 -0.1930 -1.2229  0.2051
18224TIP3    H276164   2.163   6.298  12.567 -0.3987 -0.6304  0.5038
18225TIP3   OH276165   2.366   0.705  14.678  0.2212 -0.3179 -0.0787
18225TIP3    H176166   2.411   0.628  14.642 -0.2155 -0.0859 -1.1295
18225TIP3    H276167   2.405   0.717  14.765  1.1294 -1.0199 -0.3812
18226TIP3   OH276168   4.527   0.733   4.729  0.0961 -0.0592  0.2227
18226TIP3    H176169   4.543   0.686   4.811  1.2521  0.5244  0.3503
18226TIP3    H276170   4.544   0.824   4.751 -2.6967  0.5221  0.1206
18227TIP3   OH276171   4.981   0.346  15.915  0.0036 -0.5257  0.0847
18227TIP3    H176172   4.917   0.392  15.969 -0.0462  1.2174 -1.4123
18227TIP3    H276173   4.931   0.317  15.838  0.8277  0.1708 -0.7266
18228TIP3   OH276174   2.900   6.460  14.097 -0.3963  0.2081  0.2466
18228TIP3    H176175   2.817   6.476  14.141  0.3374 -0.5153  1.9374
18228TIP3    H276176   2.936   6.383  14.141 -0.0538 -1.1057 -2.2369
18229TIP3   OH276177   0.849   1.849  13.372  0.1105 -0.4975  0.2541
18229TIP3    H176178   0.895   1.932  13.356  0.2768 -0.2251  2.0647
18229TIP3    H276179   0.785   1.869  13.440  0.1454 -1.8506  0.7127
18230TIP3   OH276180   3.375   5.393   3.517  0.3178 -0.1096  0.6769
18230TIP3    H176181   3.369   5.486   3.541  0.5477 -0.2000  1.0990
18230TIP3    H276182   3.332   5.348   3.590 -0.1973 -0.3047  0.2502
18231TIP3   OH276183   6.727   5.130  13.109  0.2413 -0.0898  0.1942
18231TIP3    H176184   6.692   5.070  13.044 -0.6012  0.7434 -0.1251
18231TIP3    H276185   6.663   5.129  13.180  0.7057 -0.3067  0.6106
18232TIP3   OH276186   0.881   3.602  15.435  0.1214 -0.0077 -0.0937
18232TIP3    H176187   0.928   3.674  15.391  2.8022 -2.0134 -0.6398
18232TIP3    H276188   0.889   3.528  15.375 -2.0666 -0.9774  0.7507
18233TIP3   OH276189   4.772   5.191   1.095 -0.4041  0.0814 -0.2381
18233TIP3    H176190   4.810   5.136   1.163 -1.3756 -0.0435  0.2021
18233TIP3    H276191   4.782   5.140   1.015 -0.5730 -0.3890  0.0377
18234TIP3   OH276192   0.509   4.494  15.982 -0.2357 -0.5254  0.4942
18234TIP3    H176193   0.586   4.505  15.926 -0.7966  0.6680 -0.0853
18234TIP3    H276194   0.450   4.439  15.931  0.6766 -2.3652  1.4077
18235TIP3   OH276195   1.193   1.906   3.914  0.6458 -0.1064 -0.5435
18235TIP3    H176196   1.169   1.977   3.854 -1.2941 -0.0976  0.2005
18235TIP3    H276197   1.283   1.883   3.890  1.3128  2.5975 -0.8169
18236TIP3   OH276198   1.223   1.704  17.231 -0.5632  0.5722 -0.3718
18236TIP3    H176199   1.167   1.630  17.208 -0.4014  0.2351  0.2879
18236TIP3    H276200   1.251   1.685  17.321 -1.0880  1.7833  0.0627
18237TIP3   OH276201   5.484   5.370  11.931  0.0975 -0.7168 -0.4673
18237TIP3    H176202   5.500   5.337  12.020 -0.1606  1.2559  0.3483
18237TIP3    H276203   5.561   5.344  11.881  1.2505 -0.0119  0.8873
18238TIP3   OH276204   5.177   6.244   2.452  0.2765 -0.3704  0.0277
18238TIP3    H176205   5.271   6.227   2.461 -0.1855 -2.9686  0.2846
18238TIP3    H276206   5.141   6.224   2.538 -0.5506  0.3164 -0.1615
18239TIP3   OH276207   2.816   3.627   2.013  0.4779 -0.4109  0.1789
18239TIP3    H176208   2.758   3.663   1.946 -0.3161  0.1660  1.1707
18239TIP3    H276209   2.896   3.603   1.965  0.0621  0.3431 -0.9019
18240TIP3   OH276210   4.920   3.469   0.593 -0.0896 -0.3586 -0.2821
18240TIP3    H176211   5.007   3.482   0.557  0.2161 -1.5306  0.0206
18240TIP3    H276212   4.889   3.389   0.551 -0.6208 -0.4990  0.3772
18241TIP3   OH276213   1.268   2.446   3.308 -0.3141  0.4935 -0.3875
18241TIP3    H176214   1.269   2.428   3.214  0.3022  3.4364 -0.9829
18241TIP3    H276215   1.177   2.429   3.334 -0.1438 -1.8173 -1.1647
18242TIP3   OH276216   4.378   4.861  11.183  0.0599  0.6960 -0.1333
18242TIP3    H176217   4.395   4.850  11.276  0.2500 -0.4633 -0.2965
18242TIP3    H276218   4.334   4.780  11.156 -1.1308  1.5448 -0.7931
18243TIP3   OH276219   4.868   6.091  10.455  0.4537  0.4242  0.0757
18243TIP3    H176220   4.776   6.091  10.482  0.0052  0.6026 -1.3957
18243TIP3    H276221   4.866   6.124  10.365  1.8124 -0.9300 -0.4679
18244TIP3   OH276222   5.777   0.841   1.428  0.5214 -0.3541  0.5935
18244TIP3    H176223   5.710   0.812   1.488 -1.2779  2.3266 -0.0036
18244TIP3    H276224   5.804   0.927   1.462  1.3995 -0.0250 -0.8745
18245TIP3   OH276225   6.525   0.693  12.639 -0.2141  0.3269 -0.3345
18245TIP3    H176226   6.487   0.605  12.636 -1.7761  0.9885 -0.2276
18245TIP3    H276227   6.523   0.723  12.548 -0.0773  0.4301 -0.3043
18246TIP3   OH276228   4.425   1.391   4.093 -0.1819 -0.0226  0.0715
18246TIP3    H176229   4.483   1.393   4.017  0.1713  0.4223  0.3542
18246TIP3    H276230   4.446   1.309   4.137  0.7655  0.4889  0.5859
18247TIP3   OH276231   5.295   2.646  13.149  0.0010 -0.5999 -0.2892
18247TIP3    H176232   5.216   2.646  13.096 -0.1066  0.4557 -0.1238
18247TIP3    H276233   5.277   2.705  13.222  0.6261 -1.0240  0.2277
18248TIP3   OH276234   0.322   5.401   5.021 -0.2795  0.0703 -0.2178
18248TIP3    H176235   0.312   5.457   4.945 -0.0892  1.9428  1.1049
18248TIP3    H276236   0.401   5.434   5.065 -0.1011 -1.2964  0.5392
18249TIP3   OH276237   0.526   6.113  10.474  0.1465  0.7523  0.3140
18249TIP3    H176238   0.444   6.101  10.425 -0.7410  0.8561  1.7649
18249TIP3    H276239   0.512   6.068  10.557  2.3709 -1.1363 -0.2683
18250TIP3   OH276240   2.009   5.145   2.828  0.1393 -0.2019 -0.3771
18250TIP3    H176241   1.948   5.209   2.863  2.3894  1.5885  0.4399
18250TIP3    H276242   1.954   5.077   2.790 -2.3228  1.4401  0.1378
18251TIP3   OH276243   0.212   5.172  14.490 -0.3759 -0.2380  0.3222
18251TIP3    H176244   0.293   5.205  14.528 -0.3443 -0.2275  0.2457
18251TIP3    H276245   0.214   5.201  14.399 -0.2125 -0.6937  0.1780
18252TIP3   OH276246   4.357   5.496  17.093 -0.2216  0.0035 -0.1788
18252TIP3    H176247   4.283   5.450  17.132 -0.7402 -0.1794 -1.3446
18252TIP3    H276248   4.407   5.428  17.048  0.0506  0.2865 -0.3048
18253TIP3   OH276249   5.366   6.061   4.091  0.2860  0.0573  0.2549
18253TIP3    H176250   5.419   6.123   4.042 -0.2082 -0.4387 -0.9280
18253TIP3    H276251   5.412   5.977   4.080 -0.3075 -0.2241 -0.1174
18254TIP3   OH276252   2.065   4.105  14.409  0.6495 -0.2295  0.1059
18254TIP3    H176253   1.978   4.134  14.437  0.8534 -1.1129  1.7649
18254TIP3    H276254   2.121   4.182  14.418  0.1246  0.2295 -0.5553
18255TIP3   OH276255   5.028   5.227  11.486 -0.8847  0.2439 -0.2432
18255TIP3    H176256   4.979   5.160  11.533  1.4132 -0.7151  0.8483
18255TIP3    H276257   5.016   5.307  11.538  0.1459 -0.3921  0.9829
18256TIP3   OH276258   2.307   1.771  10.858  0.2306  0.1029  0.6108
18256TIP3    H176259   2.388   1.721  10.851 -0.7809 -1.4487 -0.4232
18256TIP3    H276260   2.297   1.814  10.773 -0.6370 -0.7283  0.2708
18257TIP3   OH276261   5.433   4.281  11.665 -0.2140  0.3771 -0.4568
18257TIP3    H176262   5.527   4.262  11.657 -0.4730 -1.3175  0.2420
18257TIP3    H276263   5.403   4.294  11.575  0.8353  1.7023 -0.6296
18258TIP3   OH276264   2.294   4.905  12.996  0.1912  0.0142 -0.8775
18258TIP3    H176265   2.298   4.895  12.901 -1.8755 -1.5560 -0.8320
18258TIP3    H276266   2.363   4.847  13.029  0.0919 -0.3890 -1.3730
18259TIP3   OH276267   5.631   0.850   0.125  0.2792  0.0268  0.9051
18259TIP3    H176268   5.726   0.837   0.119  0.2037  0.2064 -1.2559
18259TIP3    H276269   5.617   0.937   0.087 -0.9416 -0.8834 -0.8056
18260TIP3   OH276270   0.414   3.861   0.278  0.4698  0.4765  0.1496
18260TIP3    H176271   0.345   3.858   0.344  0.1071 -0.9695 -0.2652
18260TIP3    H276272   0.467   3.783   0.296  0.6235  0.3090 -0.9685
18261TIP3   OH276273   3.931   3.262  13.787  0.0476  0.5706 -0.2843
18261TIP3    H176274   3.851   3.218  13.815 -0.2532  0.7673 -0.8317
18261TIP3    H276275   3.959   3.313  13.863 -0.7171  1.0459 -0.3252
18262TIP3   OH276276   3.061   5.937  11.271  0.1940  0.9148  0.2271
18262TIP3    H176277   2.996   6.007  11.278  0.1148  1.0056 -1.1578
18262TIP3    H276278   3.009   5.857  11.268  0.2154  0.8935  0.4186
18263TIP3   OH276279   3.027   0.842   0.966 -0.5841 -0.3697  0.2236
18263TIP3    H176280   3.001   0.868   1.055  2.2076 -0.0137  0.9791
18263TIP3    H276281   3.031   0.924   0.918  1.9845 -0.0769  0.9031
18264TIP3   OH276282   0.438   0.942   5.929 -0.5844  0.2716  0.3964
18264TIP3    H176283   0.411   0.929   5.838  0.3616 -0.6152  0.2350
18264TIP3    H276284   0.367   0.907   5.982 -0.4348 -0.6602 -0.0150
18265TIP3   OH276285   2.756   6.086   2.056  0.1976  0.2163  0.0603
18265TIP3    H176286   2.753   6.181   2.043 -0.7254  0.0991 -0.6380
18265TIP3    H276287   2.706   6.051   1.983  0.6169 -0.8182  0.2715
18266TIP3   OH276288   4.368   0.038  12.425  0.7960 -0.2726 -0.8565
18266TIP3    H176289   4.310  -0.013  12.483  1.0671 -0.0676 -0.4034
18266TIP3    H276290   4.455   0.003  12.441  1.1129  0.9240  0.1135
18267TIP3   OH276291   5.715   1.172   4.346  0.0022 -0.1409  0.0458
18267TIP3    H176292   5.665   1.239   4.392  0.1092 -0.4629  0.6272
18267TIP3    H276293   5.705   1.093   4.399  0.3930 -0.4313 -0.3060
18268TIP3   OH276294   5.331   3.488   2.419 -0.1130  0.0135 -0.0564
18268TIP3    H176295   5.284   3.406   2.436  0.5005 -0.3525 -0.0848
18268TIP3    H276296   5.275   3.535   2.357 -0.3193 -0.5334 -0.2953
18269TIP3   OH276297   3.122   5.066   4.790  0.0561 -0.3179  0.2488
18269TIP3    H176298   3.028   5.064   4.808  0.4624 -0.6952  2.5747
18269TIP3    H276299   3.131   5.118   4.710 -2.0718  0.4448  0.4844
18270TIP3   OH276300   1.349   1.935  12.559 -0.0015 -0.2748 -0.3906
18270TIP3    H176301   1.309   1.875  12.622  3.8950 -0.5250  2.0040
18270TIP3    H276302   1.351   1.886  12.477  0.0060 -2.1584  0.6957
18271TIP3   OH276303   5.724   3.923   4.601  0.2161 -0.1739 -0.1904
18271TIP3    H176304   5.651   3.866   4.578  0.1187  0.2442 -0.9334
18271TIP3    H276305   5.715   3.937   4.695 -1.6952  1.3044 -0.5659
18272TIP3   OH276306   6.612   0.579  11.888  0.1167  0.2953  0.4798
18272TIP3    H176307   6.554   0.632  11.834  0.0071 -1.6072 -1.3496
18272TIP3    H276308   6.681   0.551  11.829  1.9472  1.0146  2.1924
18273TIP3   OH276309   4.777   2.835  12.897  0.0266 -0.0163  0.3866
18273TIP3    H176310   4.716   2.763  12.878  0.4118 -0.0582 -0.7229
18273TIP3    H276311   4.803   2.867  12.811  0.4958  0.9221  0.8751
18274TIP3   OH276312   0.381   1.647  15.752 -0.2703  0.3437  0.1932
18274TIP3    H176313   0.365   1.552  15.753  1.0973  0.1139  0.7163
18274TIP3    H276314   0.326   1.679  15.681 -0.5995 -0.8727 -0.1197
18275TIP3   OH276315   2.545   5.366   3.581  0.2839 -0.1297 -0.1342
18275TIP3    H176316   2.581   5.396   3.664 -0.1602 -2.3520  0.9028
18275TIP3    H276317   2.603   5.294   3.554 -1.1563 -1.2591 -0.3192
18276TIP3   OH276318   2.314   0.818  10.411 -0.7367  0.5258  0.5335
18276TIP3    H176319   2.225   0.810  10.375 -0.1812  0.7437 -0.9016
18276TIP3    H276320   2.331   0.733  10.452 -1.1776  0.0899 -0.1840
18277TIP3   OH276321   5.055   5.816   2.053  0.1448  0.5579 -0.2981
18277TIP3    H176322   5.090   5.866   1.980  2.2656  1.6849  1.4392
18277TIP3    H276323   4.975   5.863   2.079 -0.3523  0.4229 -1.5433
18278TIP3   OH276324   0.399   1.470   3.085  0.0896 -0.2539 -0.7389
18278TIP3    H176325   0.315   1.513   3.100  1.0443  0.8441  1.6034
18278TIP3    H276326   0.382   1.378   3.105 -1.0216 -0.3856 -2.1717
18279TIP3   OH276327   2.559   4.452  14.423 -0.2768 -0.1485 -0.1670
18279TIP3    H176328   2.594   4.364  14.414 -1.9833 -0.9464  0.6489
18279TIP3    H276329   2.516   4.470  14.340 -1.6849 -0.9126  0.3801
18280TIP3   OH276330   5.650   5.440   5.175  0.2330  0.2659 -0.3175
18280TIP3    H176331   5.615   5.373   5.234 -0.8958  1.5679  0.5246
18280TIP3    H276332   5.713   5.393   5.120  1.4683 -0.9382  2.0397
18281TIP3   OH276333   0.995   1.927   1.896 -0.0588 -0.1648 -0.2473
18281TIP3    H176334   0.975   1.992   1.828 -1.7861  0.0094  0.4043
18281TIP3    H276335   0.911   1.910   1.939  0.6694 -1.6409  0.6508
18282TIP3   OH276336   0.845   0.878  16.447 -0.7640 -0.2838  0.5549
18282TIP3    H176337   0.896   0.896  16.527 -0.5449  0.3894  0.2669
18282TIP3    H276338   0.791   0.803  16.470  0.4737 -1.1075  0.8240
18283TIP3   OH276339   2.132   2.892  12.692  0.2840  0.7461 -0.3102
18283TIP3    H176340   2.130   2.919  12.601  2.3321  1.5787 -0.1434
18283TIP3    H276341   2.176   2.808  12.692 -1.2718 -0.0881 -0.2520
18284TIP3   OH276342   5.993   0.504   4.648  0.0673 -0.2196 -0.1706
18284TIP3    H176343   5.922   0.441   4.637 -1.3950  1.2598  0.6078
18284TIP3    H276344   6.038   0.476   4.727  0.2176 -1.0097 -0.5244
18285TIP3   OH276345   5.076   0.297  11.434  0.2198 -0.0137 -0.5313
18285TIP3    H176346   5.009   0.257  11.490  0.7895  0.6642  0.6450
18285TIP3    H276347   5.077   0.389  11.460  2.5743 -0.2749  0.4591
18286TIP3   OH276348   3.581   0.881   2.072 -0.3804 -0.0808  0.6242
18286TIP3    H176349   3.534   0.946   2.020 -0.0556  0.3608  0.8807
18286TIP3    H276350   3.517   0.811   2.087 -0.9488  0.5149  0.9749
18287TIP3   OH276351   3.130   5.529   4.650 -0.1176  0.0083  0.6145
18287TIP3    H176352   3.076   5.586   4.597  0.8200  1.1763  0.8968
18287TIP3    H276353   3.073   5.501   4.722 -1.0883 -0.8009 -0.4573
18288TIP3   OH276354   5.848   0.612  12.279  0.6573  0.1366  0.1382
18288TIP3    H176355   5.865   0.632  12.371  1.6521  1.5574 -0.3382
18288TIP3    H276356   5.851   0.517  12.274 -0.2658  0.0004  1.7286
18289TIP3   OH276357   0.165   2.335  16.810  0.0272 -0.3515  0.2425
18289TIP3    H176358   0.181   2.396  16.738  0.0428  0.6735  1.0940
18289TIP3    H276359   0.119   2.387  16.876 -0.3929 -1.3929  0.7855
18290TIP3   OH276360   4.193   3.838   5.394  0.6708  0.4334 -0.3361
18290TIP3    H176361   4.201   3.905   5.462 -0.6902  1.0640 -0.7814
18290TIP3    H276362   4.122   3.869   5.338  0.7047 -0.8845 -1.1278
18291TIP3   OH276363   4.770   6.597  16.017  0.5193 -0.4228  0.5531
18291TIP3    H176364   4.757   6.654  15.941 -0.8567 -1.0756  0.2772
18291TIP3    H276365   4.758   6.509  15.982 -1.4376 -0.6632  1.7602
18292TIP3   OH276366   4.224   0.529  13.474  0.3310 -0.0482 -0.1299
18292TIP3    H176367   4.196   0.487  13.556  1.8570  0.1037  0.4803
18292TIP3    H276368   4.153   0.588  13.452 -0.9458 -1.4714  0.0728
18293TIP3   OH276369   2.572   1.168   1.734  0.1222 -0.1719 -0.2715
18293TIP3    H176370   2.580   1.253   1.776 -0.7092  0.0687 -0.5886
18293TIP3    H276371   2.551   1.188   1.643  2.2326 -0.6887 -0.8923
18294TIP3   OH276372   0.056   1.967   3.922 -0.6851 -0.4716  0.2718
18294TIP3    H176373   0.015   1.886   3.890 -0.2488 -0.1984 -0.9945
18294TIP3    H276374   0.097   1.941   4.004 -1.0848 -1.3948  0.1955
18295TIP3   OH276375   2.152   0.272  14.497 -0.5590 -0.2558 -0.1629
18295TIP3    H176376   2.132   0.244  14.407 -2.9088  0.2642  0.1667
18295TIP3    H276377   2.162   0.190  14.545  0.2558 -0.5371 -0.7904
18296TIP3   OH276378   0.220   5.434   1.565 -0.5745 -0.0110 -0.1623
18296TIP3    H176379   0.187   5.506   1.511 -1.5647 -0.8603 -0.6957
18296TIP3    H276380   0.288   5.393   1.511 -2.8129 -1.9888 -1.5416
18297TIP3   OH276381   2.569   5.941   1.224  0.2027  0.8934 -0.3070
18297TIP3    H176382   2.649   5.978   1.186  0.4464  1.4434  0.7092
18297TIP3    H276383   2.589   5.933   1.317 -0.8902  0.9346 -0.0619
18298TIP3   OH276384   1.490   5.439  13.664  0.2059  0.2906  0.2437
18298TIP3    H176385   1.399   5.428  13.692 -1.0093  0.1439 -3.4732
18298TIP3    H276386   1.521   5.514  13.714 -1.9287  0.3040  1.6382
18299TIP3   OH276387   1.970   4.541  14.291 -0.3037  0.0644  0.0065
18299TIP3    H176388   1.880   4.556  14.318 -0.0173  1.0068  0.4509
18299TIP3    H276389   2.018   4.527  14.372  0.0233 -0.0583 -0.2063
18300TIP3   OH276390   3.273   1.387   5.546 -0.0656  0.0152 -0.1405
18300TIP3    H176391   3.287   1.333   5.468  0.0192 -0.9819  0.5686
18300TIP3    H276392   3.277   1.477   5.513  2.0533 -0.3522 -0.9475
18301TIP3   OH276393   2.916   2.548  14.428  0.1207 -0.1498  0.4104
18301TIP3    H176394   2.894   2.520  14.339  2.1782  1.0692 -0.5294
18301TIP3    H276395   2.844   2.605  14.454 -0.2404 -0.0898 -0.6838
18302TIP3   OH276396   5.987   4.220  13.029 -0.1743 -0.0477 -0.6671
18302TIP3    H176397   5.998   4.135  13.071  2.2459 -0.0446 -1.1691
18302TIP3    H276398   5.942   4.201  12.947  0.5327 -0.8763 -0.8662
18303TIP3   OH276399   6.067   2.526  13.881  0.0229  0.7825  0.4402
18303TIP3    H176400   6.148   2.479  13.864 -0.4690  0.0347  0.1205
18303TIP3    H276401   6.016   2.467  13.936 -0.7677  0.7535 -0.3064
18304TIP3   OH276402   0.812   3.541   2.655 -0.4694 -0.2023  0.2994
18304TIP3    H176403   0.733   3.493   2.628  0.1909 -0.9337 -0.3377
18304TIP3    H276404   0.778   3.617   2.702 -1.5212 -2.3383  3.1427
18305TIP3   OH276405   2.734   6.746  11.076  0.3650  0.1039  0.2851
18305TIP3    H176406   2.645   6.772  11.054 -0.5449 -2.7233  0.4754
18305TIP3    H276407   2.763   6.694  11.000  0.3638 -2.3682  1.9389
18306TIP3   OH276408   0.593   3.915   6.788  0.0159  0.5867  0.1600
18306TIP3    H176409   0.497   3.912   6.788  0.0218  0.2501  0.8897
18306TIP3    H276410   0.614   4.000   6.827  0.0069  1.2366 -1.2391
18307TIP3   OH276411   4.939   1.717  11.612  0.3880 -0.0213  0.5216
18307TIP3    H176412   4.885   1.795  11.623  0.8343  0.3999 -0.2734
18307TIP3    H276413   4.929   1.669  11.695 -1.3223 -0.0311  0.3397
18308TIP3   OH276414   0.215   2.505  10.863  0.3798 -0.0414 -0.4801
18308TIP3    H176415   0.283   2.557  10.820  0.4679  0.1119 -0.1600
18308TIP3    H276416   0.246   2.415  10.859  1.9900  0.3301  2.1978
18309TIP3   OH276417   3.514   6.594  11.467 -0.9092  0.1370  0.6318
18309TIP3    H176418   3.525   6.656  11.539 -0.1400 -0.4123  1.0053
18309TIP3    H276419   3.433   6.620  11.424 -0.6959  1.2696  0.9082
18310TIP3   OH276420   5.559   2.221   6.154 -0.2659 -0.1177  0.1848
18310TIP3    H176421   5.511   2.271   6.088 -0.5680  0.8288  1.1149
18310TIP3    H276422   5.647   2.211   6.117 -0.3019  0.8112 -0.1559
18311TIP3   OH276423   3.975   4.863   3.122 -0.3025  0.1600 -0.6200
18311TIP3    H176424   4.028   4.800   3.073  0.9965  1.3833 -0.8357
18311TIP3    H276425   3.889   4.822   3.130  0.7011 -1.9414 -0.1570
18312TIP3   OH276426   3.086   5.666  17.056  0.0079  0.0252  0.1319
18312TIP3    H176427   3.025   5.680  16.984 -0.5625  1.4989  0.8754
18312TIP3    H276428   3.167   5.709  17.028 -0.5407  1.5063  0.8029
18313TIP3   OH276429   3.153   5.305  11.380  0.1258 -0.1248  0.1401
18313TIP3    H176430   3.226   5.288  11.320  0.5191  1.1396  0.2511
18313TIP3    H276431   3.162   5.398  11.402 -1.9251  0.2156 -0.4016
18314TIP3   OH276432   5.163   5.141   3.587 -0.3004  0.2440  0.0897
18314TIP3    H176433   5.109   5.151   3.665 -0.1228  1.0135  0.1205
18314TIP3    H276434   5.114   5.082   3.531 -1.7068  1.7814 -0.3484
18315TIP3   OH276435   6.196   5.146  14.246  0.4816 -0.8197 -0.5962
18315TIP3    H176436   6.264   5.081  14.228 -0.0063 -1.7479  0.7639
18315TIP3    H276437   6.130   5.097  14.295 -0.6481  0.3323 -0.9512
18316TIP3   OH276438   4.916   6.099  11.256 -0.1163 -0.0120  0.1223
18316TIP3    H176439   4.869   6.024  11.291  0.4297  0.4251  1.8142
18316TIP3    H276440   4.865   6.175  11.282  0.2101  0.3150 -0.1794
18317TIP3   OH276441   6.322   6.528  14.073 -0.3339  0.5578 -0.2122
18317TIP3    H176442   6.366   6.483  14.001 -0.4051 -0.1132  0.1570
18317TIP3    H276443   6.374   6.504  14.151  0.5013  2.2981 -0.2134
18318TIP3   OH276444   1.488   4.328  15.115 -0.0438 -0.0082 -0.2434
18318TIP3    H176445   1.487   4.248  15.168  0.3933 -0.1936 -0.5147
18318TIP3    H276446   1.552   4.384  15.158 -0.8777  0.4903  0.3737
18319TIP3   OH276447   0.222   3.600  16.083 -0.0713 -0.3944  0.4346
18319TIP3    H176448   0.177   3.600  16.168  1.2740 -1.5520  1.1550
18319TIP3    H276449   0.153   3.579  16.020 -0.8522 -0.6550  1.3646
18320TIP3   OH276450   1.971   5.371   4.124 -0.1067  0.6388 -0.2209
18320TIP3    H176451   1.897   5.381   4.184 -1.1553 -0.1678 -1.3582
18320TIP3    H276452   1.989   5.461   4.094  1.9962  1.3834  3.0970
18321TIP3   OH276453   5.005   6.488  13.558 -0.3479 -0.0806  0.4220
18321TIP3    H176454   5.095   6.521  13.562 -0.6279  1.1551 -2.5432
18321TIP3    H276455   5.013   6.404  13.511 -0.9301  0.8935 -1.4598
18322TIP3   OH276456   3.972   4.170  14.815  0.2622 -0.1290  0.4883
18322TIP3    H176457   3.980   4.257  14.855  0.1871  0.0138  0.1953
18322TIP3    H276458   3.909   4.123  14.870 -0.3722  0.3017  0.1294
18323TIP3   OH276459   1.183   1.012   1.455  0.3636 -0.6247  0.3006
18323TIP3    H176460   1.124   0.980   1.387 -0.8247  0.1584  0.9292
18323TIP3    H276461   1.265   1.031   1.410 -0.1164 -0.9951 -0.7332
18324TIP3   OH276462   0.193   1.254  14.613 -0.1083 -0.7837 -0.0933
18324TIP3    H176463   0.125   1.278  14.551  0.9336 -0.0800 -0.9862
18324TIP3    H276464   0.238   1.336  14.632 -0.3379 -1.0136  1.5016
18325TIP3   OH276465   3.389   0.647  13.367 -0.1529  0.1846 -0.4229
18325TIP3    H176466   3.334   0.666  13.290  0.7861 -3.3463 -2.0594
18325TIP3    H276467   3.416   0.734  13.399 -1.1276  1.7667 -3.6660
18326TIP3   OH276468   3.885   6.181  13.883 -0.0660  0.1540 -0.7691
18326TIP3    H176469   3.956   6.132  13.843 -0.9959 -1.3744 -0.5998
18326TIP3    H276470   3.807   6.159  13.832 -1.0243 -0.7909  1.0311
18327TIP3   OH276471   5.556   1.624  11.081 -0.0787  0.1194 -0.0723
18327TIP3    H176472   5.464   1.603  11.092  0.7429 -3.1187  1.0263
18327TIP3    H276473   5.573   1.691  11.148 -0.9421 -1.4724  1.7932
18328TIP3   OH276474   0.027   5.663  15.884 -0.1861 -0.5055  0.3974
18328TIP3    H176475  -0.023   5.704  15.954 -1.5115 -0.3527 -0.6185
18328TIP3    H276476  -0.027   5.674  15.806  2.1507  1.0835 -1.0642
18329TIP3   OH276477   4.340   6.629   0.024  0.1077 -0.3257 -0.6711
18329TIP3    H176478   4.380   6.664   0.104  0.6535 -0.2481 -0.9744
18329TIP3    H276479   4.408   6.573  -0.013 -0.5252 -1.2103 -0.5195
18330TIP3   OH276480   1.386   5.043  11.135 -0.3495 -0.1880 -0.2425
18330TIP3    H176481   1.314   5.092  11.096  0.2769 -1.0015 -2.5129
18330TIP3    H276482   1.356   4.952  11.137 -1.3817  0.1193  3.6554
18331TIP3   OH276483   1.042   3.268  14.911  0.4952  0.4825 -0.0710
18331TIP3    H176484   0.997   3.279  14.827  1.6635 -2.7940 -1.2000
18331TIP3    H276485   1.134   3.284  14.892  0.8366 -0.8001  0.4643
18332TIP3   OH276486   3.104   1.023   5.360  0.1235  0.3062  0.0836
18332TIP3    H176487   3.042   0.972   5.413  0.9266 -1.5889 -0.7623
18332TIP3    H276488   3.048   1.085   5.313 -1.0767 -0.8156 -0.0296
18333TIP3   OH276489   4.672   2.177  16.529  0.4890  0.0607  0.7516
18333TIP3    H176490   4.761   2.208  16.510  0.2618 -0.6862 -1.7090
18333TIP3    H276491   4.682   2.083  16.545 -0.0211 -0.2562 -0.7759
18334TIP3   OH276492   4.894   4.048   4.609 -0.5461  0.1348 -0.6784
18334TIP3    H176493   4.854   4.058   4.695 -0.1344  0.1123 -0.4830
18334TIP3    H276494   4.870   3.960   4.581  0.5278 -0.3954  0.0420
18335TIP3   OH276495   6.238   4.289   5.916 -0.2394 -0.0073 -0.7018
18335TIP3    H176496   6.274   4.201   5.905  2.9451  0.9370  1.3261
18335TIP3    H276497   6.305   4.347   5.879 -1.5104  1.6606 -0.4664
18336TIP3   OH276498   4.042   6.706  11.565 -0.0139 -0.3021  0.0613
18336TIP3    H176499   4.027   6.799  11.547 -0.9358 -0.5251 -0.3527
18336TIP3    H276500   4.041   6.664  11.479  0.9104 -0.6308  0.1998
18337TIP3   OH276501   4.945   3.365   0.847 -0.1326  0.2762 -0.6128
18337TIP3    H176502   4.999   3.294   0.814 -2.4015 -1.3954 -0.8370
18337TIP3    H276503   4.933   3.423   0.772  0.5591  0.1942 -0.7927
18338TIP3   OH276504   6.053   3.703   5.685 -0.0381 -0.5907 -0.3485
18338TIP3    H176505   6.013   3.692   5.772  0.3195  0.4017 -0.0478
18338TIP3    H276506   6.033   3.622   5.639 -0.8165 -0.8528  0.4332
18339TIP3   OH276507   1.477   3.099   4.001 -0.2077 -0.2183 -0.1622
18339TIP3    H176508   1.417   3.084   3.928  0.1061 -1.3787 -0.1776
18339TIP3    H276509   1.481   3.015   4.047  2.2470 -0.4697 -0.7852
18340TIP3   OH276510   0.650   3.616  15.583 -0.2756  0.0978 -0.1181
18340TIP3    H176511   0.734   3.636  15.543  1.0080  0.6221  2.6826
18340TIP3    H276512   0.670   3.548  15.648 -1.8159  0.8469  1.1811
18341TIP3   OH276513   0.778   6.737   5.005  0.1272  0.4330  0.3931
18341TIP3    H176514   0.733   6.808   4.959 -2.3737 -0.5337  1.2418
18341TIP3    H276515   0.758   6.659   4.953  0.4035 -0.1012  1.0910
18342TIP3   OH276516   3.239   5.898   0.480 -0.4144 -0.4201  0.0500
18342TIP3    H176517   3.168   5.900   0.545 -0.3228  0.5868  0.1250
18342TIP3    H276518   3.271   5.988   0.477  0.4607 -0.7438 -0.4347
18343TIP3   OH276519   4.497   4.014   4.093  0.2066 -0.5674 -0.3852
18343TIP3    H176520   4.514   4.087   4.034 -1.5527 -1.3962 -1.9538
18343TIP3    H276521   4.464   3.944   4.037  1.0938 -2.3251  1.1951
18344TIP3   OH276522   0.635   6.413  11.807  0.2022 -0.2170 -0.2079
18344TIP3    H176523   0.588   6.384  11.885 -2.3072 -1.7203 -2.2099
18344TIP3    H276524   0.700   6.344  11.793 -0.4389 -0.7904 -0.3836
18345TIP3   OH276525   4.927   0.194  15.332  0.3347  0.4909  0.2732
18345TIP3    H176526   4.895   0.277  15.368 -0.1017  0.1274  0.7347
18345TIP3    H276527   4.854   0.161  15.280  0.5254  0.4165  0.0519
18346TIP3   OH276528   2.463   1.323  11.466 -0.0788 -0.0344 -0.3540
18346TIP3    H176529   2.504   1.281  11.390  1.0511  1.6357 -0.6742
18346TIP3    H276530   2.513   1.403  11.481  0.6236 -1.0211  3.0634
18347TIP3   OH276531   5.590   0.401  15.053  0.1859 -0.3356  0.4301
18347TIP3    H176532   5.511   0.412  15.106  1.7694  0.9392  2.6168
18347TIP3    H276533   5.643   0.339  15.103  0.8967 -0.5979 -0.6471
18348TIP3   OH276534   1.181   1.042   1.930  0.2803  0.2623 -0.1115
18348TIP3    H176535   1.232   1.016   1.852 -0.8554 -0.7400 -0.5308
18348TIP3    H276536   1.194   1.137   1.936  1.4430  0.1601 -0.7506
18349TIP3   OH276537   3.952   1.430  13.498  0.4876 -0.0235 -0.8147
18349TIP3    H176538   3.940   1.519  13.531  0.8372 -0.0568 -0.5938
18349TIP3    H276539   3.913   1.374  13.565  1.9253 -0.1385 -0.0438
18350TIP3   OH276540   1.230   4.565   3.831 -0.3651 -0.1163  0.4594
18350TIP3    H176541   1.304   4.613   3.794  1.2339 -2.5758  0.3452
18350TIP3    H276542   1.254   4.550   3.922  0.3156 -2.8247 -0.1322
18351TIP3   OH276543   5.991   3.304   6.245  0.7176 -0.4001 -0.3230
18351TIP3    H176544   5.934   3.365   6.292  0.7006  0.0503 -0.9204
18351TIP3    H276545   6.001   3.230   6.304 -1.0430 -0.7888 -0.4756
18352TIP3   OH276546   0.557   5.708  11.994 -0.3979 -0.1304 -0.8893
18352TIP3    H176547   0.492   5.724  11.925 -1.8384 -0.2393  0.4059
18352TIP3    H276548   0.599   5.625  11.969 -1.7855 -0.8178 -0.9920
18353TIP3   OH276549   2.397   5.264  15.592  0.7945 -0.6249 -0.2261
18353TIP3    H176550   2.457   5.333  15.564 -1.1339 -0.0744 -3.2672
18353TIP3    H276551   2.310   5.302  15.579 -0.3433 -3.8941 -2.9692
18354TIP3   OH276552   0.342   2.978   1.657  0.2255 -0.1216  0.2182
18354TIP3    H176553   0.280   2.927   1.709  0.9987 -0.7751  0.5025
18354TIP3    H276554   0.372   3.047   1.717  0.3231 -0.2437  0.3099
18355TIP3   OH276555   0.063   4.305   6.729 -0.1610 -0.2378  0.3208
18355TIP3    H176556   0.155   4.298   6.704 -0.4047  0.0079 -0.6466
18355TIP3    H276557   0.055   4.393   6.766 -0.1044 -0.1035  0.0117
18356TIP3   OH276558   4.118   0.800  13.954  0.1666 -0.0391 -0.2678
18356TIP3    H176559   4.125   0.786  14.049  1.5054  0.1189 -0.3301
18356TIP3    H276560   4.091   0.892  13.946  1.6067  0.4320 -0.0415
18357TIP3   OH276561   1.116   3.883   5.324  0.3701 -0.1540 -0.2664
18357TIP3    H176562   1.168   3.829   5.382  0.7549  1.6298  1.0723
18357TIP3    H276563   1.144   3.858   5.236  1.0285 -1.6162  0.3502
18358TIP3   OH276564   0.047   4.678   5.981  0.8010  0.2800 -0.1081
18358TIP3    H176565  -0.009   4.715   6.049 -1.3388 -2.6482 -0.1848
18358TIP3    H276566  -0.010   4.619   5.933  3.4828 -1.2761 -1.4755
18359TIP3   OH276567   4.528   6.519  12.321 -0.2946 -0.3158  0.1382
18359TIP3    H176568   4.452   6.492  12.270  0.3024 -2.5509  0.3612
18359TIP3    H276569   4.584   6.441  12.324  1.9662  1.2493  0.0623
18360TIP3   OH276570   5.701   3.609  11.779 -0.6139 -0.1338  0.8435
18360TIP3    H176571   5.751   3.540  11.733 -2.3990 -0.2168 -1.0659
18360TIP3    H276572   5.745   3.690  11.754 -0.5317 -0.3274  0.3309
18361TIP3   OH276573   5.576   2.372  11.544  0.2849 -0.0739  0.4936
18361TIP3    H176574   5.580   2.340  11.455  0.6291  1.2504  0.0154
18361TIP3    H276575   5.630   2.311  11.594 -0.1706 -1.0027 -0.1313
18362TIP3   OH276576   1.764   0.241   3.430 -0.0798 -0.4056  0.4658
18362TIP3    H176577   1.776   0.151   3.400  1.5719 -0.9713  2.6914
18362TIP3    H276578   1.762   0.293   3.350  0.1248 -2.2943 -0.7841
18363TIP3   OH276579   0.021   5.027  16.555 -0.1942 -0.6552 -0.1420
18363TIP3    H176580   0.089   4.960  16.556 -0.0678 -0.5380 -0.9177
18363TIP3    H276581   0.006   5.047  16.648  1.3570 -0.1586  0.0215
18364TIP3   OH276582   2.061   4.233  13.750  0.1446  0.2753  0.3911
18364TIP3    H176583   1.983   4.279  13.782  1.1211  1.4692  1.0958
18364TIP3    H276584   2.093   4.185  13.826 -0.9356 -1.7002 -0.3740
18365TIP3   OH276585   5.070   0.329  11.871 -0.6008 -0.0367 -0.5027
18365TIP3    H176586   5.023   0.296  11.948 -2.8481 -1.1595 -2.2951
18365TIP3    H276587   5.158   0.293  11.880 -1.1386 -1.0571  0.9840
18366TIP3   OH276588   3.364   5.271  14.895 -0.1170  0.1189 -0.0370
18366TIP3    H176589   3.376   5.190  14.846  0.8782 -0.2617  0.8204
18366TIP3    H276590   3.447   5.285  14.939 -0.9277  0.5610  1.3855
18367TIP3   OH276591   6.191   1.188  14.529 -0.2398 -0.3328  0.4064
18367TIP3    H176592   6.168   1.131  14.603 -2.7373  0.0977  0.0099
18367TIP3    H276593   6.108   1.201  14.483  0.5683  2.4586 -0.3279
18368TIP3   OH276594   2.828   2.204  13.579  0.1353 -0.2839  0.5554
18368TIP3    H176595   2.859   2.230  13.666  2.6829  1.1962 -0.7483
18368TIP3    H276596   2.782   2.281  13.545  0.0276 -0.5132  0.1782
18369TIP3   OH276597   5.682   4.550   3.352  0.0732 -0.1556 -0.1914
18369TIP3    H176598   5.598   4.505   3.344  0.2829 -0.7417  0.9255
18369TIP3    H276599   5.730   4.524   3.274 -1.5496  1.8617 -1.9725
18370TIP3   OH276600   3.458   6.730  16.190  0.3528 -0.2892  0.2290
18370TIP3    H176601   3.368   6.703  16.173  0.5757 -0.5884 -0.5292
18370TIP3    H276602   3.502   6.721  16.105  1.7323 -2.6413  1.1379
18371TIP3   OH276603   6.077   0.214  15.426  0.3345  0.4056 -0.1482
18371TIP3    H176604   6.127   0.240  15.349 -0.3391 -0.7347 -0.9878
18371TIP3    H276605   6.034   0.132  15.400  0.8696 -0.5078  1.7659
18372TIP3   OH276606   3.219   5.883   0.886  0.1767 -0.0294 -0.2669
18372TIP3    H176607   3.277   5.830   0.833 -0.8199  0.1437 -1.5544
18372TIP3    H276608   3.267   5.898   0.968  1.6591 -0.4121 -1.0626
18373TIP3   OH276609   5.990   6.244   3.066  0.1631  0.2563 -0.5403
18373TIP3    H176610   5.908   6.284   3.035  0.6622  2.4298  0.8096
18373TIP3    H276611   6.036   6.315   3.110  1.4519 -1.6661  1.3148
18374TIP3   OH276612   1.892   6.476   6.312  0.3549  0.2338  0.3267
18374TIP3    H176613   1.908   6.384   6.292  0.3082 -0.0624  1.6350
18374TIP3    H276614   1.799   6.480   6.335  0.0961  0.8032 -0.7490
18375TIP3   OH276615   4.608   1.241   6.015 -0.3596 -0.5482 -0.3323
18375TIP3    H176616   4.631   1.332   5.994  0.2020 -0.7838 -0.7688
18375TIP3    H276617   4.576   1.245   6.105  1.5891 -0.2199  0.3834
18376TIP3   OH276618   5.375   2.228  10.906 -0.1215 -0.1926 -0.1841
18376TIP3    H176619   5.322   2.304  10.883  0.7740 -0.3570 -2.9380
18376TIP3    H276620   5.367   2.169  10.831  1.8407 -1.3550  0.4794
18377TIP3   OH276621   4.661   5.464  14.416 -0.2155 -0.0196  0.1332
18377TIP3    H176622   4.689   5.382  14.375 -0.3071  0.0828 -0.1369
18377TIP3    H276623   4.602   5.436  14.486  0.7511 -0.2505  0.8683
18378TIP3   OH276624   6.492   5.130   4.047 -0.0239  0.2964 -0.5431
18378TIP3    H176625   6.514   5.043   4.081 -1.3153  0.0417 -0.3203
18378TIP3    H276626   6.463   5.115   3.958 -2.4941  0.1867  0.2528
18379TIP3   OH276627   5.074   6.415   5.314 -0.0040 -0.2423 -0.2050
18379TIP3    H176628   5.164   6.385   5.318 -0.0767 -0.2789  1.2500
18379TIP3    H276629   5.022   6.335   5.310 -0.0349 -0.2527  0.3533
18380TIP3   OH276630   0.325   2.620   4.967 -0.6113  0.4786 -0.4946
18380TIP3    H176631   0.279   2.672   5.032 -2.1863 -1.3145 -0.1437
18380TIP3    H276632   0.402   2.586   5.013 -0.2822  1.3885 -0.3568
18381TIP3   OH276633   2.055   2.906   5.693 -0.0869 -0.2929  0.1801
18381TIP3    H176634   2.084   2.828   5.742  0.4832 -0.2376 -0.0655
18381TIP3    H276635   2.097   2.897   5.607  0.5548  0.6589  0.3996
18382TIP3   OH276636   6.302   4.526   3.226  0.4218  0.6564 -0.1886
18382TIP3    H176637   6.261   4.442   3.248  0.4250  0.8489  0.5500
18382TIP3    H276638   6.252   4.558   3.151  0.3899  0.0123 -0.4411
18383TIP3   OH276639   6.820   4.587  12.544  0.6361 -0.2075  0.1109
18383TIP3    H176640   6.870   4.645  12.486  0.2385  2.4623  2.3280
18383TIP3    H276641   6.833   4.500  12.507  0.6544  1.3259 -3.7974
18384TIP3   OH276642   3.372   1.227  16.690  0.0149  0.0771 -0.2700
18384TIP3    H176643   3.447   1.168  16.685 -0.8055 -0.9454 -0.6993
18384TIP3    H276644   3.319   1.205  16.613 -0.7738  0.7129  0.0807
18385TIP3   OH276645   0.480   2.940   1.412  0.0735  0.1246  0.1280
18385TIP3    H176646   0.404   2.947   1.469  0.3791  0.9296  0.4456
18385TIP3    H276647   0.554   2.966   1.467  0.3900  0.7605 -0.5813
18386TIP3   OH276648   5.308   4.084  15.416  0.1519  0.1613 -0.2121
18386TIP3    H176649   5.337   4.170  15.386  0.0984  0.1193 -0.3828
18386TIP3    H276650   5.295   4.033  15.336  0.2347 -0.0228 -0.1107
18387TIP3   OH276651   5.289   4.900   1.126 -0.1476  0.0131 -0.0393
18387TIP3    H176652   5.299   4.990   1.159  0.5188  0.0080 -0.2252
18387TIP3    H276653   5.210   4.903   1.074  0.1444  0.6208 -0.4582
18388TIP3   OH276654   2.393   0.858  15.261 -0.5931 -0.4129 -0.0836
18388TIP3    H176655   2.350   0.839  15.344 -1.2988  0.4053 -0.2511
18388TIP3    H276656   2.398   0.953  15.258  0.6929 -0.4852 -0.3520
18389TIP3   OH276657   6.337   6.588  12.607  0.2933 -0.2226  0.1126
18389TIP3    H176658   6.313   6.536  12.531  0.6596 -1.1196  0.5978
18389TIP3    H276659   6.432   6.594  12.603  0.1963  1.0708 -0.3572
18390TIP3   OH276660   3.140   0.407   1.797 -0.1665 -0.0483  0.1238
18390TIP3    H176661   3.103   0.383   1.882 -1.0400  2.4999  0.5010
18390TIP3    H276662   3.081   0.368   1.733 -1.5406  1.0311  0.7147
18391TIP3   OH276663   3.269   1.102   1.159 -0.2223 -0.2118 -0.0833
18391TIP3    H176664   3.189   1.150   1.181 -0.9523 -0.2223 -2.6064
18391TIP3    H276665   3.258   1.017   1.203 -1.4040 -0.0466 -0.0473
18392TIP3   OH276666   0.873   6.441   0.484 -0.3240 -0.8590 -0.2022
18392TIP3    H176667   0.794   6.444   0.430 -0.2661  1.8263 -0.1954
18392TIP3    H276668   0.852   6.494   0.560  1.0533 -1.1840  0.4185
18393TIP3   OH276669   2.812   3.495  13.247  0.0292 -0.1127  0.4255
18393TIP3    H176670   2.871   3.428  13.282 -0.6894 -1.6070 -1.1435
18393TIP3    H276671   2.813   3.481  13.153 -0.1684  2.0917  0.0758
18394TIP3   OH276672   5.435   3.118   1.148  0.6580  0.0100  0.0970
18394TIP3    H176673   5.384   3.123   1.229 -0.1055 -0.3377 -0.3550
18394TIP3    H276674   5.400   3.188   1.094  0.5224 -0.3528 -0.2878
18395TIP3   OH276675   3.063   4.954   2.268  0.1312  0.3401  0.5473
18395TIP3    H176676   3.008   5.030   2.252 -0.3493  0.0451  0.7599
18395TIP3    H276677   3.039   4.925   2.357  1.1425  0.6347  0.9281
18396TIP3   OH276678   6.786   0.226   2.238  0.1794  0.5426 -0.0601
18396TIP3    H176679   6.694   0.222   2.213 -0.2284 -1.3566  1.7001
18396TIP3    H276680   6.813   0.315   2.214 -2.2175  1.2656 -0.1791
18397TIP3   OH276681   2.007   6.798  15.126 -0.6848  0.6274 -0.0755
18397TIP3    H176682   1.951   6.720  15.129  0.4248 -0.3215 -2.4741
18397TIP3    H276683   2.056   6.795  15.208 -0.5929 -1.3070 -0.1645
18398TIP3   OH276684   0.400   2.484  13.258 -0.2598 -0.1449 -0.5789
18398TIP3    H176685   0.353   2.506  13.339  1.0528  1.0270 -0.1223
18398TIP3    H276686   0.346   2.522  13.189 -0.5524  0.2690 -0.1336
18399TIP3   OH276687   5.326   0.266   3.402 -0.6475  0.2789  0.2383
18399TIP3    H176688   5.332   0.352   3.360 -0.1309 -0.3797 -1.0846
18399TIP3    H276689   5.238   0.236   3.381  0.0640 -0.6238 -1.5655
18400TIP3   OH276690   2.480   5.064  16.517  0.1930  0.0532  0.1282
18400TIP3    H176691   2.525   4.984  16.542 -1.0167 -0.1801  1.6504
18400TIP3    H276692   2.391   5.054  16.552 -0.0784  1.8887  0.0261
18401TIP3   OH276693   6.064   3.952   0.268  0.8877  0.3573 -0.1585
18401TIP3    H176694   6.055   3.861   0.240  0.1769 -0.2085  1.8584
18401TIP3    H276695   5.975   3.986   0.267  0.8200  0.2660  1.5845
18402TIP3   OH276696   2.900   1.840   1.558 -0.6360  0.1463 -0.2199
18402TIP3    H176697   2.910   1.882   1.644 -0.2225  0.0079 -0.2008
18402TIP3    H276698   2.973   1.874   1.507  0.5378 -1.6716  0.2350
18403TIP3   OH276699   4.534   1.480  15.540  0.3009  0.6950  0.9911
18403TIP3    H176700   4.589   1.499  15.616  1.5556  3.1691 -0.5099
18403TIP3    H276701   4.535   1.560  15.488 -0.5275 -0.9765 -1.6792
18404TIP3   OH276702   0.255   2.197  17.080  0.1797  0.0811  0.2841
18404TIP3    H176703   0.218   2.110  17.093  0.6603  0.1229  2.0443
18404TIP3    H276704   0.342   2.181  17.042 -0.9847 -0.0703 -2.3898
18405TIP3   OH276705   2.274   4.554   4.904  0.3421  0.5827 -0.4738
18405TIP3    H176706   2.321   4.486   4.952  0.5025  0.7671 -0.3704
18405TIP3    H276707   2.188   4.516   4.888 -0.0536  0.9126  0.8336
18406TIP3   OH276708   4.866   4.212   3.316 -0.3227  0.1944 -0.0446
18406TIP3    H176709   4.882   4.124   3.283 -0.5061 -0.1283  0.7269
18406TIP3    H276710   4.770   4.219   3.321 -0.2928  0.1840  0.5732
18407TIP3   OH276711   3.922   0.939  10.444 -0.2348  0.3766 -0.1277
18407TIP3    H176712   3.850   0.937  10.381 -0.3918  0.9897  0.0367
18407TIP3    H276713   3.891   0.884  10.517 -1.0540  1.6680  0.5054
18408TIP3   OH276714   0.160   1.313   4.351 -0.0738 -0.1126  0.2982
18408TIP3    H176715   0.224   1.378   4.378  0.2320  0.3641 -1.5098
18408TIP3    H276716   0.192   1.280   4.267 -1.4898 -0.8353  0.0123
18409TIP3   OH276717   3.096   3.062  14.391 -0.5200 -1.0290  0.6703
18409TIP3    H176718   3.042   3.119  14.336  1.1677 -0.3200 -0.2862
18409TIP3    H276719   3.128   2.994  14.331  2.3716  0.4735  0.4315
18410TIP3   OH276720   2.178   3.250   3.281  0.6645  0.0607 -0.2597
18410TIP3    H176721   2.204   3.263   3.372 -2.1062  0.3234  0.5165
18410TIP3    H276722   2.260   3.225   3.237  1.9492 -0.6133  2.3769
18411TIP3   OH276723   6.062   3.608   0.493  0.4227 -0.3283 -0.3277
18411TIP3    H176724   6.013   3.645   0.419  0.4377  0.0130 -0.1710
18411TIP3    H276725   5.996   3.564   0.546  0.3158 -0.0334 -0.2173
18412TIP3   OH276726   2.408   5.180   5.716 -0.4996 -0.4655  0.2102
18412TIP3    H176727   2.323   5.173   5.672 -1.0899 -0.6231  1.3571
18412TIP3    H276728   2.399   5.255   5.774  0.0205 -0.7175  0.6169
18413TIP3   OH276729   6.231   1.053   5.570  0.5344  0.0815 -0.3039
18413TIP3    H176730   6.296   0.998   5.527  0.6241 -0.6877  0.7838
18413TIP3    H276731   6.281   1.126   5.605  1.0278 -1.1258  1.5792
18414TIP3   OH276732   0.020   4.830   4.539 -0.1783  0.3224 -0.3244
18414TIP3    H176733  -0.046   4.853   4.605 -1.9018  1.3396 -2.3642
18414TIP3    H276734   0.090   4.787   4.589 -2.5990 -1.2541  1.8109
18415TIP3   OH276735   5.897   1.676  14.317 -0.1477  0.3320 -0.2370
18415TIP3    H176736   5.862   1.587  14.308 -1.1386  0.4787  1.7872
18415TIP3    H276737   5.855   1.710  14.396  1.9634  1.7834  0.3058
18416TIP3   OH276738   1.159   2.113  12.801 -0.1834  0.0716 -0.3604
18416TIP3    H176739   1.237   2.071  12.837 -0.1816  0.9405  0.6890
18416TIP3    H276740   1.182   2.134  12.710 -0.2000 -2.1871 -0.9040
18417TIP3   OH276741   4.546   6.238   2.084  0.5886  0.1244  0.1102
18417TIP3    H176742   4.532   6.189   2.003 -0.6870  0.1460  0.3086
18417TIP3    H276743   4.562   6.171   2.151 -0.6868 -0.0149  0.2883
18418TIP3   OH276744   6.415   5.191  13.853 -0.3197  0.8969 -0.0194
18418TIP3    H176745   6.391   5.099  13.854 -0.1893  0.8653  0.6299
18418TIP3    H276746   6.492   5.196  13.909 -2.4184  1.9474  2.9148
18419TIP3   OH276747   6.305   1.376   3.188 -0.2771  0.2501 -0.9429
18419TIP3    H176748   6.218   1.338   3.175 -0.1548 -0.1660 -0.5699
18419TIP3    H276749   6.289   1.469   3.202 -0.4956  0.5414 -3.0030
18420TIP3   OH276750   2.970   1.210   5.211  0.0485 -0.3080  0.1054
18420TIP3    H176751   2.972   1.275   5.140 -1.0913 -0.8661 -0.4493
18420TIP3    H276752   2.907   1.145   5.182  0.0279 -0.8650  1.3725
18421TIP3   OH276753   3.786   6.819  15.333  0.0768  0.3887  0.0472
18421TIP3    H176754   3.858   6.782  15.283 -0.9726 -0.4614 -0.8466
18421TIP3    H276755   3.731   6.863  15.268 -0.8328  0.0202  0.5581
18422TIP3   OH276756   3.818   6.620  11.765 -0.4968  0.3570  0.0811
18422TIP3    H176757   3.832   6.700  11.715 -1.3621  1.0431  0.9360
18422TIP3    H276758   3.750   6.642  11.829  0.6226 -0.4709  1.6081
18423TIP3   OH276759   4.214   3.242   0.382  0.0520 -0.4002  0.2551
18423TIP3    H176760   4.230   3.329   0.418  1.1257 -0.2350 -0.5875
18423TIP3    H276761   4.124   3.221   0.407  0.4414  0.1186  2.1752
18424TIP3   OH276762   1.163   1.239  14.203  0.0352  0.7282 -0.3799
18424TIP3    H176763   1.240   1.235  14.260  0.9063 -1.0040 -1.6212
18424TIP3    H276764   1.168   1.158  14.151 -2.9915  0.2575 -0.0011
18425TIP3   OH276765   2.250   6.269   3.775 -0.1974  0.5644 -0.2976
18425TIP3    H176766   2.181   6.334   3.789  0.2450  1.1747 -0.9653
18425TIP3    H276767   2.292   6.260   3.861 -2.0341 -0.8962  0.5025
18426TIP3   OH276768   2.144   5.516   4.664  0.4135 -0.0418 -0.5957
18426TIP3    H176769   2.131   5.452   4.594 -0.7105  0.0117 -0.4552
18426TIP3    H276770   2.059   5.559   4.673  0.3451 -0.5099  1.2404
18427TIP3   OH276771   1.001   2.805   0.020  0.4038  0.0925 -0.1849
18427TIP3    H176772   0.948   2.883   0.039 -2.2145 -1.8189  0.5895
18427TIP3    H276773   1.092   2.834   0.034 -0.6229  2.4337  2.0877
18428TIP3   OH276774   5.633   6.269  16.361 -0.0821 -0.4062  0.5872
18428TIP3    H176775   5.576   6.300  16.432 -1.3396 -0.1843 -0.5072
18428TIP3    H276776   5.577   6.271  16.283  1.2121 -0.9131 -0.3602
18429TIP3   OH276777   4.381   5.872   1.261  0.2575 -0.1831 -0.1303
18429TIP3    H176778   4.409   5.914   1.180  0.3393  1.5143  0.7549
18429TIP3    H276779   4.460   5.831   1.296  0.6398  0.6940  0.0388
18430TIP3   OH276780   6.715   5.773   2.234  0.0619 -0.0900 -0.0496
18430TIP3    H176781   6.674   5.805   2.314 -0.0160 -1.6204  0.5380
18430TIP3    H276782   6.646   5.728   2.188 -0.2781  2.0973 -1.7495
18431TIP3   OH276783   3.191   1.432   6.116  0.3995 -0.4174 -0.6171
18431TIP3    H176784   3.117   1.441   6.176 -0.9948  1.0898 -2.5045
18431TIP3    H276785   3.246   1.364   6.155 -0.4461  0.5417  2.3649
18432TIP3   OH276786   3.727   5.113   4.623 -0.0865  0.2105 -0.5509
18432TIP3    H176787   3.725   5.159   4.540 -2.2004  0.5121 -0.3671
18432TIP3    H276788   3.636   5.085   4.638 -0.2061  2.0044  2.6377
18433TIP3   OH276789   3.239   1.209   3.698 -0.4405  0.3634 -0.0541
18433TIP3    H176790   3.318   1.180   3.653 -0.6856 -0.5406  0.0905
18433TIP3    H276791   3.255   1.301   3.719  0.7644  0.0454  0.4182
18434TIP3   OH276792   6.596   2.218  14.007 -0.5550 -0.1295 -0.1923
18434TIP3    H176793   6.543   2.273  14.065 -0.0956 -0.9312  1.0111
18434TIP3    H276794   6.623   2.277  13.936 -2.5755  0.4108 -0.5210
18435TIP3   OH276795   1.211   5.246   1.084  0.1694  0.8816 -0.1979
18435TIP3    H176796   1.157   5.325   1.088 -1.1173 -0.0388  1.2281
18435TIP3    H276797   1.241   5.234   1.174  0.7801  0.0458 -0.5143
18436TIP3   OH276798   0.309   2.202  12.906  0.0242  0.4333 -0.1124
18436TIP3    H176799   0.339   2.129  12.959  0.0667  0.5907  0.0794
18436TIP3    H276800   0.348   2.187  12.820 -0.8720 -0.3784 -0.3947
18437TIP3   OH276801   6.444   5.576  14.334  0.3167 -0.5907  0.4853
18437TIP3    H176802   6.539   5.588  14.337  0.4282 -1.1613 -0.6744
18437TIP3    H276803   6.411   5.640  14.397  1.4991 -0.8060  1.3531
18438TIP3   OH276804   5.805   2.165   2.913 -0.0251  0.6691  0.2842
18438TIP3    H176805   5.886   2.138   2.956 -1.1453 -0.3297  1.7852
18438TIP3    H276806   5.835   2.208   2.832  2.0877  2.5005  1.9883
18439TIP3   OH276807   6.250   2.024  12.967  0.4049 -0.2404  0.1984
18439TIP3    H176808   6.193   1.951  12.992  1.7416 -0.8216  1.6522
18439TIP3    H276809   6.246   2.085  13.041  1.1990 -0.0065  0.0574
18440TIP3   OH276810   5.791   1.989  12.030  0.1741 -0.2764 -0.0062
18440TIP3    H176811   5.858   2.044  12.072  0.0798  0.4476 -0.8030
18440TIP3    H276812   5.760   1.932  12.101  0.7205  0.2595  0.6751
18441TIP3   OH276813   1.219   6.557  12.920 -0.2379 -0.2215  0.9577
18441TIP3    H176814   1.249   6.472  12.888  2.4797  0.8758  0.4816
18441TIP3    H276815   1.142   6.537  12.973 -1.9606 -2.5925 -2.2654
18442TIP3   OH276816   0.685   1.948   5.120  0.4014 -0.1243  0.5957
18442TIP3    H176817   0.643   1.987   5.043  1.8479  0.2372 -0.0293
18442TIP3    H276818   0.663   1.855   5.115 -1.6710  0.2997  1.1776
18443TIP3   OH276819   2.417   3.957  16.357  0.2601 -0.3747 -0.3590
18443TIP3    H176820   2.357   4.027  16.384  0.4319 -0.3644  0.0070
18443TIP3    H276821   2.386   3.929  16.271  0.2859  0.2576 -0.5719
18444TIP3   OH276822   0.980   4.680  15.442  0.0461  0.6399 -0.0273
18444TIP3    H176823   0.916   4.653  15.376  0.1344  2.7152 -0.9985
18444TIP3    H276824   1.065   4.654  15.405 -0.1146 -1.1399  0.7787
18445TIP3   OH276825   2.271   4.250   0.478  0.2887  0.0009 -0.4873
18445TIP3    H176826   2.268   4.194   0.400  1.4911 -1.2579  0.3283
18445TIP3    H276827   2.182   4.251   0.511 -0.2486  0.6154 -1.9256
18446TIP3   OH276828   0.055   5.265  15.772 -0.6454 -0.7500  0.0391
18446TIP3    H176829  -0.034   5.240  15.747 -0.8776 -0.4283  0.5497
18446TIP3    H276830   0.109   5.192  15.741 -1.0919 -0.9782 -0.2126
18447TIP3   OH276831   4.071   1.108  11.270 -0.1519  0.0172  0.2976
18447TIP3    H176832   4.081   1.024  11.315  0.0089  0.4682  1.1054
18447TIP3    H276833   4.096   1.174  11.334  0.2023  0.6691 -0.4963
18448TIP3   OH276834   1.912   3.745   0.746 -0.4890 -0.2762 -0.3336
18448TIP3    H176835   1.960   3.690   0.808 -0.3140 -0.3138 -0.5013
18448TIP3    H276836   1.914   3.695   0.664 -0.3221 -0.0157 -0.4872
18449TIP3   OH276837   5.543   3.162  16.509 -0.0396 -0.9596 -0.2148
18449TIP3    H176838   5.504   3.098  16.569 -0.6537  2.2080  2.9188
18449TIP3    H276839   5.627   3.185  16.549 -0.4220  1.1730 -0.6005
18450TIP3   OH276840   2.401   3.316   3.014 -0.4214  0.4410  0.2858
18450TIP3    H176841   2.452   3.364   3.078 -0.8450  1.7778 -0.3648
18450TIP3    H276842   2.464   3.291   2.947 -0.6537  2.4124 -0.7033
18451TIP3   OH276843   1.121   4.367  15.247 -0.4381  0.6420 -0.0720
18451TIP3    H176844   1.142   4.449  15.291 -0.6830  1.4400 -1.4049
18451TIP3    H276845   1.200   4.345  15.197 -0.9468  0.9702 -1.0444
18452TIP3   OH276846   2.726   0.938  15.577  0.4124 -0.4368 -0.2535
18452TIP3    H176847   2.752   0.978  15.660 -1.4357  2.4832 -1.0120
18452TIP3    H276848   2.740   1.007  15.512 -3.4618 -0.7015 -1.5162
18453TIP3   OH276849   6.585   5.429  17.204 -0.0351 -0.7785  0.3585
18453TIP3    H176850   6.561   5.493  17.137 -0.4035 -3.8375 -2.5693
18453TIP3    H276851   6.504   5.411  17.251 -0.1029  0.2741  0.6472
18454TIP3   OH276852   5.017   3.185  10.979  0.1740 -0.0889  0.8265
18454TIP3    H176853   4.942   3.233  11.015 -1.1591 -1.4806 -0.0520
18454TIP3    H276854   4.982   3.100  10.953  1.6641 -0.0979 -1.3203
18455TIP3   OH276855   3.129   5.889  11.919 -0.0941  0.1570  0.3605
18455TIP3    H176856   3.148   5.855  12.006 -0.2000 -0.5712  0.1067
18455TIP3    H276857   3.039   5.861  11.902 -0.4759  1.2950  0.4804
18456TIP3   OH276858   1.174   2.957  15.394  0.9316 -0.8119  0.2501
18456TIP3    H176859   1.097   2.945  15.451  1.1250 -2.0140  0.2661
18456TIP3    H276860   1.196   3.049  15.403 -0.3394 -0.5225  0.4819
18457TIP3   OH276861   6.201   1.008   3.115  0.4214 -0.7268 -0.5977
18457TIP3    H176862   6.251   1.023   3.196 -1.6927  0.7893  0.4574
18457TIP3    H276863   6.126   0.956   3.143 -0.5068  0.1182 -1.5316
18458TIP3   OH276864   0.607   5.311  16.318 -0.1610 -0.4038  0.3164
18458TIP3    H176865   0.630   5.356  16.237 -1.1108  0.9333  0.7727
18458TIP3    H276866   0.672   5.340  16.381 -1.7347  1.6986  1.0484
18459TIP3   OH276867   3.239   3.931  15.537  0.2074 -0.6490 -0.5007
18459TIP3    H176868   3.208   4.014  15.501 -0.8686 -0.5625  0.6230
18459TIP3    H276869   3.276   3.885  15.461 -3.0701 -0.9566 -1.9743
18460TIP3   OH276870   1.099   4.089  14.568 -0.5455  0.1660  0.0947
18460TIP3    H176871   1.043   4.029  14.617 -1.5057 -0.7356 -2.0008
18460TIP3    H276872   1.184   4.083  14.610 -1.4869 -0.0692  2.0206
18461TIP3   OH276873   4.185   6.173   3.867 -0.1031  0.0318 -0.0556
18461TIP3    H176874   4.277   6.153   3.877  0.0547  1.0776  0.7003
18461TIP3    H276875   4.175   6.196   3.774 -0.3952 -3.8655 -1.0518
18462TIP3   OH276876   6.558   0.519   1.541  0.6746  1.1352 -0.1864
18462TIP3    H176877   6.615   0.521   1.618  0.2940  3.7038  0.0780
18462TIP3    H276878   6.470   0.509   1.576  0.4530  2.8034 -0.2318
18463TIP3   OH276879   1.650   6.092   0.146  0.4087 -0.6029  0.3958
18463TIP3    H176880   1.641   6.085   0.051  0.9309  0.8050  0.2307
18463TIP3    H276881   1.566   6.062   0.180 -0.5078  0.7468 -0.6044
18464TIP3   OH276882   2.464   5.249   2.971 -0.1747  0.0020  0.0052
18464TIP3    H176883   2.465   5.192   2.894 -3.0871 -1.4033  0.9396
18464TIP3    H276884   2.552   5.241   3.007  0.9994  0.0538 -2.6877
18465TIP3   OH276885   1.594   3.984  11.438 -0.0768  0.0320 -0.4197
18465TIP3    H176886   1.684   3.967  11.410 -0.2350 -0.5931 -0.5628
18465TIP3    H276887   1.583   4.078  11.428  0.4090  0.0455 -0.8686
18466TIP3   OH276888   3.322   3.770  16.028  0.8346 -0.4467 -0.4366
18466TIP3    H176889   3.249   3.716  16.057  0.4022 -0.5427 -1.6670
18466TIP3    H276890   3.346   3.822  16.105  1.4721 -2.6112  0.8522
18467TIP3   OH276891   3.039   3.013   3.052  0.4269  0.0002  0.9812
18467TIP3    H176892   2.974   3.056   3.107  0.4321 -0.0309  1.0109
18467TIP3    H276893   3.114   2.997   3.109  0.0402 -0.9757  1.2356
18468TIP3   OH276894   6.067   1.264  12.325 -0.1083 -0.1842 -0.3817
18468TIP3    H176895   6.160   1.272  12.348 -0.5168  3.2027  0.4099
18468TIP3    H276896   6.063   1.191  12.264  3.0585 -0.4584 -0.3325
18469TIP3   OH276897   3.867   4.095  10.909 -0.3565  0.1714 -0.1242
18469TIP3    H176898   3.940   4.038  10.886  1.3684  1.4182  2.0855
18469TIP3    H276899   3.876   4.170  10.850 -0.5601 -0.2165 -0.6535
18470TIP3   OH276900   1.313   5.935   1.264  0.1299 -0.2405  0.4265
18470TIP3    H176901   1.386   5.932   1.203 -0.8808  1.9318 -0.9496
18470TIP3    H276902   1.271   5.849   1.255  0.1428 -0.0499 -1.8037
18471TIP3   OH276903   3.667   3.875   5.897 -0.8871  0.2398  0.1794
18471TIP3    H176904   3.677   3.942   5.964 -0.5728 -0.1145  0.4859
18471TIP3    H276905   3.728   3.805   5.922 -0.5706  0.2165 -0.6136
18472TIP3   OH276906   1.898   5.652  15.500 -0.2368  0.0909 -0.3662
18472TIP3    H176907   1.914   5.630  15.591 -0.8600  0.5601 -0.1366
18472TIP3    H276908   1.805   5.674  15.497  0.0197  1.1294 -0.8956
18473TIP3   OH276909   4.757   0.044  11.883  0.2082  0.6093  0.1109
18473TIP3    H176910   4.822   0.001  11.938  1.2568  0.1914 -1.4335
18473TIP3    H276911   4.692  -0.024  11.864 -1.1671  1.2488  2.3489
18474TIP3   OH276912   4.403   4.597   5.134  0.2592  0.1021 -0.1055
18474TIP3    H176913   4.396   4.537   5.060 -0.2800 -0.6189  0.5137
18474TIP3    H276914   4.312   4.622   5.154  0.3924  0.2508  0.3327
18475TIP3   OH276915   2.990   2.177  15.895 -0.4585 -0.4849  0.3716
18475TIP3    H176916   3.047   2.191  15.971 -1.2904  1.1477  0.7093
18475TIP3    H276917   3.000   2.256  15.842 -1.0215 -0.9803 -0.4833
18476TIP3   OH276918   0.823   3.371  17.231  0.1929  0.7895  0.4620
18476TIP3    H176919   0.817   3.287  17.185  0.2481  0.1219  1.6651
18476TIP3    H276920   0.823   3.436  17.161  0.2822 -0.2150 -0.4907
18477TIP3   OH276921   0.066   4.849  11.661  0.1818 -0.2557 -0.1140
18477TIP3    H176922   0.020   4.889  11.734  0.0155  0.4511 -0.6003
18477TIP3    H276923   0.124   4.918  11.628 -1.0755  0.0365 -1.8022
18478TIP3   OH276924   6.147   1.495   6.587  0.1023 -0.0544  0.1776
18478TIP3    H176925   6.216   1.434   6.614 -0.4312 -1.2549 -1.1017
18478TIP3    H276926   6.186   1.547   6.517 -0.1712 -0.5198 -0.3284
18479TIP3   OH276927   3.759   0.334  13.045 -0.6699 -0.3072  0.0234
18479TIP3    H176928   3.844   0.298  13.018 -0.6578 -0.4129  0.2046
18479TIP3    H276929   3.698   0.303  12.978 -0.7831 -1.2312  0.5429
18480TIP3   OH276930   0.928   2.186   3.119 -0.2404  0.0667 -0.2750
18480TIP3    H176931   0.914   2.092   3.124  0.9756 -0.1668 -0.8270
18480TIP3    H276932   0.966   2.199   3.032 -1.6394  1.2416 -0.7225
18481TIP3   OH276933   2.403   2.156  16.550 -0.2545  0.1028 -0.4375
18481TIP3    H176934   2.391   2.250  16.562  0.6541 -0.0428  1.8174
18481TIP3    H276935   2.338   2.115  16.607 -1.4753 -0.6611 -2.3325
18482TIP3   OH276936   2.682   6.221  14.250  0.0770 -0.3530  0.7630
18482TIP3    H176937   2.635   6.146  14.213  0.0353 -0.5676  1.2443
18482TIP3    H276938   2.677   6.207  14.345 -2.6657  1.9007  1.0055
18483TIP3   OH276939   6.253   0.015   1.801  0.4286  0.2767  0.1247
18483TIP3    H176940   6.238   0.015   1.895  2.3129  0.6254  0.4325
18483TIP3    H276941   6.348   0.017   1.791  0.2560  0.1991 -1.7850
18484TIP3   OH276942   2.589   1.301  15.348 -0.2851 -0.0558 -0.8157
18484TIP3    H176943   2.523   1.339  15.406  0.5511  0.3813 -0.1354
18484TIP3    H276944   2.662   1.362  15.351  0.7566 -1.2979 -0.3338
18485TIP3   OH276945   1.898   3.596  14.351 -0.1205  0.1657  0.0595
18485TIP3    H176946   1.885   3.641  14.267 -1.0476  0.6530  0.4539
18485TIP3    H276947   1.966   3.647  14.394 -1.1344  1.1828  0.4831
18486TIP3   OH276948   3.216   0.056   3.264  0.2114  0.3841 -1.3354
18486TIP3    H176949   3.221   0.122   3.333  2.3113  0.1659 -1.2400
18486TIP3    H276950   3.210  -0.027   3.311  2.4107  0.1798 -1.3822
18487TIP3   OH276951   1.727   1.478  16.900 -0.4480 -0.0851 -0.2701
18487TIP3    H176952   1.767   1.396  16.872  0.1754  0.3345 -0.5991
18487TIP3    H276953   1.778   1.504  16.977 -0.7149 -0.0522 -0.1029
18488TIP3   OH276954   2.545   3.520  17.064  0.0442 -0.1515 -0.6122
18488TIP3    H176955   2.506   3.561  16.987  0.0892  1.0436 -0.0194
18488TIP3    H276956   2.566   3.594  17.122  0.2339 -1.0083  0.4327
18489TIP3   OH276957   6.206   4.448  15.216  0.0878  0.0655 -0.2516
18489TIP3    H176958   6.227   4.428  15.124 -2.9461  1.3710 -1.3061
18489TIP3    H276959   6.132   4.391  15.237  1.2406 -0.7642  1.6608
18490TIP3   OH276960   1.004   6.100  12.826  0.0762  0.1563  0.5578
18490TIP3    H176961   1.016   6.078  12.733 -0.7594  0.7531  0.3008
18490TIP3    H276962   0.913   6.078  12.844 -0.1913  1.4144  0.8343
18491TIP3   OH276963   6.384   1.787   0.943  0.0547  0.0391  0.3618
18491TIP3    H176964   6.473   1.816   0.964  0.0501 -0.4145  1.0416
18491TIP3    H276965   6.344   1.862   0.900  0.2744  0.7896  1.4513
18492TIP3   OH276966   6.034   2.033  15.243  0.0923 -0.5597  0.5203
18492TIP3    H176967   6.049   2.119  15.283  2.2029 -1.1020  0.9744
18492TIP3    H276968   6.020   1.974  15.317  0.7514 -0.9837  0.3073
18493TIP3   OH276969   3.415   2.455  17.012 -0.2496  0.1261  0.3805
18493TIP3    H176970   3.320   2.469  17.013 -0.2571  0.0147  1.6653
18493TIP3    H276971   3.450   2.530  16.964 -0.9452  0.4230  0.3420
18494TIP3   OH276972   2.156   6.475  15.057 -0.2348 -0.4606  0.4857
18494TIP3    H176973   2.238   6.492  15.010  0.1240 -3.0098  0.1082
18494TIP3    H276974   2.104   6.424  14.995 -2.5942  2.0603  0.3096
18495TIP3   OH276975   5.516   6.054   4.470  0.5495  0.2286 -0.0210
18495TIP3    H176976   5.435   6.008   4.446 -0.9836  2.8578 -0.1238
18495TIP3    H276977   5.500   6.084   4.560  0.5566  2.5447 -0.7765
18496TIP3   OH276978   0.205   3.768   1.879  0.5436  0.2379  0.0405
18496TIP3    H176979   0.207   3.862   1.898 -0.5015  0.3022 -0.1061
18496TIP3    H276980   0.133   3.758   1.817  0.7761 -0.6365 -0.0953
18497TIP3   OH276981   6.091   6.194  14.566 -0.0881  0.3832  0.1679
18497TIP3    H176982   6.056   6.280  14.589  0.0310  0.1679  1.1560
18497TIP3    H276983   6.014   6.137  14.563 -0.0420  0.3044  0.5181
18498TIP3   OH276984   3.427   6.600   3.172  0.9651 -0.5849 -0.0720
18498TIP3    H176985   3.357   6.653   3.133 -1.0815 -1.6064  2.0749
18498TIP3    H276986   3.464   6.552   3.099  1.2639  2.0106 -1.6830
18499TIP3   OH276987   1.612   4.144   0.394 -0.3459 -0.2599 -0.1189
18499TIP3    H176988   1.568   4.176   0.315  0.8411  2.0647  0.1322
18499TIP3    H276989   1.546   4.153   0.463 -0.9275 -0.9996 -0.5598
18500TIP3   OH276990   1.951   2.272  12.641  0.2302  0.1051 -0.1858
18500TIP3    H176991   1.990   2.339  12.696  2.1040 -0.6414 -0.5811
18500TIP3    H276992   1.874   2.241  12.690 -0.4059  2.2149  0.1784
18501TIP3   OH276993   0.005   6.544  12.239 -0.0631 -0.1938 -1.2482
18501TIP3    H176994  -0.048   6.466  12.221 -1.3149  0.3966 -0.1829
18501TIP3    H276995   0.063   6.518  12.310 -0.5503 -0.1085 -0.8241
18502TIP3   OH276996   5.739   2.963  13.992 -0.0861  0.0483 -0.8663
18502TIP3    H176997   5.792   2.942  14.070  0.4610 -1.0087 -1.5149
18502TIP3    H276998   5.734   3.058  13.992 -0.2247  0.0561  0.5573
18503TIP3   OH276999   6.763   3.645   6.056  0.1943  0.4416  0.1594
18503TIP3    H177000   6.709   3.602   6.122  0.3352  0.6716  0.4207
18503TIP3    H277001   6.711   3.639   5.975  0.3728 -0.5549  0.1123
18504TIP3   OH277002   4.592   1.686  14.517  0.0951  0.0248 -0.0772
18504TIP3    H177003   4.617   1.612  14.573  0.0698  1.5714  2.0689
18504TIP3    H277004   4.645   1.675  14.438  0.0218 -2.3132  0.1632
18505TIP3   OH277005   6.685   3.655   0.199  0.2939 -0.4471 -0.1891
18505TIP3    H177006   6.604   3.644   0.148 -0.5648  0.5484  0.9350
18505TIP3    H277007   6.755   3.648   0.134 -0.7143 -0.6862 -1.2745
18506TIP3   OH277008   0.819   6.491  14.289 -0.3565 -0.8742  0.0912
18506TIP3    H177009   0.852   6.417  14.340  2.2794 -0.0159 -0.2814
18506TIP3    H277010   0.818   6.565  14.351  0.3536 -0.4434 -0.3939
18507TIP3   OH277011   1.474   2.455  13.553  0.2723  0.3950  0.3704
18507TIP3    H177012   1.478   2.549  13.535  0.1135  0.7148  1.9334
18507TIP3    H277013   1.507   2.446  13.643 -1.8692 -0.7973  1.0644
18508TIP3   OH277014   2.820   1.255  10.791 -0.2385  0.4740  0.1461
18508TIP3    H177015   2.757   1.321  10.761 -0.6506  0.0708  0.1118
18508TIP3    H277016   2.823   1.191  10.720  1.1166  1.0896 -0.3808
18509TIP3   OH277017   4.626   4.572   2.885  0.7296  0.0335  0.3300
18509TIP3    H177018   4.556   4.574   2.950  0.5702  1.1847  0.1265
18509TIP3    H277019   4.582   4.587   2.801  1.2520  1.0557  0.2311
18510TIP3   OH277020   4.934   4.387  13.642 -0.3681  1.0224 -0.0802
18510TIP3    H177021   4.845   4.379  13.608 -1.3531  1.8844  2.1605
18510TIP3    H277022   4.964   4.297  13.652 -2.0441  0.6149  1.6848
18511TIP3   OH277023   0.480   4.578  11.481 -0.7313  0.2237  0.1246
18511TIP3    H177024   0.418   4.515  11.444 -1.1742  0.8879 -0.2691
18511TIP3    H277025   0.527   4.612  11.405  1.1270 -1.3209  0.5334
18512TIP3   OH277026   1.414   2.771  11.164 -0.0516  0.6618 -0.5870
18512TIP3    H177027   1.446   2.806  11.247 -0.7259  1.1946 -0.5491
18512TIP3    H277028   1.431   2.840  11.100 -0.7785  0.8081 -0.6327
18513TIP3   OH277029   3.831   5.157  10.326 -0.3623  0.2917 -0.2646
18513TIP3    H177030   3.840   5.070  10.288 -0.9190 -0.6987  1.8164
18513TIP3    H277031   3.747   5.189  10.293 -0.5285 -0.2785 -0.4012
18514TIP3   OH277032   2.017   5.847   1.256 -0.2501  0.5779  0.4192
18514TIP3    H177033   2.093   5.906   1.260  0.1548  0.0336  0.8913
18514TIP3    H277034   2.022   5.807   1.170 -1.6289  2.6726 -0.6811
18515TIP3   OH277035   1.436   5.295  15.683 -0.3178 -0.0116  0.3160
18515TIP3    H177036   1.347   5.323  15.706 -0.6084 -2.0330  1.7561
18515TIP3    H277037   1.491   5.332  15.753  0.2089  2.3206 -1.2494
18516TIP3   OH277038   4.417   2.524  13.318  0.3755 -0.0971 -0.2465
18516TIP3    H177039   4.341   2.505  13.263  0.3432  1.8126 -0.8826
18516TIP3    H277040   4.440   2.614  13.298  0.8639  0.3794  2.2865
18517TIP3   OH277041   3.835   0.099   3.481 -0.1706  0.7762  0.0967
18517TIP3    H177042   3.882   0.025   3.519  0.2225  0.8313 -0.2718
18517TIP3    H277043   3.891   0.175   3.499 -0.3028  0.9000 -0.0123
18518TIP3   OH277044   1.207   3.380  12.762  0.5899  0.6358  0.1010
18518TIP3    H177045   1.226   3.337  12.679 -0.1938  0.3761  0.0570
18518TIP3    H277046   1.242   3.469  12.751  1.3945  0.3015 -0.1320
18519TIP3   OH277047   0.353   1.620  12.768 -0.1814 -0.2084  0.3441
18519TIP3    H177048   0.261   1.595  12.780  0.2290 -2.1254 -0.3555
18519TIP3    H277049   0.402   1.540  12.783  1.3238  0.5920 -0.1739
18520TIP3   OH277050   6.377   3.792  12.889 -0.0323 -0.4128 -0.2357
18520TIP3    H177051   6.410   3.853  12.823  0.3596  0.0363  0.3769
18520TIP3    H277052   6.440   3.720  12.889  0.4290 -0.0074  0.2585
18521TIP3   OH277053   0.333   1.985   4.090  0.0791  0.3006  0.0073
18521TIP3    H177054   0.395   1.937   4.035  0.1239  0.3040  0.0551
18521TIP3    H277055   0.381   2.063   4.118 -0.4794  1.1512 -1.3175
18522TIP3   OH277056   5.702   4.788   3.822 -0.6283  0.3035  0.4484
18522TIP3    H177057   5.788   4.745   3.829 -1.0406 -0.4868  0.6778
18522TIP3    H277058   5.667   4.756   3.739 -1.4873 -0.8054  1.2377
18523TIP3   OH277059   0.764   0.790  13.998  0.3719 -0.5757  0.1240
18523TIP3    H177060   0.810   0.716  13.959  0.4266 -0.8917  0.7707
18523TIP3    H277061   0.823   0.823  14.065 -0.7968 -1.7384  1.7894
18524TIP3   OH277062   5.582   2.308  14.103  0.3904  0.6202 -0.0236
18524TIP3    H177063   5.580   2.251  14.026 -0.5828  0.1535  0.3451
18524TIP3    H277064   5.628   2.256  14.169 -1.1017 -0.0206  0.5273
18525TIP3   OH277065   2.434   6.009   4.988 -0.7223  0.0466 -0.0878
18525TIP3    H177066   2.525   6.011   5.017 -0.5056 -0.5562 -0.7118
18525TIP3    H277067   2.435   5.956   4.908 -1.6143  0.0683 -0.1241
18526TIP3   OH277068   4.220   2.068  16.459 -0.4550 -0.5564  0.5292
18526TIP3    H177069   4.207   2.105  16.547 -0.5970 -0.9422  0.6683
18526TIP3    H277070   4.300   2.016  16.466 -1.9766 -2.8552  1.1483
18527TIP3   OH277071   1.094   5.210   3.010 -0.4870  0.5845  0.3054
18527TIP3    H177072   1.017   5.195   2.955  1.1469  0.5406 -2.0194
18527TIP3    H277073   1.138   5.125   3.014  1.5073  1.4958 -1.6166
18528TIP3   OH277074   6.059   6.116   5.630  0.2991 -0.0223 -0.2500
18528TIP3    H177075   6.091   6.084   5.714 -0.2497 -1.8517 -0.7060
18528TIP3    H277076   6.124   6.087   5.567 -0.6108 -0.9981 -0.7692
18529TIP3   OH277077   4.438   6.328  13.501  0.5704  0.2000 -0.2323
18529TIP3    H177078   4.518   6.336  13.554  0.9151 -1.3426 -0.5002
18529TIP3    H277079   4.465   6.356  13.414  1.1296 -1.3857 -0.5876
18530TIP3   OH277080   2.069   0.452   1.368 -0.1831 -0.2499 -0.4395
18530TIP3    H177081   2.047   0.458   1.461  1.2217  0.3539 -0.1442
18530TIP3    H277082   2.061   0.542   1.336 -0.6548 -0.4577 -0.9011
18531TIP3   OH277083   5.045   3.461   3.940 -0.8100 -0.7899  0.3526
18531TIP3    H177084   4.999   3.466   3.856  0.8149 -0.9082 -0.5806
18531TIP3    H277085   5.054   3.367   3.957  1.8031 -0.8466 -1.0581
18532TIP3   OH277086   5.870   3.604   1.698 -0.0301 -0.1267 -0.0191
18532TIP3    H177087   5.782   3.640   1.686  0.5576  0.8218 -1.7587
18532TIP3    H277088   5.874   3.530   1.638  0.0633 -0.7025  0.6991
18533TIP3   OH277089   5.309   5.714   0.700 -0.2102  0.3223 -0.3484
18533TIP3    H177090   5.346   5.645   0.645  1.1467 -0.7308  1.8610
18533TIP3    H277091   5.227   5.677   0.733  1.4451 -1.0612  2.3940
18534TIP3   OH277092   5.926   5.335  15.936  0.2521  0.4731  0.4832
18534TIP3    H177093   5.839   5.299  15.951  1.4014 -1.9507  1.6184
18534TIP3    H277094   5.922   5.375  15.849 -2.1690  1.0260  0.8357
18535TIP3   OH277095   2.580   5.438   5.747  0.4106  0.6203  0.0734
18535TIP3    H177096   2.630   5.520   5.743  2.9693 -0.9093 -1.2266
18535TIP3    H277097   2.527   5.438   5.667 -0.4561  1.5087  0.6401
18536TIP3   OH277098   6.394   3.500  15.102  0.2321 -0.1953  0.1455
18536TIP3    H177099   6.365   3.485  15.012  0.6160  0.5239 -0.0999
18536TIP3    H277100   6.347   3.579  15.130  2.3719  1.3448 -0.4600
18537TIP3   OH277101   5.196   3.434  13.157 -0.2597 -0.0933 -0.0936
18537TIP3    H177102   5.149   3.428  13.241  1.4567 -0.9125  0.8523
18537TIP3    H277103   5.212   3.342  13.133 -0.4255  0.1493 -1.1392
18538TIP3   OH277104   1.639   4.880  14.659 -0.1384 -0.0722 -0.5763
18538TIP3    H177105   1.613   4.788  14.664  0.5686 -0.2982 -1.0374
18538TIP3    H277106   1.712   4.881  14.597 -1.8974  1.1814 -2.7211
18539TIP3   OH277107   3.399   5.489   5.023 -0.2152  0.1092 -0.7771
18539TIP3    H177108   3.415   5.502   4.930  0.0719  0.7554 -0.6378
18539TIP3    H277109   3.303   5.494   5.032 -0.0769  3.1037 -0.5930
18540TIP3   OH277110   1.128   5.760  16.811 -0.2015 -0.2769  0.1430
18540TIP3    H177111   1.120   5.750  16.905  0.4730  2.1738  0.4878
18540TIP3    H277112   1.197   5.824  16.799 -0.7856  0.0065 -2.0021
18541TIP3   OH277113   0.370   5.716  14.246 -0.0598  0.1344 -0.6283
18541TIP3    H177114   0.313   5.793  14.239 -0.6241 -0.3632 -1.5470
18541TIP3    H277115   0.398   5.698  14.156 -0.8279 -1.4038 -0.5731
18542TIP3   OH277116   2.918   5.877  13.870  0.1468  0.2000 -0.5885
18542TIP3    H177117   3.005   5.840  13.858 -0.0181 -0.3812 -0.0287
18542TIP3    H277118   2.933   5.961  13.913  0.4309  0.0662 -0.4237
18543TIP3   OH277119   5.650   3.652   6.719 -0.3406  0.4270  0.1613
18543TIP3    H177120   5.611   3.633   6.634 -1.8927 -1.7529  1.3293
18543TIP3    H277121   5.722   3.590   6.727  1.7645  2.6494 -0.8142
18544TIP3   OH277122   2.066   4.828  10.722 -0.2325 -0.0902 -0.3307
18544TIP3    H177123   2.108   4.902  10.678 -0.9082  0.8244  0.5328
18544TIP3    H277124   1.991   4.867  10.767  0.1492 -1.0799  1.1901
18545TIP3   OH277125   5.086   3.231   1.777 -0.5164  0.5153 -0.6728
18545TIP3    H177126   5.154   3.262   1.717 -1.2454  0.9045 -1.3139
18545TIP3    H277127   5.047   3.156   1.731 -0.9761  0.7230 -0.6230
18546TIP3   OH277128   6.586   0.705  16.367  0.3342 -0.1155  0.7353
18546TIP3    H177129   6.554   0.677  16.453  0.2874 -1.1585  0.3797
18546TIP3    H277130   6.546   0.791  16.354 -0.6031 -0.4599  1.2501
18547TIP3   OH277131   4.779   1.778   5.439  0.3797 -0.4151  0.0872
18547TIP3    H177132   4.739   1.820   5.515 -1.5709 -0.3830 -0.9242
18547TIP3    H277133   4.794   1.688   5.467  0.9404 -0.0539  0.9627
18548TIP3   OH277134   5.274   5.848   0.354  0.1884  0.0476  0.4455
18548TIP3    H177135   5.190   5.889   0.371  0.2784  0.2241  0.4696
18548TIP3    H277136   5.327   5.867   0.432 -0.3287 -1.5996  1.2139
18549TIP3   OH277137   3.614   6.633  13.474  0.3081 -0.0255  0.5893
18549TIP3    H177138   3.552   6.650  13.404  1.0152 -1.2532 -0.3533
18549TIP3    H277139   3.658   6.717  13.487  0.8185 -0.0073 -1.0866
18550TIP3   OH277140   5.720   0.744   2.640 -0.5058 -0.1823  0.2991
18550TIP3    H177141   5.674   0.763   2.722 -0.7195 -0.1805  0.1791
18550TIP3    H277142   5.811   0.732   2.666 -0.8541 -1.9285  0.7926
18551TIP3   OH277143   5.369   1.496  13.520  0.3945  0.1111 -0.6217
18551TIP3    H177144   5.299   1.533  13.573 -0.0609  2.0472 -2.5356
18551TIP3    H277145   5.449   1.514  13.570 -0.1488  0.8333 -0.0144
18552TIP3   OH277146   1.650   1.092   1.675  0.0004 -0.0694  0.0179
18552TIP3    H177147   1.573   1.142   1.705 -0.3313 -0.2337 -0.5547
18552TIP3    H277148   1.614   1.008   1.646  0.3698 -0.0394 -0.5174
18553TIP3   OH277149   2.625   1.495   5.846  0.0091  0.1519 -0.7826
18553TIP3    H177150   2.696   1.431   5.846 -1.4823 -1.5413 -0.4344
18553TIP3    H277151   2.662   1.571   5.891  1.0958 -1.2721  0.7989
18554TIP3   OH277152   3.047   1.837  10.945  0.1941  0.4282  0.0965
18554TIP3    H177153   3.031   1.843  11.039 -0.0403 -0.5231  0.1244
18554TIP3    H277154   3.099   1.915  10.924  1.5100 -0.1184  1.2881
18555TIP3   OH277155   2.428   3.388  16.218  0.0806  0.5188  0.0449
18555TIP3    H177156   2.451   3.417  16.306 -0.6917 -1.7057  1.0219
18555TIP3    H277157   2.347   3.339  16.230 -0.5108  0.9490 -2.0543
18556TIP3   OH277158   3.568   1.242  15.399  0.0473 -0.4490  0.2467
18556TIP3    H177159   3.627   1.275  15.466 -0.2318  0.2250  0.1696
18556TIP3    H277160   3.618   1.248  15.318 -0.2373  0.4503  0.1287
18557TIP3   OH277161   5.291   6.674   1.029  0.5630  0.4461 -0.0097
18557TIP3    H177162   5.306   6.587   1.067 -1.0954  1.4314  3.0875
18557TIP3    H277163   5.222   6.659   0.963 -2.4672 -0.1119  3.1094
18558TIP3   OH277164   1.018   2.572   4.226  0.0698  0.3566 -0.2731
18558TIP3    H177165   0.982   2.595   4.141 -2.2671 -2.1684 -0.0363
18558TIP3    H277166   0.986   2.640   4.285  0.2782  1.1530 -1.0648
18559TIP3   OH277167   4.910   4.463  11.549  0.4231 -0.1483 -0.2419
18559TIP3    H177168   4.851   4.451  11.624 -0.2570 -0.3122 -0.7984
18559TIP3    H277169   4.984   4.511  11.585 -0.8006  1.5322  0.1202
18560TIP3   OH277170   2.405   4.542   1.280 -0.0103  0.2769  0.0181
18560TIP3    H177171   2.345   4.468   1.270  1.7922 -1.4975  1.9883
18560TIP3    H277172   2.476   4.524   1.219 -1.4512  2.4527 -2.4183
18561TIP3   OH277173   4.135   4.761   4.626 -0.0713 -0.6804 -0.0474
18561TIP3    H177174   4.074   4.806   4.567  1.0332  0.6100 -0.2148
18561TIP3    H277175   4.198   4.719   4.568 -0.5652 -1.6804  0.1394
18562TIP3   OH277176   1.883   0.058   4.284 -0.0139  0.1776  0.6596
18562TIP3    H177177   1.842   0.140   4.256  1.0432 -0.1570 -2.0509
18562TIP3    H277178   1.810   0.001   4.307 -0.8500  1.2123  0.6133
18563TIP3   OH277179   4.389   0.992  13.327 -0.4501 -0.4272  0.5282
18563TIP3    H177180   4.384   0.919  13.388  2.1757 -1.3427 -0.2909
18563TIP3    H277181   4.370   0.953  13.242 -0.9877  0.2384  0.3397
18564TIP3   OH277182   1.612   6.334   2.320 -0.3104  0.5875  0.1658
18564TIP3    H177183   1.587   6.397   2.252 -0.3805  0.1423 -0.2230
18564TIP3    H277184   1.670   6.273   2.275 -0.9026 -0.1091  0.3446
18565TIP3   OH277185   4.355   0.296  16.728 -0.0244 -0.0504  0.2335
18565TIP3    H177186   4.422   0.363  16.711  1.0809 -1.2304 -0.1285
18565TIP3    H277187   4.345   0.250  16.645  1.6579 -2.4761  1.3002
18566TIP3   OH277188   2.626   0.843  13.877 -0.0698 -0.4802 -0.1949
18566TIP3    H177189   2.599   0.931  13.902 -0.3653 -0.9650  1.2507
18566TIP3    H277190   2.545   0.798  13.854  0.1685 -0.1363 -1.7384
18567TIP3   OH277191   1.446   4.015   0.159  0.4509 -0.2028 -0.0557
18567TIP3    H177192   1.454   3.957   0.083  0.9010  0.0319 -0.1893
18567TIP3    H277193   1.476   3.962   0.233 -0.1715 -0.4943 -0.0111
18568TIP3   OH277194   5.182   6.558  16.613  0.4231 -0.5655  0.1581
18568TIP3    H177195   5.158   6.471  16.647 -2.0706  0.0941  0.1856
18568TIP3    H277196   5.144   6.560  16.525 -0.5154  0.8974  0.5793
18569TIP3   OH277197   5.005   1.750   1.221  0.5311  0.0534 -0.1928
18569TIP3    H177198   4.937   1.736   1.287 -2.1129  0.4463 -2.7251
18569TIP3    H277199   5.001   1.672   1.166  2.5888 -0.1973 -0.0168
18570TIP3   OH277200   3.418   5.559   2.278  0.1772 -0.2406  0.4330
18570TIP3    H177201   3.465   5.523   2.353  1.2168  1.5699  0.6668
18570TIP3    H277202   3.485   5.602   2.226 -1.0328  1.3334  0.1505
18571TIP3   OH277203   3.583   2.085  15.978  0.2324  0.5492  0.1412
18571TIP3    H177204   3.501   2.055  15.938 -1.0889  0.2734  2.9731
18571TIP3    H277205   3.575   2.181  15.978  0.6509  0.5972 -1.0388
18572TIP3   OH277206   1.291   1.065   3.962  0.6132 -0.6013  0.1379
18572TIP3    H177207   1.226   1.074   3.893  1.3350 -0.7298 -0.5584
18572TIP3    H277208   1.370   1.106   3.927  0.7572  0.0572  1.1936
18573TIP3   OH277209   1.072   6.218  16.424  0.0211 -0.0081  0.0874
18573TIP3    H177210   1.164   6.212  16.450 -0.4818 -1.2365  1.6384
18573TIP3    H277211   1.066   6.167  16.344  0.6772  0.0649 -0.0113
18574TIP3   OH277212   3.976   0.545   4.203 -0.3642  0.1791 -1.2173
18574TIP3    H177213   4.007   0.461   4.170 -2.1439 -0.7424 -0.5726
18574TIP3    H277214   3.914   0.576   4.137 -1.9050 -0.4009 -0.0613
18575TIP3   OH277215   4.544   2.736   1.573  0.1555  0.2755  0.0196
18575TIP3    H177216   4.514   2.759   1.485 -0.3451 -1.2080 -0.2036
18575TIP3    H277217   4.627   2.690   1.560  0.6151  0.9768  0.4024
18576TIP3   OH277218   4.547   6.436   0.645 -0.3088 -0.5261  0.3436
18576TIP3    H177219   4.498   6.505   0.601 -2.7776 -1.2662  1.8225
18576TIP3    H277220   4.620   6.482   0.686 -0.0533  0.6957 -1.4006
18577TIP3   OH277221   6.394   4.873   4.159 -0.3423 -0.7545 -0.7823
18577TIP3    H177222   6.335   4.934   4.203 -0.3248 -1.5768  0.4178
18577TIP3    H277223   6.343   4.838   4.086 -0.2113  0.9929 -1.7191
18578TIP3   OH277224   2.720   4.086  14.708  0.0621 -0.9210 -0.5225
18578TIP3    H177225   2.794   4.088  14.647 -0.3850  0.6868 -1.0294
18578TIP3    H277226   2.669   4.009  14.681  0.3115 -0.7037 -1.6639
18579TIP3   OH277227   3.590   5.292  11.751  0.0972  0.8361  0.0987
18579TIP3    H177228   3.656   5.247  11.699  0.0888 -0.4080  1.1342
18579TIP3    H277229   3.516   5.232  11.754  0.6495  0.2287  2.7483
18580TIP3   OH277230   5.969   1.238  17.082  0.2486  0.0096 -0.0810
18580TIP3    H177231   5.940   1.149  17.060 -2.1725  0.1045  2.3676
18580TIP3    H277232   5.929   1.293  17.014 -1.2186 -0.4306  0.3881
18581TIP3   OH277233   4.826   0.824  12.840  0.2471 -0.3345 -0.1915
18581TIP3    H177234   4.795   0.873  12.916 -1.4044 -0.6643 -0.6395
18581TIP3    H277235   4.849   0.738  12.875 -2.0348 -1.0170 -0.3055
18582TIP3   OH277236   0.134   5.202   3.297 -0.6479 -0.0697 -0.3168
18582TIP3    H177237   0.127   5.252   3.378 -0.1803  0.9735 -0.9053
18582TIP3    H277238   0.158   5.267   3.231  0.5171 -1.1580 -0.9928
18583TIP3   OH277239   0.287   6.175  12.183 -0.3685  0.4295  0.2736
18583TIP3    H177240   0.345   6.100  12.187 -0.6733  0.1971  0.3514
18583TIP3    H277241   0.279   6.194  12.089 -1.7238 -0.7581  0.1280
18584TIP3   OH277242   2.067   6.620   1.631 -0.2884  0.6794  0.0383
18584TIP3    H177243   2.020   6.700   1.656  1.5295  1.5347  0.8419
18584TIP3    H277244   2.118   6.646   1.554  0.0901  0.2149  0.1340
18585TIP3   OH277245   2.307   3.894  17.101 -0.0446  0.5140 -0.0891
18585TIP3    H177246   2.282   3.965  17.160  0.2849 -0.3690  1.1247
18585TIP3    H277247   2.350   3.938  17.028 -0.6549  1.6358  0.2150
18586TIP3   OH277248   2.606   5.173   2.298  0.1478  0.0324 -0.2465
18586TIP3    H177249   2.594   5.113   2.224  0.0509  0.1918 -0.3607
18586TIP3    H277250   2.623   5.116   2.373  3.4883 -0.0578 -1.0069
18587TIP3   OH277251   5.869   1.784   2.675 -0.4669  0.1069  0.2997
18587TIP3    H177252   5.933   1.731   2.626  0.7832 -0.3595  2.3384
18587TIP3    H277253   5.802   1.721   2.703 -0.8168  0.2431 -0.2385
18588TIP3   OH277254   3.101   6.261   0.437  0.3295  0.6346 -0.0359
18588TIP3    H177255   3.187   6.226   0.461  0.7235  1.1144 -0.7146
18588TIP3    H277256   3.116   6.303   0.352 -0.8061 -0.1583 -0.6225
18589TIP3   OH277257   4.469   0.824   3.931  0.0167 -0.0438  0.1974
18589TIP3    H177258   4.508   0.890   3.875 -1.8646  0.4159 -0.6241
18589TIP3    H277259   4.500   0.845   4.019 -0.9020  2.2312  0.0117
18590TIP3   OH277260   5.974   0.738  13.350  0.3953  0.1758 -0.4646
18590TIP3    H177261   5.893   0.692  13.327  0.4721 -0.3526  0.3239
18590TIP3    H277262   5.952   0.786  13.430  0.7678  0.3003 -0.4401
18591TIP3   OH277263   0.187   3.246   2.477  0.0782 -0.5342  0.3526
18591TIP3    H177264   0.121   3.187   2.514 -1.1509  0.5711 -0.0269
18591TIP3    H277265   0.142   3.330   2.469  1.9001  0.5765  1.2621
18592TIP3   OH277266   2.197   2.083  11.451 -0.5856 -0.1608 -0.1868
18592TIP3    H177267   2.168   2.038  11.372 -0.9955  0.2568 -0.2741
18592TIP3    H277268   2.283   2.118  11.428 -1.2263  0.9979 -0.8516
18593TIP3   OH277269   4.813   6.540  14.554 -0.0390 -0.1170 -0.1043
18593TIP3    H177270   4.881   6.569  14.494 -0.1174  0.3474  0.0288
18593TIP3    H277271   4.860   6.515  14.634  0.0761 -0.8411 -0.3966
18594TIP3   OH277272   5.982   3.271   3.771 -0.1612  0.0175 -0.5601
18594TIP3    H177273   5.902   3.251   3.722 -0.1646  1.5007 -1.1934
18594TIP3    H277274   5.967   3.360   3.805  1.1240  0.2133 -0.4842
18595TIP3   OH277275   4.071   1.804  13.285  0.8340  0.1849 -0.0378
18595TIP3    H177276   3.976   1.809  13.300  0.2474 -0.7430 -3.1131
18595TIP3    H277277   4.102   1.892  13.305 -0.5443  0.3235  1.6734
18596TIP3   OH277278   4.031   6.083  15.276 -0.3333  0.5658  0.0789
18596TIP3    H177279   4.044   6.154  15.339  0.2178  0.4186  0.1378
18596TIP3    H277280   4.110   6.030  15.283 -0.5102  0.2396 -0.3447
18597TIP3   OH277281   3.457   6.096  13.082 -0.0220  0.2452 -0.2199
18597TIP3    H177282   3.406   6.139  13.151  0.6558 -2.2976  1.9598
18597TIP3    H277283   3.548   6.120  13.100  0.0916  0.1505 -0.6496
18598TIP3   OH277284   1.069   0.907   5.012 -0.0785 -0.4254 -0.2315
18598TIP3    H177285   1.105   0.986   5.050  0.4815 -0.7968  0.0097
18598TIP3    H277286   0.975   0.926   5.001  0.1559  0.4743 -0.7194
18599TIP3   OH277287   6.643   1.405   2.944 -0.6347  0.0053 -0.0949
18599TIP3    H177288   6.697   1.345   2.995  0.0584  1.2461  0.6523
18599TIP3    H277289   6.658   1.491   2.984 -0.2483  0.9635 -2.2491
18600TIP3   OH277290   2.879   1.874   6.551 -0.8186  0.3423  0.2103
18600TIP3    H177291   2.790   1.900   6.574 -0.7574 -0.6868  1.7159
18600TIP3    H277292   2.869   1.804   6.488 -1.0470  1.0182 -0.5126
18601TIP3   OH277293   0.995   5.582  16.624 -0.1379  0.3436  0.1581
18601TIP3    H177294   1.035   5.626  16.699  0.0918  0.9598 -0.3244
18601TIP3    H277295   0.924   5.640  16.597 -0.0795  0.2353 -0.2365
18602TIP3   OH277296   2.820   3.189  14.601  0.0901 -0.7051 -0.2525
18602TIP3    H177297   2.741   3.239  14.621  0.7847 -0.0660  0.9565
18602TIP3    H277298   2.815   3.172  14.507 -0.0178  1.8732 -0.7523
18603TIP3   OH277299   4.755   1.086   0.620 -0.0681 -0.1089 -0.0850
18603TIP3    H177300   4.831   1.143   0.628  0.5171 -0.9018  0.1696
18603TIP3    H277301   4.681   1.140   0.647  0.3396  0.8205 -0.8233
18604TIP3   OH277302   4.697   2.244   0.914 -0.4937  0.4608  0.3580
18604TIP3    H177303   4.791   2.238   0.929 -0.3659  1.8536  0.2001
18604TIP3    H277304   4.676   2.336   0.928 -1.6328  0.3861 -0.7352
18605TIP3   OH277305   3.781   0.736  11.819  0.7102  0.6230  0.2470
18605TIP3    H177306   3.838   0.729  11.743  0.3653  0.2141  0.0242
18605TIP3    H277307   3.792   0.827  11.848  1.2329  0.6338  0.0219
18606TIP3   OH277308   3.315   1.640  11.747 -0.2033 -0.0537 -0.1381
18606TIP3    H177309   3.294   1.594  11.829  3.9671 -0.9337  0.5414
18606TIP3    H277310   3.343   1.727  11.775 -2.3035  0.9263 -0.9722
18607TIP3   OH277311   6.278   2.101  16.724  0.1899 -0.9596 -0.1422
18607TIP3    H177312   6.288   2.158  16.647 -0.5069 -0.7157 -0.0550
18607TIP3    H277313   6.185   2.105  16.744  0.5645 -0.0076  1.5018
18608TIP3   OH277314   5.305   3.938  15.861  0.2076  0.2708  0.5816
18608TIP3    H177315   5.396   3.964  15.875  0.4276 -0.0362 -0.2727
18608TIP3    H277316   5.310   3.854  15.817 -0.4742  0.8204 -0.5666
18609TIP3   OH277317   1.181   5.406  15.823  0.3520  0.0755  0.0782
18609TIP3    H177318   1.152   5.325  15.864  1.7352 -0.2920  0.3225
18609TIP3    H277319   1.147   5.476  15.880 -0.8061 -0.3103 -0.1170
18610TIP3   OH277320   1.111   4.712   2.529 -0.4021  0.0894 -0.2896
18610TIP3    H177321   1.152   4.796   2.512 -0.7461  0.2356 -0.3896
18610TIP3    H277322   1.172   4.648   2.492 -0.5026  0.3355 -0.8782
18611TIP3   OH277323   3.641   0.298  17.190  0.5400  0.5087 -0.7786
18611TIP3    H177324   3.683   0.335  17.267 -1.7804 -0.4960  1.0299
18611TIP3    H277325   3.609   0.373  17.141  0.2883  1.0876  0.2730
18612TIP3   OH277326   2.418   2.835  13.529 -0.4770 -0.0316  0.0931
18612TIP3    H177327   2.467   2.901  13.578 -1.6248  0.6283  0.3882
18612TIP3    H277328   2.473   2.757  13.532 -0.3532  0.0909  2.1504
18613TIP3   OH277329   0.359   3.315   2.690  0.0643  0.3288 -0.2033
18613TIP3    H177330   0.327   3.404   2.705 -0.6559  0.1204 -0.4951
18613TIP3    H277331   0.303   3.281   2.620 -1.1393 -1.1554  1.4545
18614TIP3   OH277332   1.227   2.406  11.744 -0.3297  0.4288  0.4985
18614TIP3    H177333   1.263   2.460  11.814 -1.1286 -0.1394  1.3685
18614TIP3    H277334   1.145   2.450  11.720 -1.2421 -0.6536  1.5651
18615TIP3   OH277335   6.769   0.422   0.246  0.2255  0.3125  0.1518
18615TIP3    H177336   6.807   0.401   0.160  0.0234 -1.3746  0.4633
18615TIP3    H277337   6.711   0.496   0.229 -1.2048 -1.1512 -1.5086
18616TIP3   OH277338   2.527   4.465  17.025 -0.6696 -0.6381 -0.0762
18616TIP3    H177339   2.493   4.548  17.058 -0.5771 -1.0821  1.1511
18616TIP3    H277340   2.497   4.461  16.934 -1.0924  0.5073  0.0070
18617TIP3   OH277341   4.205   5.593  12.199 -0.6178  0.1311  0.4500
18617TIP3    H177342   4.214   5.659  12.130 -2.5123  0.3223  0.3358
18617TIP3    H277343   4.112   5.597  12.223 -0.3219 -1.0841  1.8651
18618TIP3   OH277344   2.807   0.315   5.856  0.0042 -0.6649  0.6130
18618TIP3    H177345   2.855   0.235   5.835 -1.7999 -1.4913 -0.4900
18618TIP3    H277346   2.862   0.386   5.822  0.8105 -1.5349  0.0913
18619TIP3   OH277347   1.487   6.704  13.316  0.4929  0.0338  0.2638
18619TIP3    H177348   1.533   6.787  13.331 -0.5045  0.4419  1.1545
18619TIP3    H277349   1.491   6.659  13.401 -0.7703  0.1016  0.3719
18620TIP3   OH277350   4.484   0.251   5.510 -0.2977 -0.1207  0.5840
18620TIP3    H177351   4.490   0.171   5.562 -2.0979 -2.3154 -2.3800
18620TIP3    H277352   4.572   0.263   5.474  0.1918 -0.2987  1.7217
18621TIP3   OH277353   1.299   5.133  11.657  0.1801  0.0014  0.1250
18621TIP3    H177354   1.234   5.070  11.687 -1.4408  1.5873  0.0439
18621TIP3    H277355   1.266   5.163  11.572  1.4981  0.1557 -0.3532
18622TIP3   OH277356   0.560   0.392   2.994  0.0046  0.5830  0.1670
18622TIP3    H177357   0.625   0.456   2.966  1.7958 -1.6320 -0.9237
18622TIP3    H277358   0.568   0.320   2.932 -1.9561 -0.7087  1.3338
18623TIP3   OH277359   2.497   4.180  16.707 -0.0795 -0.4243  0.0172
18623TIP3    H177360   2.449   4.115  16.759 -1.4432  0.3395 -0.2696
18623TIP3    H277361   2.454   4.263  16.726  0.6551  0.1594 -0.8368
18624TIP3   OH277362   0.064   6.536  15.577  0.2227  0.1821 -0.1578
18624TIP3    H177363   0.148   6.519  15.621 -0.2032 -0.0376  0.5883
18624TIP3    H277364   0.054   6.631  15.581  1.2861  0.3869 -1.8556
18625TIP3   OH277365   0.530   2.930   5.767  0.0449  0.4932  0.1864
18625TIP3    H177366   0.520   2.835   5.763  0.7839  0.3357  1.8631
18625TIP3    H277367   0.579   2.952   5.688 -2.3708 -0.1902 -1.5719
18626TIP3   OH277368   2.571   1.564  16.625 -0.1339  0.8586 -0.1862
18626TIP3    H177369   2.639   1.631  16.614 -1.3327  2.0360 -0.6395
18626TIP3    H277370   2.492   1.614  16.649 -1.1135 -0.3660 -0.8076
18627TIP3   OH277371   1.104   0.753   0.862 -0.1233 -0.0701 -0.0097
18627TIP3    H177372   1.023   0.803   0.870 -0.6267 -1.0196  1.0567
18627TIP3    H277373   1.076   0.662   0.867  1.2049 -0.3761  2.5433
18628TIP3   OH277374   5.260   6.530  15.376 -0.6440 -0.1979  0.3917
18628TIP3    H177375   5.324   6.511  15.445  0.2736  1.7753  0.1111
18628TIP3    H277376   5.236   6.622  15.391 -1.3292 -0.1154 -1.1927
18629TIP3   OH277377   3.778   5.157   3.075 -0.1558 -0.4437 -0.6421
18629TIP3    H177378   3.722   5.096   3.122 -0.4691 -0.3044 -0.8278
18629TIP3    H277379   3.852   5.173   3.133 -1.2908  0.9116  0.4430
18630TIP3   OH277380   1.751   2.961   6.596  0.2044 -0.1328  0.2411
18630TIP3    H177381   1.693   2.976   6.670  0.2905  0.1927  0.2444
18630TIP3    H277382   1.749   3.043   6.546 -0.9877 -0.8580 -0.9149
18631TIP3   OH277383   1.806   1.333  14.206 -0.1842 -0.1665 -0.1876
18631TIP3    H177384   1.862   1.319  14.130  0.8140  2.2243  0.0564
18631TIP3    H277385   1.807   1.428  14.219 -0.2816 -0.5342  2.8513
18632TIP3   OH277386   2.061   5.144  17.126 -0.0376  0.3955 -0.1335
18632TIP3    H177387   1.978   5.104  17.100 -0.2279  0.2213  0.7371
18632TIP3    H277388   2.119   5.128  17.051 -0.2952 -0.9603 -0.0698
18633TIP3   OH277389   4.726   6.789  15.357  0.3572  0.1182 -0.3557
18633TIP3    H177390   4.708   6.720  15.293  0.7163  0.5175 -0.8916
18633TIP3    H277391   4.725   6.744  15.441 -0.6179 -0.3183 -0.6018
18634TIP3   OH277392   5.313   0.751   6.422 -0.1084 -0.0298  0.2729
18634TIP3    H177393   5.384   0.814   6.412 -1.4316  1.2275 -1.4241
18634TIP3    H277394   5.245   0.798   6.471 -0.9032 -0.2922 -0.5627
18635TIP3   OH277395   3.609   4.432   4.666 -0.6817 -0.0081 -0.4287
18635TIP3    H177396   3.555   4.399   4.593 -0.6101 -2.1753  0.4521
18635TIP3    H277397   3.559   4.408   4.745 -0.1791  1.2594  0.2880
18636TIP3   OH277398   1.030   4.654   0.123  0.4087 -0.3233  0.4065
18636TIP3    H177399   0.976   4.578   0.102  0.6170  0.1478 -1.9654
18636TIP3    H277400   1.079   4.628   0.201  0.5634 -2.6703 -0.4351
18637TIP3   OH277401   3.901   0.179   4.740 -0.1421 -0.4575 -0.0951
18637TIP3    H177402   3.807   0.177   4.726  0.0199 -1.6837 -1.0265
18637TIP3    H277403   3.935   0.228   4.665 -0.0874  0.6122  0.6095
18638TIP3   OH277404   4.514   0.199   2.090  0.3225  0.0635 -0.7314
18638TIP3    H177405   4.582   0.259   2.121  1.6099 -1.7499  0.0594
18638TIP3    H277406   4.515   0.128   2.154 -0.2395 -1.4479 -2.3782
18639TIP3   OH277407   2.936   3.167   2.847  0.3938  0.7148 -0.7024
18639TIP3    H177408   2.975   3.124   2.922 -1.3735  1.1600  0.5192
18639TIP3    H277409   2.962   3.114   2.772  2.7786  0.6681  0.1213
18640TIP3   OH277410   4.436   2.605  11.328  0.3423  0.5434 -0.4565
18640TIP3    H177411   4.411   2.513  11.342 -0.9469  1.1368  1.4281
18640TIP3    H277412   4.531   2.604  11.329  0.3561 -0.4745  1.9963
18641TIP3   OH277413   5.774   0.549   0.058 -0.1235  0.3996  0.0973
18641TIP3    H177414   5.842   0.616   0.064  1.4041 -1.1151  0.2018
18641TIP3    H277415   5.817   0.474   0.017 -2.3969  0.2314 -2.1315
18642TIP3   OH277416   0.878   3.458  12.426 -0.4414 -0.1085 -0.6677
18642TIP3    H177417   0.795   3.427  12.391 -0.4425 -0.7395 -0.1321
18642TIP3    H277418   0.941   3.390  12.402  0.4804  1.6840 -3.4690
18643TIP3   OH277419   2.776   6.322  13.442  0.1008  0.1253 -0.5171
18643TIP3    H177420   2.815   6.246  13.483  1.1007  0.4918 -0.7829
18643TIP3    H277421   2.713   6.286  13.380  0.0616 -0.4659 -0.1347
18644TIP3   OH277422   0.564   6.653   2.400  0.7078 -0.1663 -0.7490
18644TIP3    H177423   0.475   6.620   2.390  0.5540 -0.2079  0.6092
18644TIP3    H277424   0.607   6.635   2.317 -0.7873  0.5698 -1.7050
18645TIP3   OH277425   5.093   0.547  12.685 -0.0859  0.8224 -0.0001
18645TIP3    H177426   5.141   0.588  12.613 -0.9233 -1.0908 -1.7051
18645TIP3    H277427   5.004   0.538  12.651 -0.1587 -1.3940  0.7496
18646TIP3   OH277428   3.709   5.065   1.403  0.2285  0.1621  0.4742
18646TIP3    H177429   3.646   5.099   1.339 -0.0303 -0.4894  0.3805
18646TIP3    H277430   3.655   5.033   1.475  0.4108 -1.0350  0.0893
18647TIP3   OH277431   2.904   4.087  11.718 -0.5450 -0.1916 -0.3574
18647TIP3    H177432   2.989   4.124  11.744 -1.2072  0.3307  1.1297
18647TIP3    H277433   2.873   4.144  11.648 -0.7814  1.1315  0.7804
18648TIP3   OH277434   1.463   1.559  16.941  0.6426 -0.3407 -0.3041
18648TIP3    H177435   1.442   1.623  16.873 -0.2308  0.4790  0.7217
18648TIP3    H277436   1.540   1.512  16.907 -0.0209 -0.2265 -2.0349
18649TIP3   OH277437   3.729   6.437  11.572  0.0256 -0.0551 -0.1720
18649TIP3    H177438   3.766   6.504  11.629  0.9138 -1.0350  0.4218
18649TIP3    H277439   3.673   6.485  11.512  0.5278  1.2013  0.3481
18650TIP3   OH277440   0.830   4.313   3.480  0.3443 -0.2953  0.6867
18650TIP3    H177441   0.797   4.277   3.562 -0.2723 -0.8633  0.2052
18650TIP3    H277442   0.762   4.376   3.453  1.0540  0.6789  1.1419
18651TIP3   OH277443   6.153   0.660  16.706 -0.1742  0.4223  0.5949
18651TIP3    H177444   6.108   0.674  16.789 -0.4178  2.4937  0.1380
18651TIP3    H277445   6.244   0.683  16.723 -0.3107  1.3007  0.2006
18652TIP3   OH277446   4.281   1.725   2.051  0.4166 -0.6056 -0.0029
18652TIP3    H177447   4.315   1.683   1.972  0.4294  0.0304 -0.3416
18652TIP3    H277448   4.271   1.654   2.114  3.4577 -0.6557  0.4859
18653TIP3   OH277449   3.759   3.936  12.995  1.3895  0.1890 -0.1509
18653TIP3    H177450   3.686   3.896  13.044  1.7288  0.6310  0.7294
18653TIP3    H277451   3.763   3.886  12.914 -1.1433  1.4015 -1.0848
18654TIP3   OH277452   5.665   0.498   3.512  0.0791 -0.2784  0.2061
18654TIP3    H177453   5.673   0.525   3.421  0.2419  0.7986  0.5251
18654TIP3    H277454   5.669   0.402   3.510 -2.3473 -0.3772 -1.1256
18655TIP3   OH277455   2.688   3.857  12.449 -0.7549 -0.3001  0.3106
18655TIP3    H177456   2.618   3.839  12.513 -2.0744  2.1330 -0.3624
18655TIP3    H277457   2.642   3.883  12.370  0.9125  0.3564 -0.4701
18656TIP3   OH277458   1.931   3.944  16.490  0.1429 -0.1148 -0.0859
18656TIP3    H177459   1.860   4.008  16.484 -1.0936 -1.4437 -0.1319
18656TIP3    H277460   1.942   3.929  16.583  1.5169  1.3217 -0.0065
18657TIP3   OH277461   6.599   2.724  11.659  0.3453 -0.6691  0.2466
18657TIP3    H177462   6.575   2.676  11.580  0.7599  0.3520 -0.5162
18657TIP3    H277463   6.690   2.750  11.645  0.5209 -0.7504  1.2009
18658TIP3   OH277464   3.781   1.907   0.498 -0.0739  0.1416 -0.6544
18658TIP3    H177465   3.843   1.886   0.428 -0.2098 -0.3564 -0.6283
18658TIP3    H277466   3.809   1.993   0.530 -0.2833  0.5629 -1.6013
18659TIP3   OH277467   0.601   1.271   6.314 -0.3350  0.7696 -0.1366
18659TIP3    H177468   0.588   1.194   6.260 -0.1316  0.3937  0.3436
18659TIP3    H277469   0.662   1.243   6.383  2.9651  2.4349 -2.2456
18660TIP3   OH277470   4.923   3.719   1.811 -0.2413 -0.6103  0.4813
18660TIP3    H177471   4.941   3.685   1.724 -1.2779  0.5626 -0.2023
18660TIP3    H277472   4.975   3.663   1.870  0.7543 -1.1619 -0.9010
18661TIP3   OH277473   0.284   1.268  15.188  0.3703 -0.0937  0.3631
18661TIP3    H177474   0.342   1.338  15.215  0.5536  0.0615 -0.4096
18661TIP3    H277475   0.217   1.311  15.134 -0.5113 -0.2528  1.3082
18662TIP3   OH277476   4.617   2.424  12.026  0.3594 -0.7043  0.1181
18662TIP3    H177477   4.533   2.422  12.071  0.3885 -1.3318  0.1545
18662TIP3    H277478   4.644   2.332  12.022  0.3183 -0.6585 -1.2694
18663TIP3   OH277479   3.333   3.499   1.862 -0.2424  0.0177 -0.3991
18663TIP3    H177480   3.376   3.582   1.846  1.9899 -0.7775  1.2293
18663TIP3    H277481   3.389   3.454   1.925 -3.2196 -1.2809  1.4562
18664TIP3   OH277482   3.484   2.498  12.391 -0.3164 -0.7028  0.0297
18664TIP3    H177483   3.536   2.577  12.408  1.5892 -1.7827 -0.6561
18664TIP3    H277484   3.455   2.469  12.477  0.1613 -0.0450  0.4171
18665TIP3   OH277485   2.447   6.104   5.854 -0.0664 -0.2804  0.0561
18665TIP3    H177486   2.438   6.168   5.783 -2.4475 -1.8466 -1.1169
18665TIP3    H277487   2.539   6.111   5.880  0.2689  2.0309 -1.5467
18666TIP3   OH277488   5.231   4.635   1.116  0.2423 -0.2179 -0.2156
18666TIP3    H177489   5.271   4.636   1.029  0.4838  1.4956 -0.1023
18666TIP3    H277490   5.258   4.718   1.156  1.0878 -1.4760  1.9279
18667TIP3   OH277491   4.281   6.021   6.338  0.2808  0.1520  0.0549
18667TIP3    H177492   4.309   5.949   6.280  0.1228  1.3300 -1.5003
18667TIP3    H277493   4.239   6.084   6.280  1.3608  2.0096  1.2415
18668TIP3   OH277494   1.149   1.042  15.186 -0.1694  0.0887  0.9597
18668TIP3    H177495   1.217   1.041  15.119 -1.7998 -4.4010 -0.8181
18668TIP3    H277496   1.073   1.079  15.142 -0.1779  0.7940  1.5558
18669TIP3   OH277497   5.391   5.268   3.659  0.1732 -0.3657 -0.2598
18669TIP3    H177498   5.312   5.221   3.634 -1.9750  3.1436 -0.4112
18669TIP3    H277499   5.441   5.276   3.578 -1.2515  0.8934 -1.0362
18670TIP3   OH277500   3.029   2.338  15.116  0.3575  1.2353  0.1935
18670TIP3    H177501   3.006   2.266  15.174  0.2680  1.5033  0.4908
18670TIP3    H277502   3.110   2.374  15.154  1.3486  0.1997 -0.9257
18671TIP3   OH277503   0.209   4.130  15.123  0.6013  0.1515 -0.0542
18671TIP3    H177504   0.136   4.121  15.184  1.8195 -1.0764  1.2875
18671TIP3    H277505   0.229   4.041  15.095  2.0088  0.3829  0.1487
18672TIP3   OH277506   5.413   0.039  14.337  0.5675  0.3224 -0.3283
18672TIP3    H177507   5.421   0.018  14.430  1.0001  0.1222 -0.4088
18672TIP3    H277508   5.458  -0.033  14.293 -0.8818 -0.3327 -0.7602
18673TIP3   OH277509   3.130   0.746   1.647  0.2924  0.3217  0.1861
18673TIP3    H177510   3.044   0.767   1.611 -0.0590 -0.8593  0.3099
18673TIP3    H277511   3.118   0.660   1.688  1.3747  0.4332  0.7366
18674TIP3   OH277512   1.928   6.226  11.293  0.2190  0.6427 -0.3223
18674TIP3    H177513   1.958   6.136  11.303 -0.3518  0.4487 -0.2942
18674TIP3    H277514   1.952   6.270  11.374 -0.8057  0.1339  0.2581
18675TIP3   OH277515   3.567   1.581   4.810  0.0807  0.2175 -0.1970
18675TIP3    H177516   3.535   1.648   4.750 -0.6691 -0.8630 -0.9972
18675TIP3    H277517   3.663   1.587   4.803  0.0085  0.6905 -0.8247
18676TIP3   OH277518   5.724   4.505   1.692  0.2542 -0.1351 -0.4970
18676TIP3    H177519   5.745   4.562   1.618 -0.8799 -0.3001 -0.9554
18676TIP3    H277520   5.774   4.425   1.676  2.5552  1.0154  0.6045
18677TIP3   OH277521   5.482   1.951   4.015  0.0049  0.1354 -0.0281
18677TIP3    H177522   5.417   1.892   4.053  1.3384 -1.6001 -0.4143
18677TIP3    H277523   5.506   1.912   3.931  1.0375  1.1159 -0.2144
18678TIP3   OH277524   1.835   4.690  16.085  0.0473 -0.5213 -0.2248
18678TIP3    H177525   1.814   4.783  16.096  0.0318 -0.4076 -1.1295
18678TIP3    H277526   1.930   4.688  16.078  0.0616 -0.5970 -0.0077
18679TIP3   OH277527   5.504   1.666  15.337 -0.1424  0.0721 -0.0584
18679TIP3    H177528   5.577   1.609  15.316 -0.3946 -0.0596 -0.6074
18679TIP3    H277529   5.441   1.610  15.382 -0.1169  0.0628 -0.0369
18680TIP3   OH277530   5.873   3.319   2.128 -0.3582  0.6745  0.3174
18680TIP3    H177531   5.966   3.340   2.131 -0.6150  1.6870  1.7980
18680TIP3    H277532   5.867   3.242   2.071  1.4356  0.2824  0.6461
18681TIP3   OH277533   5.873   5.297  14.234 -0.4446 -0.5313  0.4006
18681TIP3    H177534   5.826   5.221  14.199 -1.0459  1.0627 -2.4146
18681TIP3    H277535   5.806   5.346  14.282 -0.0549 -1.7297  2.2259
18682TIP3   OH277536   1.627   4.963  13.050  0.2619 -0.1375  0.0124
18682TIP3    H177537   1.567   4.924  13.113  2.1537 -0.7786  1.4355
18682TIP3    H277538   1.603   4.923  12.966 -1.8330  0.2387  0.4043
18683TIP3   OH277539   5.037   3.051  15.838 -0.1300  0.3486  0.5235
18683TIP3    H177540   5.091   3.126  15.815 -0.6495  0.5570 -0.0214
18683TIP3    H277541   5.036   2.996  15.759  0.0654 -0.1187  0.8435
18684TIP3   OH277542   0.428   2.251  15.850  0.1760  0.5863  0.5070
18684TIP3    H177543   0.510   2.230  15.895 -0.1164  1.9187  1.6952
18684TIP3    H277544   0.401   2.169  15.809  1.5691 -0.1143  0.9680
18685TIP3   OH277545   2.224   6.789  11.169 -0.3403 -0.6657 -0.1211
18685TIP3    H177546   2.293   6.731  11.138 -0.2677 -1.0172  0.7125
18685TIP3    H277547   2.246   6.874  11.131  0.6221 -0.7467  0.2418
18686TIP3   OH277548   0.944   5.436  14.388  0.1540 -0.0457  0.0904
18686TIP3    H177549   0.970   5.418  14.298  1.0246  2.4280 -0.1883
18686TIP3    H277550   0.855   5.401  14.395  0.8256 -2.0472 -1.1157
18687TIP3   OH277551   6.442   1.576   6.833 -0.2509 -0.1808  0.5707
18687TIP3    H177552   6.475   1.556   6.921  2.4039  0.4428 -0.2526
18687TIP3    H277553   6.461   1.669   6.821  0.1291 -0.4451 -0.9514
18688TIP3   OH277554   3.360   2.880  13.611  0.7309  0.4408  0.0305
18688TIP3    H177555   3.383   2.797  13.569  0.5908  0.7276 -0.6210
18688TIP3    H277556   3.385   2.946  13.547  0.5309  0.8818  0.4101
18689TIP3   OH277557   3.025   2.900   3.572 -0.1186 -0.3027 -0.0083
18689TIP3    H177558   3.058   2.938   3.653 -0.3209 -0.0129 -0.0622
18689TIP3    H277559   3.023   2.972   3.510 -3.4409  0.3661  0.7530
18690TIP3   OH277560   0.879   3.838  11.340 -0.4529 -0.4886 -0.3381
18690TIP3    H177561   0.834   3.811  11.260  0.3980 -1.6965 -0.4093
18690TIP3    H277562   0.930   3.915  11.313  1.3440 -2.0493 -1.4285
18691TIP3   OH277563   0.967   4.914  16.942 -0.0921 -0.3611 -0.3061
18691TIP3    H177564   0.975   4.824  16.973  2.5157 -0.7043 -1.8358
18691TIP3    H277565   0.877   4.939  16.964 -0.7787 -3.2331  0.3639
18692TIP3   OH277566   4.304   2.101   5.559  0.0183 -0.0627  0.4417
18692TIP3    H177567   4.331   2.143   5.478  1.3495  0.2641  1.0434
18692TIP3    H277568   4.303   2.007   5.538 -0.3652  0.0762 -0.1549
18693TIP3   OH277569   2.681   3.769   5.596 -0.1006  0.2717  0.2374
18693TIP3    H177570   2.706   3.859   5.576  0.7409 -0.2188 -0.9361
18693TIP3    H277571   2.692   3.761   5.691  1.0571  1.0223  0.1636
18694TIP3   OH277572   5.872   4.291   1.626 -1.0111 -0.3955  0.4568
18694TIP3    H177573   5.864   4.197   1.644  0.4100 -0.4467  0.9016
18694TIP3    H277574   5.967   4.307   1.625 -1.2501  1.1917  1.2757
18695TIP3   OH277575   6.269   4.040  14.795  0.2928  0.2257 -0.2563
18695TIP3    H177576   6.327   4.080  14.860  0.8018 -1.8776  0.6597
18695TIP3    H277577   6.302   4.071  14.711  1.7564  0.3524  0.3424
18696TIP3   OH277578   4.381   2.237   5.331  0.4065  0.1761  0.2759
18696TIP3    H177579   4.444   2.208   5.264  0.9003 -1.1116  1.2769
18696TIP3    H277580   4.307   2.271   5.281 -0.0733 -2.5691 -0.9741
18697TIP3   OH277581   4.083   0.073   6.664 -0.1918  0.4189 -0.0370
18697TIP3    H177582   4.041   0.141   6.611 -1.2389  0.5524  0.9274
18697TIP3    H277583   4.068  -0.008   6.617 -0.9938  0.5548 -0.0196
18698TIP3   OH277584   1.241   6.006  16.734 -0.0922 -0.1116 -0.0247
18698TIP3    H177585   1.312   6.027  16.674  0.5758 -1.2235  0.3638
18698TIP3    H277586   1.161   6.021  16.683  0.4503 -0.1812 -0.9007
18699TIP3   OH277587   1.722   3.054   0.669 -0.3655 -0.6279  0.5115
18699TIP3    H177588   1.657   3.063   0.600 -0.1405 -0.6504  0.2966
18699TIP3    H277589   1.754   3.143   0.684 -0.1189 -0.6788  0.2989
18700TIP3   OH277590   5.309   4.624  11.275  0.3579 -0.0995 -0.0365
18700TIP3    H177591   5.335   4.635  11.183 -2.2704  0.6252 -0.7482
18700TIP3    H277592   5.365   4.684  11.323  1.3734 -0.0500 -1.2549
18701TIP3   OH277593   2.792   2.124   2.035  0.0598  0.2111 -0.7217
18701TIP3    H177594   2.832   2.041   2.011 -1.3816 -1.0183  0.9682
18701TIP3    H277595   2.771   2.115   2.128 -1.6396  1.8107 -0.9105
18702TIP3   OH277596   1.856   3.267   1.100 -0.2179  0.0813  0.1366
18702TIP3    H177597   1.912   3.210   1.047  0.0793  1.7069 -1.3304
18702TIP3    H277598   1.769   3.227   1.094  0.0434 -0.3850 -0.6613
18703TIP3   OH277599   5.870   3.781   0.742 -0.0740  0.5096  0.6835
18703TIP3    H177600   5.869   3.688   0.768 -0.3897  1.0085  2.5651
18703TIP3    H277601   5.849   3.780   0.649 -0.9128 -1.2639  0.8622
18704TIP3   OH277602   6.464   5.016   5.812 -0.1757  0.4941 -0.0926
18704TIP3    H177603   6.404   5.090   5.825 -1.9643 -0.7522 -1.0608
18704TIP3    H277604   6.493   5.024   5.721  1.7523  1.5192  0.5886
18705TIP3   OH277605   3.084   3.095  12.048  0.0187 -0.1090  0.7462
18705TIP3    H177606   3.151   3.065  12.109 -0.4707  0.8275  1.7510
18705TIP3    H277607   3.100   3.189  12.039 -1.0785  0.0988  0.9041
18706TIP3   OH277608   5.750   1.521   5.495 -0.3162  0.4474 -0.1939
18706TIP3    H177609   5.682   1.588   5.490 -2.1850 -1.1348  2.2208
18706TIP3    H277610   5.799   1.542   5.574  0.0725 -0.1399 -0.2719
18707TIP3   OH277611   3.751   0.556  14.442  0.4833  0.0764  0.6752
18707TIP3    H177612   3.805   0.488  14.482  2.0571  0.2935 -1.0428
18707TIP3    H277613   3.772   0.551  14.349 -2.0975  0.4933  0.0354
18708TIP3   OH277614   6.501   2.601  15.402 -0.3077  0.7755  0.0987
18708TIP3    H177615   6.499   2.692  15.372 -1.8574  0.3264 -1.2179
18708TIP3    H277616   6.572   2.561  15.353 -0.5076  0.9363 -0.3223
18709TIP3   OH277617   5.088   5.074  14.703 -0.0142 -0.0603  0.1816
18709TIP3    H177618   5.138   5.084  14.622 -1.1205  1.6725 -0.3232
18709TIP3    H277619   5.038   5.156  14.710 -0.7814 -0.6681  2.0253
18710TIP3   OH277620   3.937   2.730   6.263 -0.0211 -0.3025  0.3746
18710TIP3    H177621   3.989   2.771   6.332 -0.2263  0.1551  0.2564
18710TIP3    H277622   3.890   2.659   6.308 -0.0998 -0.0495  0.6952
18711TIP3   OH277623   1.969   1.959   3.532 -0.0604  0.5270  0.3762
18711TIP3    H177624   1.900   1.909   3.489  0.1618 -0.3050  0.9755
18711TIP3    H277625   2.037   1.895   3.552  0.3127  1.0999  0.9817
18712TIP3   OH277626   1.417   6.807  11.287 -0.2251 -0.1607  0.8928
18712TIP3    H177627   1.464   6.886  11.259 -1.5746  1.1833  2.3450
18712TIP3    H277628   1.431   6.803  11.381 -0.8304 -1.2516  0.9423
18713TIP3   OH277629   5.814   2.674  13.692 -0.8031  0.3197 -0.0517
18713TIP3    H177630   5.856   2.721  13.764 -1.7258  1.8309 -0.4667
18713TIP3    H277631   5.721   2.696  13.701 -1.1149 -0.6714 -0.8272
18714TIP3   OH277632   3.096   0.933  12.471 -0.1741 -0.5731 -0.2848
18714TIP3    H177633   3.049   0.882  12.537  0.4247 -0.2165  0.4235
18714TIP3    H277634   3.165   0.874  12.441  1.0682  0.1010  1.1660
18715TIP3   OH277635   6.181   5.821  13.586  0.1782  0.1478 -0.1683
18715TIP3    H177636   6.267   5.806  13.625  0.0336 -0.1866  0.0272
18715TIP3    H277637   6.180   5.768  13.507  0.2673  0.3987 -0.3376
18716TIP3   OH277638   4.431   3.916   5.890 -0.3055 -0.1283  0.4236
18716TIP3    H177639   4.506   3.938   5.836  1.0459  0.3749  2.4283
18716TIP3    H277640   4.378   3.995   5.892  0.1821  0.1936  0.6791
18717TIP3   OH277641   2.016   1.327   0.183  0.0037 -0.4871  0.2628
18717TIP3    H177642   1.956   1.399   0.199  0.8985  0.0481  1.2926
18717TIP3    H277643   2.035   1.291   0.270 -0.5650 -2.0814 -0.2488
18718TIP3   OH277644   6.226   4.206   3.140  0.1158  0.0346  0.2401
18718TIP3    H177645   6.189   4.120   3.122 -1.7333  0.7801  0.4295
18718TIP3    H277646   6.319   4.189   3.157 -0.5309 -2.0852  1.7554
18719TIP3   OH277647   0.989   0.777   5.345 -0.0360  0.2698 -0.1817
18719TIP3    H177648   1.072   0.807   5.384  0.7143  0.6533 -2.0085
18719TIP3    H277649   1.014   0.702   5.292 -0.7633  0.7196 -1.1698
18720TIP3   OH277650   6.249   5.533  13.927  0.2131 -0.2399  0.1369
18720TIP3    H177651   6.293   5.594  13.985  0.3851  0.3049 -0.5635
18720TIP3    H277652   6.162   5.520  13.966  0.0793  0.6553  0.1312
18721TIP3   OH277653   4.146   5.786  14.095 -0.0293  0.0940  0.0286
18721TIP3    H177654   4.100   5.806  14.176 -0.2580  2.1236 -0.5672
18721TIP3    H277655   4.194   5.706  14.113 -1.9549 -0.7898  1.4086
18722TIP3   OH277656   6.122   3.168  15.900  0.1179  0.3540  0.1935
18722TIP3    H177657   6.144   3.147  15.810  1.2698  1.2233  0.2546
18722TIP3    H277658   6.170   3.250  15.918  0.2296 -0.0206  1.7062
18723TIP3   OH277659   5.750   4.606   5.745  0.3373 -0.3103  0.2144
18723TIP3    H177660   5.758   4.558   5.827 -0.1271  0.2807  0.6013
18723TIP3    H277661   5.704   4.686   5.767  0.8984  0.2128 -0.4826
18724TIP3   OH277662   2.789   5.555   0.698  0.0089 -0.1152 -0.0383
18724TIP3    H177663   2.789   5.459   0.698  1.6909 -0.1556  2.2650
18724TIP3    H277664   2.880   5.579   0.718  0.0775  1.9968 -2.5910
18725TIP3   OH277665   4.834   5.746  12.380 -0.1911 -0.0327 -0.1079
18725TIP3    H177666   4.742   5.740  12.408 -0.2806  0.3330 -0.3201
18725TIP3    H277667   4.859   5.655  12.363 -1.2592  0.0599 -2.4343
18726TIP3   OH277668   1.478   3.668   0.911 -0.2414  0.1293  0.3753
18726TIP3    H177669   1.468   3.663   0.816 -0.4184  0.2413  0.3864
18726TIP3    H277670   1.548   3.733   0.924  0.8527 -1.0045  0.2834
18727TIP3   OH277671   6.711   6.287  12.227  0.0033 -0.1729  0.3908
18727TIP3    H177672   6.743   6.201  12.202 -1.4593 -0.7943  0.6079
18727TIP3    H277673   6.667   6.273  12.311  0.3764  0.9184  0.7744
18728TIP3   OH277674   4.913   4.754  13.341 -0.3859  0.6327 -0.4694
18728TIP3    H177675   4.911   4.724  13.431 -1.0117 -0.1379 -0.7302
18728TIP3    H277676   4.823   4.746  13.311  0.4220 -2.7353 -2.3087
18729TIP3   OH277677   3.430   3.207   2.432  0.2169  0.3772 -0.1385
18729TIP3    H177678   3.391   3.121   2.447  0.5838 -0.0307 -1.4719
18729TIP3    H277679   3.374   3.249   2.368  1.5335  0.0694 -1.5237
18730TIP3   OH277680   1.582   1.375  11.655 -0.5362 -0.1795  0.4201
18730TIP3    H177681   1.643   1.320  11.605 -1.0511  1.0599 -1.6684
18730TIP3    H277682   1.568   1.452  11.598 -2.3220  0.5758  1.8418
18731TIP3   OH277683   1.303   3.963   6.277  0.5066 -0.0518  0.4512
18731TIP3    H177684   1.228   3.989   6.224 -0.5128  0.0991  1.9167
18731TIP3    H277685   1.355   4.043   6.286 -0.6935  0.6001  1.8506
18732TIP3   OH277686   6.499   1.925  16.971  0.3500 -0.0193 -0.2519
18732TIP3    H177687   6.527   2.010  16.935 -1.0305 -0.2817 -2.0002
18732TIP3    H277688   6.410   1.941  17.002  0.5985 -0.4747  0.6972
18733TIP3   OH277689   4.787   0.499   4.507  0.3618  0.2265 -0.2948
18733TIP3    H177690   4.809   0.412   4.540 -0.8524  0.6378  1.6857
18733TIP3    H277691   4.699   0.490   4.472 -0.1521  0.8523  0.7907
18734TIP3   OH277692   4.361   5.837  16.468  0.0052 -0.9354 -0.0063
18734TIP3    H177693   4.333   5.926  16.487  2.4989  0.0736 -0.8685
18734TIP3    H277694   4.311   5.782  16.529  0.3526  1.2653  2.3098
18735TIP3   OH277695   1.443   2.074   4.878 -0.0049 -0.4568  0.0366
18735TIP3    H177696   1.508   2.098   4.812  0.1510  2.6505  1.2049
18735TIP3    H277697   1.358   2.089   4.835  0.0979  0.8206  0.2466
18736TIP3   OH277698   2.181   4.328   4.668  0.1295  0.3860  0.4016
18736TIP3    H177699   2.138   4.244   4.655 -0.2818  0.7748 -0.8811
18736TIP3    H277700   2.114   4.384   4.708 -0.1049  0.5561 -0.2167
18737TIP3   OH277701   3.590   2.194   5.551 -0.2705 -0.2659 -0.4202
18737TIP3    H177702   3.667   2.137   5.554  1.2013  1.6437 -0.8265
18737TIP3    H277703   3.538   2.161   5.478  0.0159 -1.7255  0.0061
18738TIP3   OH277704   6.174   1.778  13.384 -0.0670  0.3311 -0.3145
18738TIP3    H177705   6.243   1.777  13.451  0.7325  3.4653 -1.0218
18738TIP3    H277706   6.099   1.735  13.426  0.9257  0.8159  2.0080
18739TIP3   OH277707   4.702   4.413  12.240  0.1749 -0.0300  0.5286
18739TIP3    H177708   4.790   4.398  12.275  1.1070  2.5193 -0.5657
18739TIP3    H277709   4.655   4.457  12.311  0.0485 -0.6329  0.8189
18740TIP3   OH277710   5.566   5.366  15.518  0.5584 -0.3702 -0.5072
18740TIP3    H177711   5.579   5.419  15.440 -1.4373  0.4052 -0.3436
18740TIP3    H277712   5.604   5.281  15.496 -0.7118 -0.4315 -2.6622
18741TIP3   OH277713   2.546   4.897   4.396 -0.1501  0.0035  0.5200
18741TIP3    H177714   2.582   4.809   4.411 -0.6679 -0.4262 -0.6483
18741TIP3    H277715   2.529   4.899   4.302 -0.2619  1.3201  0.5693
18742TIP3   OH277716   1.660   5.726   4.774  0.1702 -0.3803  0.1851
18742TIP3    H177717   1.635   5.699   4.862  0.8990  1.6565  1.0542
18742TIP3    H277718   1.605   5.803   4.756 -0.4512 -1.1657 -1.4147
18743TIP3   OH277719   0.411   0.141  11.601  0.1356 -0.4147  0.4737
18743TIP3    H177720   0.424   0.182  11.516 -1.2394  0.9917  0.9066
18743TIP3    H277721   0.420   0.213  11.664  0.0159 -1.2207  1.4198
18744TIP3   OH277722   1.749   2.238  10.688  0.3945  0.4846 -0.4513
18744TIP3    H177723   1.804   2.316  10.683  1.4356 -0.2074  0.2182
18744TIP3    H277724   1.802   2.168  10.653  0.1938 -0.3165  0.7921
18745TIP3   OH277725   0.641   2.658   5.515  0.0034  0.4827 -0.0506
18745TIP3    H177726   0.665   2.669   5.423  0.2374  0.4444  0.0071
18745TIP3    H277727   0.661   2.567   5.535 -0.2211  0.4409 -0.0121
18746TIP3   OH277728   2.835   2.791  12.666 -0.3549  0.0673  0.1273
18746TIP3    H177729   2.752   2.816  12.708 -0.3752  1.3317 -0.6388
18746TIP3    H277730   2.820   2.703  12.633 -1.3295  0.2175  0.1553
18747TIP3   OH277731   3.762   1.314  15.194 -0.5067 -0.3626  0.5620
18747TIP3    H177732   3.780   1.376  15.265 -1.4235  1.2422 -0.5507
18747TIP3    H277733   3.827   1.335  15.127  0.0411 -1.5308  0.7218
18748TIP3   OH277734   6.596   2.610  10.936 -0.1916  0.0723  0.0086
18748TIP3    H177735   6.583   2.644  10.847  1.6202 -0.4948 -0.4964
18748TIP3    H277736   6.608   2.688  10.990 -0.7109  0.3975 -0.3318
18749TIP3   OH277737   3.423   1.905   2.871  0.1304 -0.0795 -0.4328
18749TIP3    H177738   3.397   1.926   2.961  0.0253  0.7946 -0.6689
18749TIP3    H277739   3.462   1.985   2.838  1.4907 -0.8420 -0.6871
18750TIP3   OH277740   1.367   0.879   4.517 -0.2180  0.5615 -0.1026
18750TIP3    H177741   1.349   0.936   4.442  1.4360  0.6636 -0.4279
18750TIP3    H277742   1.420   0.808   4.481 -0.9311 -0.3411  0.6199
18751TIP3   OH277743   5.037   5.178  12.974  0.4005 -0.2949  0.3252
18751TIP3    H177744   5.028   5.111  12.907  0.1854  0.4526 -0.4010
18751TIP3    H277745   5.011   5.260  12.931  1.6230  0.4217  0.9020
18752TIP3   OH277746   6.206   1.258   0.330  0.2287  0.2849  0.5288
18752TIP3    H177747   6.142   1.275   0.262 -1.2129 -0.1719  1.7461
18752TIP3    H277748   6.291   1.269   0.287 -0.6553 -0.2451 -1.3685
18753TIP3   OH277749   5.023   3.994  15.445 -0.6025  0.4232  0.4661
18753TIP3    H177750   5.030   3.901  15.463  0.4351  0.8738  2.5026
18753TIP3    H277751   5.105   4.018  15.403 -0.3032  0.6858  1.1946
18754TIP3   OH277752   6.205   6.538  13.062 -0.0552 -0.3474  0.2082
18754TIP3    H177753   6.268   6.589  13.113  0.9760  0.3262 -1.7167
18754TIP3    H277754   6.259   6.485  13.003 -1.1868 -2.1857  0.7839
18755TIP3   OH277755   1.327   3.413  16.702 -0.4686  0.4123 -0.7505
18755TIP3    H177756   1.294   3.502  16.684  0.0718  0.4421 -1.6096
18755TIP3    H277757   1.401   3.403  16.643  0.8532  0.1947  0.9102
18756TIP3   OH277758   3.807   2.846   5.299 -0.1438  0.0970 -0.0956
18756TIP3    H177759   3.760   2.925   5.326 -0.7646 -0.5436  0.7534
18756TIP3    H277760   3.879   2.838   5.362 -0.2535 -0.1585  0.0001
18757TIP3   OH277761   2.076   1.421   6.053  0.4531  0.4569  0.5291
18757TIP3    H177762   2.054   1.501   6.101 -1.4726 -0.8257  1.8681
18757TIP3    H277763   2.170   1.410   6.067  0.3926  1.4931  1.8691
18758TIP3   OH277764   6.675   2.135  12.670  0.4675  0.0890  0.2370
18758TIP3    H177765   6.688   2.206  12.607 -0.5562 -1.8462 -2.2113
18758TIP3    H277766   6.759   2.090  12.672  0.8731  0.8477  1.2144
18759TIP3   OH277767   6.334   4.889   1.157  0.3214  0.1548 -0.6939
18759TIP3    H177768   6.421   4.903   1.193  0.0458 -0.5423  0.2857
18759TIP3    H277769   6.342   4.809   1.104  0.2550  0.0117 -0.4914
18760TIP3   OH277770   2.759   3.166  12.356  0.0818  0.6866 -1.4499
18760TIP3    H177771   2.816   3.243  12.354  0.4438  0.4334 -0.9083
18760TIP3    H277772   2.715   3.170  12.441 -0.5992  0.7942 -1.7982
18761TIP3   OH277773   6.506   4.861   1.443 -0.4898  0.3221  0.0608
18761TIP3    H177774   6.589   4.848   1.489 -0.2284  0.6883 -0.3012
18761TIP3    H277775   6.526   4.926   1.376 -0.9333 -0.0010 -0.3921
18762TIP3   OH277776   1.666   3.411  16.986  0.0270  0.7439 -0.1787
18762TIP3    H177777   1.731   3.391  17.053 -0.8064  0.8073  0.6586
18762TIP3    H277778   1.600   3.342  16.996 -1.7397  2.5940  1.2302
18763TIP3   OH277779   4.615   5.263  16.055  0.5367 -0.0421 -0.1849
18763TIP3    H177780   4.671   5.186  16.068  0.7143  0.0732 -0.2600
18763TIP3    H277781   4.636   5.321  16.128  1.4241  0.5387 -0.8943
18764TIP3   OH277782   3.975   1.665   3.178 -0.7389  0.6689  0.2678
18764TIP3    H177783   3.935   1.592   3.226 -1.0904 -0.0162 -1.0393
18764TIP3    H277784   4.043   1.697   3.237 -0.6137 -0.6823  0.8843
18765TIP3   OH277785   3.085   0.589   2.264  0.0325  0.1861 -0.1024
18765TIP3    H177786   3.108   0.497   2.253  0.9359  0.6127 -2.0298
18765TIP3    H277787   2.994   0.596   2.236 -0.4201 -0.3187  1.2013
18766TIP3   OH277788   4.817   3.147   0.021  0.6016 -0.0840  0.3270
18766TIP3    H177789   4.736   3.190  -0.006  1.0187 -0.0277 -0.8535
18766TIP3    H277790   4.885   3.213   0.005  0.7589  0.3138  2.4441
18767TIP3   OH277791   4.256   2.641  15.363  0.4878 -0.1681  0.5041
18767TIP3    H177792   4.230   2.601  15.279  1.4454  1.5162 -0.6313
18767TIP3    H277793   4.351   2.652  15.355  1.4056 -4.4728  3.8242
18768TIP3   OH277794   2.998   0.569   4.522  0.0183  0.1903 -0.0035
18768TIP3    H177795   2.933   0.504   4.495  0.4855  0.6784 -2.4449
18768TIP3    H277796   3.082   0.522   4.516  0.2502  0.6927 -0.6938
18769TIP3   OH277797   5.459   1.403  14.457  0.0886 -0.4418 -1.2455
18769TIP3    H177798   5.552   1.381  14.463  0.2211  0.4018 -0.0187
18769TIP3    H277799   5.457   1.486  14.410  0.1444  0.7449  0.7886
18770TIP3   OH277800   4.321   0.540  13.932 -0.5371  0.3996  0.7835
18770TIP3    H177801   4.236   0.496  13.936 -0.6391  0.6378  1.3465
18770TIP3    H277802   4.356   0.532  14.020  0.1810  0.0050  0.4612
18771TIP3   OH277803   6.437   0.305  14.693 -0.6598 -0.5089  0.4092
18771TIP3    H177804   6.386   0.240  14.646  0.3020 -1.0144  0.0376
18771TIP3    H277805   6.527   0.272  14.690  0.1258  1.6152 -1.2012
18772TIP3   OH277806   5.538   5.311   5.387  0.1400 -0.0632 -0.4173
18772TIP3    H177807   5.591   5.321   5.467 -2.0407  3.1955  0.6787
18772TIP3    H277808   5.453   5.282   5.419 -0.7864  1.3940 -1.5380
18773TIP3   OH277809   6.774   6.779   1.435  0.4809 -0.0859  0.2927
18773TIP3    H177810   6.855   6.771   1.384  0.2787  0.0596 -0.0585
18773TIP3    H277811   6.792   6.732   1.516  1.2257  0.7090  0.5991
18774TIP3   OH277812   5.562   6.797   4.581 -0.1082 -0.3846 -0.1886
18774TIP3    H177813   5.556   6.701   4.572  1.5142 -0.3883 -1.5517
18774TIP3    H277814   5.497   6.830   4.520  0.2389 -0.6205 -0.6946
18775TIP3   OH277815   1.061   4.915   5.725 -0.2926  0.0356 -0.4027
18775TIP3    H177816   1.156   4.919   5.739 -0.4115 -0.8618  0.7506
18775TIP3    H277817   1.051   4.901   5.631  0.7505 -0.9204 -0.3811
18776TIP3   OH277818   6.310   4.420  15.666 -0.3561  0.0102  0.6762
18776TIP3    H177819   6.375   4.438  15.598 -0.2956 -0.2654  0.6609
18776TIP3    H277820   6.341   4.470  15.742 -0.5988  0.5782  0.4062
18777TIP3   OH277821   6.331   5.489   4.953 -0.2449 -0.4913  0.0293
18777TIP3    H177822   6.415   5.481   4.998  0.9291  0.3419 -1.9207
18777TIP3    H277823   6.300   5.399   4.943 -0.2934 -0.7187  1.9880
18778TIP3   OH277824   0.877   6.348   3.197 -0.0275  0.3167 -0.3078
18778TIP3    H177825   0.956   6.300   3.173  0.4269  1.5104 -1.2492
18778TIP3    H277826   0.860   6.406   3.123 -1.4979  0.4491  0.1052
18779TIP3   OH277827   5.133   6.801   1.693 -0.4691  0.0068 -0.3579
18779TIP3    H177828   5.190   6.877   1.686 -0.1837 -0.0373  1.4057
18779TIP3    H277829   5.189   6.732   1.728 -1.0850 -0.6324 -0.6113
18780TIP3   OH277830   3.999   0.331   2.669  0.2695 -0.2983 -0.3044
18780TIP3    H177831   3.950   0.335   2.752  0.5895  0.1632 -0.1355
18780TIP3    H277832   3.944   0.278   2.611  0.7034 -1.8289  0.6541
18781TIP3   OH277833   6.262   1.287   4.323 -0.3843 -0.1393 -0.3610
18781TIP3    H177834   6.288   1.231   4.249  0.0003 -0.1816 -0.1906
18781TIP3    H277835   6.314   1.256   4.397  0.9436  1.4343 -0.6179
18782TIP3   OH277836   6.011   5.297   4.332  0.0497  0.1507  0.4524
18782TIP3    H177837   5.930   5.343   4.354 -0.5125  0.9364 -2.9914
18782TIP3    H277838   6.075   5.328   4.396 -1.9998  0.6310  2.2990
18783TIP3   OH277839   2.108   2.133   2.992 -0.2420  0.4665 -0.4535
18783TIP3    H177840   2.074   2.096   2.911 -0.2724 -0.8253  0.1354
18783TIP3    H277841   2.035   2.131   3.053 -0.0672  0.9148 -0.2224
18784TIP3   OH277842   6.273   0.326   4.591  0.0659  0.4317 -0.4632
18784TIP3    H177843   6.221   0.402   4.567  0.8226  1.1300  0.0942
18784TIP3    H277844   6.359   0.342   4.555  0.4402  0.1959  0.3098
18785TIP3   OH277845   3.120   6.577  17.132  0.0799 -0.5638 -0.1749
18785TIP3    H177846   3.077   6.495  17.156  2.0500 -1.4541  0.4274
18785TIP3    H277847   3.166   6.604  17.212  0.6941  0.3423 -0.8189
18786TIP3   OH277848   3.982   1.428  15.854 -0.1586  0.0897 -0.1150
18786TIP3    H177849   4.023   1.430  15.768 -0.6255 -0.5204 -0.3536
18786TIP3    H277850   3.973   1.335  15.874 -0.8479  0.2243  0.2099
18787TIP3   OH277851   1.453   5.720   3.973 -0.1384 -0.1243  0.4266
18787TIP3    H177852   1.540   5.693   4.001  0.2620  1.3849  0.6690
18787TIP3    H277853   1.399   5.712   4.052 -0.4702 -2.0764  0.0151
18788TIP3   OH277854   0.443   3.658  15.417 -0.4493  0.1371  0.1256
18788TIP3    H177855   0.535   3.676  15.437 -0.5731  0.6308  0.2820
18788TIP3    H277856   0.416   3.594  15.482 -0.2619  0.1286  0.1937
18789TIP3   OH277857   2.327   3.761  13.548  0.4301 -0.1445  1.3160
18789TIP3    H177858   2.390   3.823  13.584 -0.4321  1.3982  0.2452
18789TIP3    H277859   2.259   3.816  13.508 -0.7371 -1.7739  0.9822
18790TIP3   OH277860   1.494   0.404  11.729  0.0144  0.5019  0.5070
18790TIP3    H177861   1.418   0.382  11.783  0.5970 -0.7996  0.7960
18790TIP3    H277862   1.460   0.399  11.639 -0.3810  0.4866  0.6528
18791TIP3   OH277863   1.980   4.219   0.572  0.2845  0.1733 -0.4548
18791TIP3    H177864   2.008   4.140   0.619  1.9858  0.8528 -0.2914
18791TIP3    H277865   1.926   4.267   0.635 -1.0280 -0.9899 -0.6562
18792TIP3   OH277866   2.865   0.236  13.838  0.3268 -0.2038 -0.5127
18792TIP3    H177867   2.952   0.198  13.827  0.8957  0.4937  1.3160
18792TIP3    H277868   2.860   0.258  13.931 -2.2112 -1.1944 -0.3667
18793TIP3   OH277869   3.784   0.300  12.573  0.1421  0.6065  0.2359
18793TIP3    H177870   3.788   0.382  12.524 -0.4272 -1.3863 -3.3571
18793TIP3    H277871   3.869   0.259  12.559 -1.1154 -1.4231 -1.8242
18794TIP3   OH277872   2.733   0.921   4.480  0.3966 -0.0816 -0.6014
18794TIP3    H177873   2.797   0.947   4.547 -0.0717  2.0917 -0.9917
18794TIP3    H277874   2.786   0.885   4.409  1.3842  3.5794 -1.7909
18795TIP3   OH277875   0.105   5.023   3.593 -0.5450  0.3642 -0.3647
18795TIP3    H177876   0.103   5.114   3.566 -3.0089  0.4933  0.1425
18795TIP3    H277877   0.066   4.975   3.520 -0.0894 -0.1818 -0.2542
18796TIP3   OH277878   2.035   0.269   2.818  0.7418  0.0196  0.3894
18796TIP3    H177879   1.984   0.283   2.738  0.2953 -0.0748  0.6592
18796TIP3    H277880   2.028   0.175   2.834  0.3632  0.1267  0.8581
18797TIP3   OH277881   4.115   5.924  12.396  0.4323  0.3418  0.5506
18797TIP3    H177882   4.173   5.987  12.353 -0.2865  1.0426  0.6046
18797TIP3    H277883   4.049   5.904  12.330  0.6530 -0.3644  0.5326
18798TIP3   OH277884   5.863   4.843   4.665 -0.3506 -0.2201  0.3154
18798TIP3    H177885   5.844   4.852   4.572  0.3758 -0.7032  0.1104
18798TIP3    H277886   5.803   4.904   4.709  0.0047  0.7532 -0.5409
18799TIP3   OH277887   5.510   6.483   5.775  0.5225  0.5656 -1.0315
18799TIP3    H177888   5.563   6.523   5.706  0.5784  0.6002 -0.9678
18799TIP3    H277889   5.457   6.555   5.808  1.5876  0.8926  0.0023
18800TIP3   OH277890   0.107   5.854  14.512  0.0700 -0.4490 -0.2710
18800TIP3    H177891   0.146   5.773  14.545 -3.9986 -2.2007  0.5000
18800TIP3    H277892   0.088   5.836  14.420 -1.5162 -0.6711  0.0884
18801TIP3   OH277893   6.650   3.124  15.947  0.0394  0.0538  0.1554
18801TIP3    H177894   6.717   3.122  15.879  0.0688 -0.6302  0.1991
18801TIP3    H277895   6.675   3.054  16.007 -1.7982 -1.5403 -0.8726
18802TIP3   OH277896   6.622   3.006  11.773  0.1862  0.4600 -0.2445
18802TIP3    H177897   6.572   2.947  11.830 -0.9848 -0.0205 -1.7516
18802TIP3    H277898   6.700   2.955  11.749 -0.2049 -0.0058 -0.5286
18803TIP3   OH277899   5.958   4.302  14.266  0.3692  0.7475 -0.3989
18803TIP3    H177900   5.882   4.262  14.308 -1.2341  2.9498 -1.1082
18803TIP3    H277901   6.032   4.275  14.321 -1.3632  1.4964  2.4458
18804TIP3   OH277902   3.729   1.485   4.521 -0.3596 -0.1639 -0.7268
18804TIP3    H177903   3.806   1.436   4.552  0.3742  0.4921 -1.4924
18804TIP3    H277904   3.741   1.573   4.556 -0.4033  0.1268 -1.4448
18805TIP3   OH277905   0.829   6.147   2.671  0.1159 -0.5678  0.4593
18805TIP3    H177906   0.902   6.197   2.635 -1.3667  0.3591 -1.3095
18805TIP3    H277907   0.753   6.205   2.663 -1.3364 -2.5021 -0.2012
18806TIP3   OH277908   6.329   2.499   5.142 -0.1518  0.1820 -0.5865
18806TIP3    H177909   6.424   2.492   5.135  0.0325  2.0909 -0.1815
18806TIP3    H277910   6.313   2.589   5.168 -1.9283 -0.9081  2.3914
18807TIP3   OH277911   3.106   5.526  14.329  0.0309  0.0371 -0.7299
18807TIP3    H177912   3.167   5.598  14.339 -2.6067  2.5164 -1.8287
18807TIP3    H277913   3.068   5.514  14.416 -1.0565  1.4167 -1.0010
18808TIP3   OH277914   1.237   0.938   0.267 -0.4522 -0.4116 -0.7085
18808TIP3    H177915   1.210   0.847   0.252 -2.3408  0.1159 -0.6702
18808TIP3    H277916   1.165   0.990   0.230 -0.0642  1.0484  0.5631
18809TIP3   OH277917   4.528   4.508   2.162  0.0765 -0.4636  0.3099
18809TIP3    H177918   4.600   4.451   2.134  0.8090  0.8406 -0.4769
18809TIP3    H277919   4.524   4.496   2.257  3.1478  1.5239  0.7476
18810TIP3   OH277920   3.072   4.596  13.223  0.6953  0.1710 -0.7972
18810TIP3    H177921   3.019   4.653  13.278  1.2472  0.3839 -0.4810
18810TIP3    H277922   3.030   4.510  13.231 -0.4927  0.6430 -1.7538
18811TIP3   OH277923   5.870   4.997  14.100 -0.5677 -0.0780  0.2748
18811TIP3    H177924   5.871   4.955  14.014  0.2030  3.9888 -1.8566
18811TIP3    H277925   5.778   5.014  14.118 -0.5387  2.5322 -1.6751
18812TIP3   OH277926   1.920   2.701  14.762  0.2139  0.3936  0.7134
18812TIP3    H177927   1.922   2.671  14.671  1.7219  2.7879 -0.0750
18812TIP3    H277928   1.828   2.719  14.779 -0.4070 -2.2350  0.4466
18813TIP3   OH277929   0.697   0.804   1.650  0.2789  0.1554  0.0060
18813TIP3    H177930   0.730   0.893   1.645  3.1693 -0.9294 -1.9514
18813TIP3    H277931   0.642   0.794   1.572  1.0993 -0.1935 -0.5308
18814TIP3   OH277932   2.329   1.067  12.000  0.8480  0.2953  0.0947
18814TIP3    H177933   2.391   1.105  11.938  1.3915 -0.4496  0.1704
18814TIP3    H277934   2.300   0.986  11.958  0.4183  0.3093  0.3531
18815TIP3   OH277935   4.836   5.472  17.268 -0.1388 -0.0756  0.1997
18815TIP3    H177936   4.862   5.476  17.176 -1.5075 -0.0021 -0.2024
18815TIP3    H277937   4.918   5.472  17.317  0.6027 -0.3052 -1.0313
18816TIP3   OH277938   3.425   0.611   3.427  0.1122 -0.3347  0.2927
18816TIP3    H177939   3.425   0.595   3.333  1.1343  0.0906  0.2106
18816TIP3    H277940   3.513   0.585   3.455 -0.8182 -2.2948  1.4485
18817TIP3   OH277941   0.010   2.176  13.729  0.1661 -0.1780  0.5986
18817TIP3    H177942   0.027   2.115  13.801  0.1440 -0.0823  0.6863
18817TIP3    H277943   0.082   2.161  13.668 -1.4552 -2.4467 -0.8568
18818TIP3   OH277944   5.657   4.837   5.817 -0.1030 -0.5170 -0.1282
18818TIP3    H177945   5.655   4.894   5.740 -0.9007  1.5150  1.3482
18818TIP3    H277946   5.708   4.886   5.881  3.2011 -3.4837 -0.2885
18819TIP3   OH277947   0.735   1.869  17.144  1.0214  0.8129 -0.5200
18819TIP3    H177948   0.679   1.920  17.203  1.7951 -0.6938  1.5378
18819TIP3    H277949   0.763   1.933  17.078 -0.3781  2.3741  0.3421
18820TIP3   OH277950   5.897   2.129   0.611  0.3842  0.2548  0.4194
18820TIP3    H177951   5.817   2.163   0.653  1.0201 -0.8211  2.5721
18820TIP3    H277952   5.866   2.093   0.527 -1.5189 -0.7022  1.4890
18821TIP3   OH277953   5.474   5.834  12.576  0.3612 -0.2725  0.1491
18821TIP3    H177954   5.434   5.770  12.635  0.8845  0.8689  1.7898
18821TIP3    H277955   5.553   5.791  12.544 -0.9516 -1.6647 -1.3186
18822TIP3   OH277956   6.565   5.909  14.181 -0.6931  0.0123 -0.0259
18822TIP3    H177957   6.480   5.938  14.147 -1.1047 -1.8080 -0.5964
18822TIP3    H277958   6.619   5.895  14.102 -0.5966 -1.0287  0.2129
18823TIP3   OH277959   0.209   0.758   2.803 -0.1597  0.4514  0.4573
18823TIP3    H177960   0.122   0.781   2.769  1.0572  0.9044 -2.4531
18823TIP3    H277961   0.225   0.823   2.872 -1.7053  0.9529  0.3657
18824TIP3   OH277962   1.402   6.296  15.011 -0.3974 -0.3648  0.3381
18824TIP3    H177963   1.436   6.206  15.016  1.0017  0.0542 -1.2199
18824TIP3    H277964   1.434   6.338  15.091  0.9000 -0.6083 -0.0419
18825TIP3   OH277965   3.531   0.534  14.675  0.1566  0.6255  0.1117
18825TIP3    H177966   3.566   0.614  14.637  2.1784 -0.1255  0.3107
18825TIP3    H277967   3.447   0.520  14.631  0.3482  2.2062 -0.7637
18826TIP3   OH277968   5.602   3.212   4.173  0.0292  0.0527  0.7763
18826TIP3    H177969   5.540   3.171   4.112  1.8462 -0.0540 -1.0465
18826TIP3    H277970   5.568   3.191   4.260 -0.9761 -2.3612 -0.1686
18827TIP3   OH277971   1.999   6.729  13.196  0.0119  0.4981  0.0800
18827TIP3    H177972   1.948   6.796  13.241  0.5165  0.0628  1.3454
18827TIP3    H277973   2.084   6.770  13.180 -0.6087  1.1217 -1.7587
18828TIP3   OH277974   6.634   3.159   4.832 -0.1907  0.5308 -0.4197
18828TIP3    H177975   6.569   3.094   4.806 -0.9135  0.1851  2.0811
18828TIP3    H277976   6.587   3.242   4.832 -1.0201  0.1378  2.4284
18829TIP3   OH277977   1.568   2.186  15.717 -0.5488  0.0228  0.0097
18829TIP3    H177978   1.527   2.272  15.705  1.9304  1.1658 -0.4439
18829TIP3    H277979   1.541   2.136  15.639 -0.4548  1.0189 -0.6736
18830TIP3   OH277980   3.706   3.533  11.535 -0.2285 -0.5872 -0.0635
18830TIP3    H177981   3.782   3.489  11.574 -0.1651 -1.4597 -1.1293
18830TIP3    H277982   3.695   3.489  11.450 -0.6947  0.9007 -0.7791
18831TIP3   OH277983   1.818   4.202  13.306 -0.4408 -0.3112 -0.4854
18831TIP3    H177984   1.760   4.230  13.377 -1.5084  0.7858 -1.7604
18831TIP3    H277985   1.760   4.158  13.244  0.9149 -3.7329  0.5803
18832TIP3   OH277986   3.672   3.601   3.037  0.1588 -0.1894  0.1393
18832TIP3    H177987   3.737   3.531   3.026  1.5796  1.1031  0.1583
18832TIP3    H277988   3.660   3.607   3.132  2.6661  1.9189  0.3694
18833TIP3   OH277989   2.869   4.259   4.561  0.2341 -0.4910  0.7930
18833TIP3    H177990   2.774   4.268   4.563  0.0610 -1.8389 -0.7659
18833TIP3    H277991   2.901   4.348   4.577 -1.3193  0.4481 -1.0499
18834TIP3   OH277992   1.854   4.572  12.771 -0.2752  0.3921 -0.5796
18834TIP3    H177993   1.900   4.566  12.855 -1.3476 -0.2344 -0.0386
18834TIP3    H277994   1.923   4.559  12.706  0.4631  0.3011  0.2072
18835TIP3   OH277995   6.547   1.174   1.541 -0.3511  0.3282 -0.1378
18835TIP3    H177996   6.474   1.166   1.479 -1.4049  0.1049  1.1214
18835TIP3    H277997   6.625   1.176   1.485 -1.3939  1.8913 -1.5718
18836TIP3   OH277998   1.160   6.045   1.606 -0.0925 -0.4095 -0.1392
18836TIP3    H177999   1.179   6.130   1.645 -0.2488 -0.9467  1.1398
18836TIP3    H278000   1.113   6.066   1.525  0.9155  0.7451 -0.4458
18837TIP3   OH278001   2.214   1.241  13.419  0.5295 -0.0209 -0.3090
18837TIP3    H178002   2.259   1.325  13.420 -0.8148  0.7214 -0.5970
18837TIP3    H278003   2.272   1.183  13.370  1.7984  0.5413  0.5144
18838TIP3   OH278004   0.047   0.392  13.212 -0.3171  0.0855 -0.1910
18838TIP3    H178005   0.034   0.480  13.246 -1.7338 -1.1496  2.6116
18838TIP3    H278006   0.142   0.385  13.200 -0.0522  1.5042  0.9419
18839TIP3   OH278007   0.460   0.944   6.451 -0.3551  0.0348 -0.0570
18839TIP3    H178008   0.549   0.969   6.479 -0.0857  0.0005 -0.8522
18839TIP3    H278009   0.405   1.017   6.479  0.4010  1.4836 -2.1737
18840TIP3   OH278010   2.207   4.845  11.636  0.3533  0.4840  0.3193
18840TIP3    H178011   2.156   4.923  11.617 -0.9476 -0.0764  1.4364
18840TIP3    H278012   2.252   4.863  11.718  0.8863  0.4516  0.0418
18841TIP3   OH278013   5.497   5.593   2.798 -0.2528  0.1001 -0.0561
18841TIP3    H178014   5.549   5.615   2.875 -0.5227 -0.0758  0.1795
18841TIP3    H278015   5.414   5.640   2.810 -0.9242 -1.1910  0.5708
18842TIP3   OH278016   2.800   5.965   2.523  0.2105 -0.2283  0.4381
18842TIP3    H178017   2.720   5.948   2.574  1.8232 -0.5155  2.9642
18842TIP3    H278018   2.862   5.999   2.587  2.5423 -1.2397 -1.2192
18843TIP3   OH278019   0.724   4.979   3.875 -0.0916 -0.0490 -0.1727
18843TIP3    H178020   0.808   4.985   3.830  0.0774  0.4236  0.2009
18843TIP3    H278021   0.658   4.988   3.806  0.1639  0.1407 -0.3896
18844TIP3   OH278022   3.154   5.907   1.149 -0.4922  0.1940  0.6798
18844TIP3    H178023   3.130   5.972   1.083 -1.7818 -0.3384  0.6150
18844TIP3    H278024   3.072   5.888   1.195  0.0935 -0.5818  1.4243
18845TIP3   OH278025   5.085   1.040  14.323  0.1147 -0.4600  0.4592
18845TIP3    H178026   5.118   1.042  14.234 -0.9060 -0.7852  0.0701
18845TIP3    H278027   5.136   1.106  14.369  0.8388 -0.4940 -0.2980
18846TIP3   OH278028   0.922   3.987   0.208 -0.1371 -0.1217 -0.1214
18846TIP3    H178029   0.950   3.902   0.176 -2.2466 -1.0780  0.4474
18846TIP3    H278030   0.828   3.990   0.188 -0.4368  1.3449  1.3909
18847TIP3   OH278031   2.070   3.954   2.998 -0.0514 -0.0387  0.0250
18847TIP3    H178032   2.070   3.941   2.903 -0.8555 -0.8654  0.1370
18847TIP3    H278033   2.152   3.915   3.027  0.0182 -0.1205 -0.2755
18848TIP3   OH278034   0.080   5.896   2.519 -0.1552 -0.3065  1.0657
18848TIP3    H178035   0.131   5.834   2.468  1.0865 -0.3463  2.3159
18848TIP3    H278036   0.097   5.872   2.610 -1.1756  0.6649  1.5298
18849TIP3   OH278037   4.390   5.280  14.027  0.2081  0.7593 -0.3782
18849TIP3    H178038   4.345   5.296  14.110 -0.8747  0.6270 -0.9356
18849TIP3    H278039   4.323   5.243  13.970  1.2427 -0.2589 -0.9468
18850TIP3   OH278040   2.364   3.372  16.794 -0.0259  0.8843 -0.0967
18850TIP3    H178041   2.449   3.390  16.835  0.9628 -0.8713 -1.3306
18850TIP3    H278042   2.385   3.337  16.708 -2.0460  1.8312 -1.0162
18851TIP3   OH278043   2.080   2.551   2.118 -0.1718  0.3748 -0.5536
18851TIP3    H178044   2.052   2.573   2.029 -1.1525  0.7966 -0.1455
18851TIP3    H278045   2.171   2.520   2.107 -0.9957 -1.6845 -1.9848
18852TIP3   OH278046   1.046   6.161  15.687  0.9055 -0.6209  0.3440
18852TIP3    H178047   0.997   6.150  15.769  1.9865 -1.9997  0.8281
18852TIP3    H278048   1.005   6.237  15.644  0.0202 -0.1853  1.9270
18853TIP3   OH278049   6.291   1.771   4.574  0.2570 -0.0499 -0.1434
18853TIP3    H178050   6.244   1.747   4.494 -1.0181  0.1073  0.5380
18853TIP3    H278051   6.382   1.746   4.557 -0.0570 -0.3099 -1.5153
18854TIP3   OH278052   0.861   4.688   0.356 -0.0118  0.0539 -0.7533
18854TIP3    H178053   0.841   4.647   0.440 -0.3127  1.6824 -0.0046
18854TIP3    H278054   0.877   4.615   0.296  0.2048 -1.1257  0.7184
18855TIP3   OH278055   4.918   2.030   6.379  0.2011  0.4253  0.2630
18855TIP3    H178056   4.831   2.018   6.418 -1.1083  0.9020 -2.4104
18855TIP3    H278057   4.929   2.125   6.373  0.0960  0.3668 -1.0931
18856TIP3   OH278058   2.295   3.208   4.068 -0.1762  0.1974  0.7149
18856TIP3    H178059   2.218   3.250   4.029 -1.3774 -3.2784 -0.9216
18856TIP3    H278060   2.351   3.186   3.993 -0.5142 -2.7912  1.2845
18857TIP3   OH278061   2.898   5.858  10.325  0.2752  0.4684  0.0757
18857TIP3    H178062   2.875   5.935  10.273  0.8018  0.1380 -0.6554
18857TIP3    H278063   2.864   5.785  10.273  0.2564  0.1756  0.5034
18858TIP3   OH278064   1.625   4.055  13.173 -0.3262  0.0402  0.0657
18858TIP3    H178065   1.614   4.040  13.079 -0.2185  1.3492 -0.1628
18858TIP3    H278066   1.622   3.967  13.212  0.9067 -0.6224 -1.2871
18859TIP3   OH278067   5.577   3.258   1.927  0.0747  0.6811 -0.2940
18859TIP3    H178068   5.511   3.282   1.992 -0.1392 -0.4707 -0.0708
18859TIP3    H278069   5.554   3.309   1.849 -0.2065  1.3865  0.2449
18860TIP3   OH278070   2.253   0.984   2.635 -0.0793 -0.2874  0.7634
18860TIP3    H178071   2.177   1.030   2.600 -0.0710 -2.2274 -2.0069
18860TIP3    H278072   2.328   1.036   2.607 -0.2302 -0.1713  0.5767
18861TIP3   OH278073   0.584   4.322   2.109 -0.5847 -0.2401  0.4384
18861TIP3    H178074   0.596   4.333   2.014  2.2293 -1.4475  0.6079
18861TIP3    H278075   0.506   4.266   2.117  0.1971 -1.6070 -1.2283
18862TIP3   OH278076   2.118   6.184  15.870  0.1666 -0.1013  0.2474
18862TIP3    H178077   2.212   6.168  15.877  0.6109  3.1734  2.6023
18862TIP3    H278078   2.091   6.208  15.958 -1.9802  3.4735 -1.2843
18863TIP3   OH278079   3.422   0.674  15.495  0.3207  0.6687 -0.2272
18863TIP3    H178080   3.347   0.713  15.541 -2.8353 -2.2450 -2.6679
18863TIP3    H278081   3.436   0.731  15.419 -1.2895 -0.3409 -1.2977
18864TIP3   OH278082   2.740   5.593  15.930  0.1937  0.1434  0.7294
18864TIP3    H178083   2.783   5.508  15.934  0.2919  0.1821  0.4873
18864TIP3    H278084   2.702   5.605  16.017  2.9390  1.3151  1.8263
18865TIP3   OH278085   4.353   1.285  11.670 -0.1858  0.1871  0.0222
18865TIP3    H178086   4.354   1.354  11.735  1.3824 -0.1296  0.3563
18865TIP3    H278087   4.345   1.204  11.721 -0.4302  0.0237 -0.2722
18866TIP3   OH278088   3.031   6.514   0.598 -0.3139  0.0028  0.1506
18866TIP3    H178089   3.085   6.438   0.575  0.2222  0.6100 -0.6362
18866TIP3    H278090   2.944   6.491   0.565 -0.0694 -0.1164 -0.4300
18867TIP3   OH278091   3.396   1.306   3.002  0.1233 -0.5627 -0.3287
18867TIP3    H178092   3.445   1.284   3.081  0.6306  0.5421 -0.3248
18867TIP3    H278093   3.305   1.285   3.023  0.1070  0.7046  0.9257
18868TIP3   OH278094   5.118   0.614   1.664  0.8805  0.0538 -0.0164
18868TIP3    H178095   5.138   0.555   1.736  0.3618 -1.8605 -1.3871
18868TIP3    H278096   5.032   0.585   1.632  0.7387  1.3839 -0.8931
18869TIP3   OH278097   0.718   0.913   2.839  0.2279  0.1166 -0.1555
18869TIP3    H178098   0.716   1.007   2.821 -1.0986 -0.0878 -1.1530
18869TIP3    H278099   0.670   0.873   2.766  1.8350 -1.4485 -0.3954
18870TIP3   OH278100   0.016   2.360  14.172 -0.5500  0.1206  0.8237
18870TIP3    H178101   0.007   2.452  14.196 -1.2802 -0.0089  1.0717
18870TIP3    H278102   0.034   2.361  14.078  1.4198  0.5943  1.1954
18871TIP3   OH278103   4.694   3.182  11.798 -0.5453 -0.1818 -0.1920
18871TIP3    H178104   4.611   3.168  11.752 -0.2435 -0.1551 -0.7459
18871TIP3    H278105   4.709   3.277  11.791 -1.8053  0.2320  2.2136
18872TIP3   OH278106   6.737   4.768   2.703  0.5441  0.2031  0.2104
18872TIP3    H178107   6.718   4.675   2.689  0.6890  0.0521  0.9406
18872TIP3    H278108   6.828   4.778   2.677  0.1247  0.4481 -1.1976
18873TIP3   OH278109   1.625   2.764  16.860  0.6386 -0.0529  0.6312
18873TIP3    H178110   1.634   2.818  16.939  1.4513 -1.2273  1.3751
18873TIP3    H278111   1.668   2.814  16.791 -0.2171  1.0646  0.8964
18874TIP3   OH278112   4.895   3.698  12.205  0.4986  0.7587 -0.5699
18874TIP3    H178113   4.890   3.604  12.226 -0.7140  0.6739 -1.1913
18874TIP3    H278114   4.952   3.703  12.129 -1.1142  0.2832 -1.8498
18875TIP3   OH278115   5.789   3.733  11.474 -0.7616 -0.4581 -0.1610
18875TIP3    H178116   5.732   3.703  11.403  1.6924 -1.2625 -1.8394
18875TIP3    H278117   5.865   3.676  11.469  0.7926  1.4632  1.1874
18876TIP3   OH278118   1.852   5.800   5.284 -0.2345 -0.3103  0.4072
18876TIP3    H178119   1.821   5.711   5.302 -0.5952 -0.1489  0.5997
18876TIP3    H278120   1.774   5.854   5.295 -0.2867 -0.1170 -0.9452
18877TIP3   OH278121   3.148   5.882  13.600  0.2685 -0.1489  0.4444
18877TIP3    H178122   3.144   5.855  13.509 -1.0522  1.1946  0.0923
18877TIP3    H278123   3.127   5.803  13.650 -2.4605 -0.0994 -0.5326
18878TIP3   OH278124   4.311   0.228   0.914  0.2163 -0.0367  0.2543
18878TIP3    H178125   4.229   0.277   0.920 -0.7112 -1.1918 -2.0155
18878TIP3    H278126   4.286   0.137   0.931  0.5586 -0.7390 -2.6323
18879TIP3   OH278127   3.501   3.881   6.424 -0.3957  0.1383  0.2273
18879TIP3    H178128   3.521   3.974   6.408  1.3078 -0.3242 -0.3965
18879TIP3    H278129   3.415   3.868   6.383 -1.3478  1.7952  1.6330
18880TIP3   OH278130   6.629   3.665  14.954 -0.0485  0.5677  0.9833
18880TIP3    H178131   6.540   3.632  14.959  0.4185 -0.9051 -0.0307
18880TIP3    H278132   6.621   3.752  14.915 -1.1330  0.9374  2.0159
18881TIP3   OH278133   2.896   5.192   0.663 -0.1266 -0.2341  0.1855
18881TIP3    H178134   2.861   5.250   0.595 -0.2166  1.2063  1.4133
18881TIP3    H278135   2.842   5.210   0.740  1.3377 -0.2398  1.2494
18882TIP3   OH278136   4.222   4.886  15.712  0.5033  0.1475 -0.6199
18882TIP3    H178137   4.241   4.792  15.703 -0.4714 -0.0707 -0.4894
18882TIP3    H278138   4.307   4.927  15.724  0.8635 -0.8493  0.3391
18883TIP3   OH278139   5.343   2.284   3.161 -0.5554 -0.1682  0.0419
18883TIP3    H178140   5.315   2.341   3.233 -0.5155  0.4979 -0.4689
18883TIP3    H278141   5.286   2.307   3.088 -0.3599 -0.5975 -0.2488
18884TIP3   OH278142   0.723   3.205  13.351 -0.0535 -0.3265  0.0241
18884TIP3    H178143   0.689   3.250  13.274 -1.3678  0.0688  0.8324
18884TIP3    H278144   0.742   3.117  13.320  3.6549  1.0280 -1.8848
18885TIP3   OH278145   3.378   4.577   1.572  0.2341 -0.4977 -0.4875
18885TIP3    H178146   3.390   4.664   1.610  0.2662 -1.4613  1.7877
18885TIP3    H278147   3.415   4.517   1.637 -0.5082 -2.2603 -1.6601
18886TIP3   OH278148   0.050   5.435   0.010 -0.4117 -0.1259  0.6923
18886TIP3    H178149  -0.039   5.444  -0.026 -0.3367  1.1189  0.8022
18886TIP3    H278150   0.107   5.465  -0.060 -0.1567  0.4431  1.1422
18887TIP3   OH278151   5.597   6.320   2.405 -0.1699 -0.1506 -0.2338
18887TIP3    H178152   5.642   6.238   2.387  0.6021 -0.0323  1.0650
18887TIP3    H278153   5.667   6.385   2.412 -0.5882  0.1675  1.0946
18888TIP3   OH278154   5.762   4.576  13.033  0.3341  0.1766  0.1495
18888TIP3    H178155   5.763   4.579  12.938  0.0906 -0.9914  0.1007
18888TIP3    H278156   5.688   4.630  13.058  1.2875  1.7085 -0.2518
18889TIP3   OH278157   5.474   3.515   2.185 -0.4372 -0.2227  0.1450
18889TIP3    H178158   5.433   3.554   2.263  1.1460 -0.3164  1.0484
18889TIP3    H278159   5.567   3.510   2.207 -0.3060 -2.4790 -0.8328
18890TIP3   OH278160   2.126   6.601   4.689  0.1600 -0.2594  0.0530
18890TIP3    H178161   2.173   6.681   4.666  1.2382 -1.7748 -3.3746
18890TIP3    H278162   2.041   6.610   4.645  0.5663 -1.2792 -0.9734
18891TIP3   OH278163   1.569   6.236  11.295  0.1788  0.0145 -0.3508
18891TIP3    H178164   1.522   6.318  11.311 -1.1819 -0.3047 -2.4847
18891TIP3    H278165   1.625   6.255  11.220 -0.0796 -0.9862 -0.8043
18892TIP3   OH278166   2.926   2.249  17.224  0.6663  0.0833  0.1134
18892TIP3    H178167   2.836   2.280  17.215  1.0678  0.7656 -1.8003
18892TIP3    H278168   2.939   2.190  17.149  1.3293 -1.2399  1.2348
18893TIP3   OH278169   6.434   5.909   0.439 -0.7054  0.7215  0.5369
18893TIP3    H178170   6.491   5.870   0.373 -0.0189  1.3818  0.7445
18893TIP3    H278171   6.371   5.839   0.459 -0.7087  0.3977 -0.5543
18894TIP3   OH278172   0.911   5.095  14.094 -0.1477 -0.0666 -0.2133
18894TIP3    H178173   0.889   5.079  14.185  0.5034  0.3530  0.0175
18894TIP3    H278174   0.994   5.050  14.080  0.3267  0.8173 -0.2896
18895TIP3   OH278175   2.079   0.859   1.811  0.0371 -0.5461 -0.6045
18895TIP3    H178176   2.039   0.874   1.896  1.0618 -0.7907 -0.0676
18895TIP3    H278177   2.169   0.833   1.831  0.3994 -0.2316 -1.7768
18896TIP3   OH278178   3.206   1.418   2.379  0.2084 -0.1320  0.5957
18896TIP3    H178179   3.298   1.413   2.353  0.6843  1.5864  1.8325
18896TIP3    H278180   3.189   1.336   2.424  1.4634  0.0078  1.3523
18897TIP3   OH278181   0.004   2.533  16.952  0.4586 -0.8706 -0.3387
18897TIP3    H178182  -0.083   2.516  16.988 -0.1177 -0.0477 -1.3168
18897TIP3    H278183   0.051   2.575  17.024  0.3126 -2.0253  0.4542
18898TIP3   OH278184   3.363   1.374   1.061 -0.9274  0.2933  0.1610
18898TIP3    H178185   3.436   1.378   1.122  1.2801  0.3546 -2.3649
18898TIP3    H278186   3.352   1.280   1.044 -0.9178  0.3243 -0.0205
18899TIP3   OH278187   3.457   0.433  11.476 -0.3349 -0.4576  0.1160
18899TIP3    H178188   3.491   0.378  11.405  0.2565  1.1261 -0.8475
18899TIP3    H278189   3.403   0.499  11.432 -1.2278 -0.4034  1.2778
18900TIP3   OH278190   5.292   5.738   5.764  0.3581 -0.5733 -0.3364
18900TIP3    H178191   5.300   5.708   5.855 -0.7547  0.9396  0.2952
18900TIP3    H278192   5.238   5.817   5.771 -0.1986 -0.7639 -2.3924
18901TIP3   OH278193   0.567   2.581  14.861  0.3090  0.0739  0.0527
18901TIP3    H178194   0.643   2.535  14.827  0.1900  0.2131 -0.3992
18901TIP3    H278195   0.494   2.519  14.853  0.2248  0.2076 -0.2036
18902TIP3   OH278196   1.324   5.282  15.149 -0.0840  0.0203 -0.3582
18902TIP3    H178197   1.373   5.208  15.112 -2.5117 -2.0292  0.3716
18902TIP3    H278198   1.355   5.358  15.101  2.1511 -1.5379 -1.4659
18903TIP3   OH278199   5.259   2.737   1.314  0.2854 -1.0474  0.1347
18903TIP3    H178200   5.268   2.642   1.323 -0.4818 -1.1506 -0.1087
18903TIP3    H278201   5.348   2.769   1.300  0.5859 -1.6954  0.5565
18904TIP3   OH278202   0.803   0.394   5.641  0.2012  0.1744  0.2211
18904TIP3    H178203   0.813   0.478   5.687 -0.6816  0.7879 -0.6892
18904TIP3    H278204   0.892   0.359   5.637  0.4430  0.5947  1.4709
18905TIP3   OH278205   4.723   2.682   3.653 -0.3153 -0.3006 -0.3982
18905TIP3    H178206   4.743   2.730   3.572  0.8195  0.7018  0.4424
18905TIP3    H278207   4.708   2.751   3.718  3.1981 -1.0077  1.2886
18906TIP3   OH278208   1.319   1.852  13.494  0.2795 -0.2634  0.0206
18906TIP3    H178209   1.263   1.826  13.567  0.4127 -0.8938 -0.0906
18906TIP3    H278210   1.262   1.850  13.417 -0.2469  1.9558  0.3318
18907TIP3   OH278211   5.712   0.101   1.118  0.3645  0.1970  0.1971
18907TIP3    H178212   5.633   0.147   1.092  1.1201  1.5371  0.2463
18907TIP3    H278213   5.716   0.112   1.213 -0.0290 -0.9100  0.3518
18908TIP3   OH278214   6.022   2.002   3.428  0.0608 -0.1074 -0.1416
18908TIP3    H178215   6.005   2.029   3.519 -0.9873 -0.3624 -0.2534
18908TIP3    H278216   6.084   1.930   3.436 -1.0383 -1.0070  0.4698
18909TIP3   OH278217   6.503   3.454  15.345  0.2403 -0.5983  0.1355
18909TIP3    H178218   6.445   3.519  15.384  0.2843 -0.7085  0.3845
18909TIP3    H278219   6.465   3.435  15.259  0.1729 -0.3199  0.1065
18910TIP3   OH278220   1.355   3.872  11.397 -0.3151  0.3311  0.0708
18910TIP3    H178221   1.295   3.912  11.335 -0.5600  0.7965  0.6080
18910TIP3    H278222   1.438   3.918  11.384 -0.3488  0.3828  0.0450
18911TIP3   OH278223   0.710   1.047  13.100  0.2989  0.0614  0.1885
18911TIP3    H178224   0.788   1.067  13.049  0.9286 -0.7701  0.8161
18911TIP3    H278225   0.672   1.133  13.121  1.7815  0.5207  1.0401
18912TIP3   OH278226   2.313   0.530  12.881  0.3902 -0.1294 -0.7229
18912TIP3    H178227   2.403   0.553  12.905  0.1799  0.8825 -0.9159
18912TIP3    H278228   2.275   0.611  12.847 -0.7726 -0.4094 -0.1227
18913TIP3   OH278229   2.207   1.827   4.389  0.3076 -0.4836 -0.3375
18913TIP3    H178230   2.271   1.768   4.350  1.2403  1.3700 -1.6619
18913TIP3    H278231   2.126   1.810   4.341  0.6253 -0.5466 -0.8519
18914TIP3   OH278232   6.175   0.142   6.006 -0.0292 -0.3618 -0.0047
18914TIP3    H178233   6.096   0.189   6.034  0.8421  0.4053  1.2179
18914TIP3    H278234   6.155   0.050   6.022 -0.4315 -0.1184  0.9535
18915TIP3   OH278235   5.821   1.244   3.635  0.0579  0.1208  0.2144
18915TIP3    H178236   5.756   1.216   3.700 -0.1129  0.4869  0.2019
18915TIP3    H278237   5.905   1.212   3.669  0.1022  1.1968  1.1340
18916TIP3   OH278238   2.197   6.004  13.198  0.4638  0.2299  0.3662
18916TIP3    H178239   2.139   5.929  13.213  0.3957 -0.0242 -1.1372
18916TIP3    H278240   2.163   6.073  13.255 -0.3887 -0.4019  0.6192
18917TIP3   OH278241   4.432   4.199  15.882 -0.2630 -0.2678 -0.4152
18917TIP3    H178242   4.423   4.279  15.935 -0.9485 -1.2230  0.9485
18917TIP3    H278243   4.495   4.145  15.931 -1.2404 -1.3465 -0.3354
18918TIP3   OH278244   2.063   6.261   2.058 -0.2283 -0.1431  0.9461
18918TIP3    H178245   2.055   6.333   1.996 -2.9423 -0.6306  0.6536
18918TIP3    H278246   2.083   6.304   2.142 -0.7974  0.8759  0.5694
18919TIP3   OH278247   0.718   3.416   0.784  0.5576 -0.1450 -0.3606
18919TIP3    H178248   0.790   3.459   0.830 -0.7825  1.3670  0.3812
18919TIP3    H278249   0.680   3.484   0.729  0.2404 -1.1523 -1.4137
18920TIP3   OH278250   4.423   6.230   2.475 -0.2336 -0.7668  0.1036
18920TIP3    H178251   4.414   6.165   2.405  0.9949 -1.8268  0.9049
18920TIP3    H278252   4.344   6.219   2.527 -0.5094 -0.9261 -0.3433
18921TIP3   OH278253   1.428   0.207  16.406 -0.7564  0.3934 -0.0319
18921TIP3    H178254   1.485   0.234  16.478  1.6943 -1.4972 -1.1626
18921TIP3    H278255   1.446   0.113  16.395 -1.3135  0.5603 -2.8331
18922TIP3   OH278256   0.609   1.602   4.079  0.6384 -0.0487 -0.4295
18922TIP3    H178257   0.665   1.594   4.002  1.5552  0.7071  0.1609
18922TIP3    H278258   0.659   1.655   4.140  0.1713 -1.1701  0.9411
18923TIP3   OH278259   1.066   6.465   0.011  0.1427  0.7941 -0.4941
18923TIP3    H178260   1.021   6.471   0.095  1.9132  1.1026  0.4495
18923TIP3    H278261   1.149   6.421   0.030 -0.0032 -0.3214 -2.3137
18924TIP3   OH278262   2.650   4.191   6.076  0.4242  0.3141  0.1659
18924TIP3    H178263   2.695   4.270   6.107 -1.5999  1.4812  0.2994
18924TIP3    H278264   2.623   4.146   6.157  3.0244 -1.4182  0.1031
18925TIP3   OH278265   4.792   2.217   5.698 -0.1989  0.2383  0.2867
18925TIP3    H178266   4.861   2.274   5.663  0.4543 -0.8780 -0.3045
18925TIP3    H278267   4.833   2.173   5.773 -0.0758 -0.8101 -0.3759
18926TIP3   OH278268   2.357   0.597   2.126  0.0477 -0.2816 -0.1860
18926TIP3    H178269   2.262   0.585   2.120  0.2269 -2.2878  0.6015
18926TIP3    H278270   2.377   0.662   2.059 -2.0373  1.1022  0.4942
18927TIP3   OH278271   6.435   3.636   3.018  1.1795 -0.0739  0.3649
18927TIP3    H178272   6.505   3.700   3.031  1.8160 -0.4028 -1.2588
18927TIP3    H278273   6.463   3.585   2.941 -0.2916 -0.9561  0.3886
18928TIP3   OH278274   4.759   2.022   6.124  0.3263  0.0941 -0.0484
18928TIP3    H178275   4.831   2.004   6.185  0.0079 -0.9094  0.0347
18928TIP3    H278276   4.691   2.062   6.178  0.9363  1.3547 -0.1885
18929TIP3   OH278277   0.615   4.825  11.720 -0.4148 -0.1348  0.4660
18929TIP3    H178278   0.618   4.912  11.682  0.4409  0.1435  1.1433
18929TIP3    H278279   0.629   4.765  11.646 -1.0765  0.2888 -0.0079
18930TIP3   OH278280   0.448   2.661   6.463 -0.3890 -0.5222 -0.0170
18930TIP3    H178281   0.520   2.674   6.525 -1.2903  1.6267  0.6117
18930TIP3    H278282   0.369   2.680   6.513 -1.2528 -0.6432 -1.3165
18931TIP3   OH278283   0.688   0.977  14.575 -0.7964  0.2953 -0.2917
18931TIP3    H178284   0.609   1.014  14.614 -1.5332  0.7260 -2.1100
18931TIP3    H278285   0.690   1.014  14.487  0.4179 -1.1697 -0.9065
18932TIP3   OH278286   1.220   3.774   2.446 -0.2525 -0.3675  0.3314
18932TIP3    H178287   1.224   3.846   2.509 -0.7947  0.0428 -0.0949
18932TIP3    H278288   1.168   3.707   2.490 -0.3248 -0.2235  0.4674
18933TIP3   OH278289   1.454   0.636  16.349 -0.9980  0.1829  0.0812
18933TIP3    H178290   1.384   0.691  16.314 -0.1394 -0.2228 -2.3767
18933TIP3    H278291   1.507   0.696  16.402 -0.3130  1.7107 -2.2310
18934TIP3   OH278292   5.320   5.433   3.867 -0.1129 -0.0022  0.1458
18934TIP3    H178293   5.338   5.366   3.801  0.2706 -0.5910  0.8537
18934TIP3    H278294   5.355   5.514   3.828  1.9038 -0.6930  0.4649
18935TIP3   OH278295   2.240   0.966   5.128  0.7985 -0.1374  0.0981
18935TIP3    H178296   2.228   0.902   5.058 -1.7945  0.2248  0.1711
18935TIP3    H278297   2.239   1.051   5.083 -3.5981  0.2715  0.7548
18936TIP3   OH278298   0.028   1.712  12.884 -1.0042  0.7195 -0.4423
18936TIP3    H178299  -0.050   1.763  12.904 -1.0936  0.6844 -0.6964
18936TIP3    H278300   0.006   1.623  12.911 -0.7018  0.8834  0.3801
18937TIP3   OH278301   3.582   1.772  12.354  0.3558  0.5309  0.2328
18937TIP3    H178302   3.618   1.848  12.309  0.5340  0.6086  0.5055
18937TIP3    H278303   3.493   1.799  12.380  0.1200  0.3585 -0.3913
18938TIP3   OH278304   0.484   6.414  13.695  1.0628 -0.2484  0.5195
18938TIP3    H178305   0.437   6.496  13.707  0.0648 -1.0721  2.6282
18938TIP3    H278306   0.573   6.432  13.728  0.4730 -0.3469  2.2431
18939TIP3   OH278307   1.499   6.209   3.229 -0.5025 -0.3368  0.0534
18939TIP3    H178308   1.439   6.235   3.299  0.1643 -1.4980  1.0811
18939TIP3    H278309   1.506   6.286   3.173 -1.5189  0.4089  0.9389
18940TIP3   OH278310   1.068   4.143   6.457  0.2446  0.2724  0.8926
18940TIP3    H178311   0.987   4.192   6.445  0.1055 -0.5517 -2.0425
18940TIP3    H278312   1.045   4.071   6.516 -0.8696  0.6851  0.9622
18941TIP3   OH278313   5.857   6.314   0.407 -0.0794 -0.0806  0.3008
18941TIP3    H178314   5.889   6.274   0.487  0.9478  2.1096  1.0170
18941TIP3    H278315   5.793   6.378   0.435  0.0443  0.4764 -0.6443
18942TIP3   OH278316   2.218   6.548   4.030  0.1396  0.3046  0.9601
18942TIP3    H178317   2.237   6.611   4.099 -0.5416 -0.1883  1.6113
18942TIP3    H278318   2.141   6.584   3.985 -0.0833  0.0787  1.1584
18943TIP3   OH278319   2.267   5.453  11.928 -0.4781 -0.3293 -0.1320
18943TIP3    H178320   2.214   5.440  11.849 -0.3518  0.3811 -0.3385
18943TIP3    H278321   2.296   5.544  11.923  0.4824 -0.6103  0.1470
18944TIP3   OH278322   1.840   0.504   4.164  0.8264 -0.1293  0.0424
18944TIP3    H178323   1.853   0.485   4.257  2.0319  1.9783  0.3423
18944TIP3    H278324   1.764   0.561   4.161  1.1540  0.2925 -0.2154
18945TIP3   OH278325   5.408   3.604  13.218  0.1797  0.3421  0.1307
18945TIP3    H178326   5.364   3.521  13.199 -0.5455  0.4696  1.2238
18945TIP3    H278327   5.337   3.667  13.227  0.6998  0.9544 -0.0698
18946TIP3   OH278328   1.551   1.982  16.733  0.3525  0.2057  0.2510
18946TIP3    H178329   1.621   1.959  16.672 -1.8334 -0.5493 -2.0850
18946TIP3    H278330   1.534   2.074  16.718 -1.0188 -0.2698 -1.2049
18947TIP3   OH278331   6.119   6.551   4.764  0.1900 -0.1768 -0.1069
18947TIP3    H178332   6.041   6.507   4.796  0.3160  0.2105  0.7506
18947TIP3    H278333   6.112   6.547   4.669 -0.2473 -1.2370 -0.0351
18948TIP3   OH278334   4.927   0.834  12.489  0.5431 -0.7022 -0.2516
18948TIP3    H178335   4.914   0.903  12.554  0.9960 -3.1426  2.5590
18948TIP3    H278336   4.855   0.845  12.427 -0.8708  0.6991  1.5827
18949TIP3   OH278337   3.403   3.488   3.690  0.2747  0.7248 -0.1746
18949TIP3    H178338   3.370   3.559   3.634  0.3774  2.0773  1.4276
18949TIP3    H278339   3.497   3.486   3.672  0.3202  1.2024 -0.0114
18950TIP3   OH278340   5.799   2.350  17.117  0.6189  0.1619 -0.3956
18950TIP3    H178341   5.828   2.430  17.161  1.0136  0.1506 -0.6337
18950TIP3    H278342   5.783   2.288  17.188 -0.3954  0.6729 -0.1673
18951TIP3   OH278343   2.612   2.511  13.182 -0.3473  0.2247  0.3098
18951TIP3    H178344   2.671   2.570  13.135 -0.5709 -0.2563 -0.5673
18951TIP3    H278345   2.635   2.423  13.152 -1.5133  0.0290 -0.0610
18952TIP3   OH278346   2.732   3.571  15.405 -0.4870  0.0337 -0.7424
18952TIP3    H178347   2.714   3.479  15.389 -0.3681  0.0053 -0.7107
18952TIP3    H278348   2.699   3.587  15.494  2.5339 -0.8038  0.5882
18953TIP3   OH278349   6.172   4.662   4.225  0.0943 -0.0524 -0.1132
18953TIP3    H178350   6.226   4.693   4.152  0.1038 -0.3135 -0.2180
18953TIP3    H278351   6.128   4.584   4.191 -1.2357  0.8052 -0.3985
18954TIP3   OH278352   6.719   0.111  12.718 -0.2690 -0.1273  0.4570
18954TIP3    H178353   6.733   0.054  12.794 -0.5421 -1.0539 -0.1738
18954TIP3    H278354   6.728   0.052  12.643 -1.1763  0.5499 -0.1890
18955TIP3   OH278355   5.527   6.345  11.806  0.3058  0.2554 -0.1490
18955TIP3    H178356   5.451   6.288  11.794 -0.4475  0.9129  1.4074
18955TIP3    H278357   5.491   6.428  11.836  1.6411  0.5237  0.7702
18956TIP3   OH278358   2.668   5.326   4.298  0.0522 -0.3036  0.0616
18956TIP3    H178359   2.581   5.294   4.320  0.2336  0.2299  1.6101
18956TIP3    H278360   2.728   5.260   4.334  0.3241 -0.0212  0.1329
18957TIP3   OH278361   2.127   5.696  14.889  0.5604 -0.7690 -0.6602
18957TIP3    H178362   2.120   5.776  14.836  0.4671  0.3037  0.9246
18957TIP3    H278363   2.048   5.646  14.868  0.1543 -0.0087 -0.9631
18958TIP3   OH278364   1.746   4.361   5.848 -0.4821  0.1044 -0.0295
18958TIP3    H178365   1.730   4.422   5.921  0.5090  0.0269  0.2491
18958TIP3    H278366   1.706   4.279   5.876 -0.6312  0.2437  0.1692
18959TIP3   OH278367   4.873   0.632  15.674 -0.3288 -0.0257 -0.4847
18959TIP3    H178368   4.793   0.645  15.622 -2.2386  1.2473  2.6172
18959TIP3    H278369   4.863   0.691  15.748  2.6221 -1.2998  0.9978
18960TIP3   OH278370   2.579   4.675   4.066  0.3311  0.0817  0.2150
18960TIP3    H178371   2.567   4.745   4.130 -0.0205  0.0843  0.1484
18960TIP3    H278372   2.574   4.719   3.981 -1.5015 -0.2556  0.1379
18961TIP3   OH278373   6.237   1.195  14.062 -0.2816 -0.2796  0.3086
18961TIP3    H178374   6.152   1.164  14.093  0.4474 -0.7411  1.8727
18961TIP3    H278375   6.233   1.290  14.073  0.2517 -0.4987  2.6141
18962TIP3   OH278376   4.865   0.272  13.696  0.2607 -1.1216  0.1066
18962TIP3    H178377   4.781   0.263  13.742 -1.5605 -0.8320 -3.0245
18962TIP3    H278378   4.906   0.348  13.736 -1.8356 -0.1407  0.4359
18963TIP3   OH278379   6.295   1.516  11.065  0.3349 -0.3746 -0.0090
18963TIP3    H178380   6.228   1.454  11.095 -0.0341  0.8923  1.8300
18963TIP3    H278381   6.299   1.502  10.970 -0.1915 -2.7595  0.2798
18964TIP3   OH278382   5.354   1.267   5.000  0.2307  0.7576 -0.4582
18964TIP3    H178383   5.325   1.176   4.997 -1.7734  1.3868 -1.6222
18964TIP3    H278384   5.428   1.271   4.940 -0.4121  0.1201 -1.3011
18965TIP3   OH278385   2.737   5.881   2.801 -0.3315 -0.2568 -0.1838
18965TIP3    H178386   2.684   5.847   2.873 -0.2451  1.3162  0.6461
18965TIP3    H278387   2.817   5.828   2.803  0.1959  0.5736  1.6637
18966TIP3   OH278388   2.239   0.452   5.335  0.1947  0.0612  0.5030
18966TIP3    H178389   2.226   0.357   5.332 -1.0303  0.1632  1.8516
18966TIP3    H278390   2.174   0.488   5.275  0.2737  0.0770  0.4270
18967TIP3   OH278391   2.311   1.495   2.999  0.1113  0.3502  0.0561
18967TIP3    H178392   2.275   1.445   2.926  1.6214 -1.0309  0.2339
18967TIP3    H278393   2.234   1.530   3.044 -0.8666  0.3025 -1.5571
18968TIP3   OH278394   6.657   5.366   1.409  0.6748 -0.3391  0.1280
18968TIP3    H178395   6.601   5.321   1.346  0.5098 -0.0639  0.0807
18968TIP3    H278396   6.724   5.300   1.432  0.6250 -0.5013 -0.1886
18969TIP3   OH278397   1.925   6.497  16.505 -0.4217 -0.2465 -0.3965
18969TIP3    H178398   1.883   6.466  16.585 -0.3914  0.4993 -0.0800
18969TIP3    H278399   1.852   6.513  16.445 -0.5398  0.3642 -0.0949
18970TIP3   OH278400   3.058   0.780  11.436 -0.2414 -0.3709 -0.2396
18970TIP3    H178401   3.052   0.852  11.374 -0.2435  1.0467  1.3711
18970TIP3    H278402   3.008   0.709  11.395 -1.1423  0.8819 -1.3719
18971TIP3   OH278403   0.977   4.727  17.128  0.0697 -0.2735 -0.1562
18971TIP3    H178404   1.028   4.780  17.189 -0.2869 -1.4226  1.1513
18971TIP3    H278405   1.006   4.638  17.143  0.1314 -0.5461 -1.8262
18972TIP3   OH278406   3.177   6.763  16.109 -0.1486  0.1797 -0.0830
18972TIP3    H178407   3.134   6.792  16.029  0.0457  1.3382  0.2106
18972TIP3    H278408   3.109   6.718  16.159 -1.4986  3.2937  1.0534
18973TIP3   OH278409   3.507   4.930   1.950  0.0367 -0.1815  0.3239
18973TIP3    H178410   3.536   4.892   2.034 -1.0249 -1.8018 -0.0171
18973TIP3    H278411   3.419   4.961   1.968 -0.2134 -0.5839 -0.1948
18974TIP3   OH278412   6.020   3.345  16.566 -0.6267  0.4541  0.2988
18974TIP3    H178413   6.008   3.434  16.533  0.8695  1.2191  1.7320
18974TIP3    H278414   6.058   3.357  16.653  0.4446 -1.5975  0.1320
18975TIP3   OH278415   2.016   4.856  13.035 -0.7154 -0.8482 -0.3983
18975TIP3    H178416   2.109   4.850  13.014 -0.7556 -0.9981 -0.5380
18975TIP3    H278417   1.978   4.905  12.962 -0.3792  1.2363  0.7806
18976TIP3   OH278418   4.912   0.173  11.652 -0.4238  0.1242  0.2812
18976TIP3    H178419   4.939   0.239  11.715  0.6168  1.3931 -1.4622
18976TIP3    H278420   4.816   0.176  11.652 -0.4235  0.2621  1.6215
18977TIP3   OH278421   3.307   0.685  13.808  0.1496  0.5505 -0.3129
18977TIP3    H178422   3.261   0.653  13.885  1.7341  0.9431  0.8147
18977TIP3    H278423   3.292   0.618  13.742  0.2761 -0.6637  0.8763
18978TIP3   OH278424   1.611   5.122  12.745  0.3956  0.4131  0.4240
18978TIP3    H178425   1.643   5.165  12.824  1.3089 -1.1873  0.9420
18978TIP3    H278426   1.520   5.100  12.764 -0.0436  1.9720  0.2018
18979TIP3   OH278427   1.530   2.049  14.082  0.0608  0.3387  0.3356
18979TIP3    H178428   1.544   1.984  14.013 -1.1013  1.5746 -1.1378
18979TIP3    H278429   1.436   2.046  14.098  0.3094  0.1722  1.7734
18980TIP3   OH278430   3.876   4.604  14.275  0.2114 -0.3828 -0.6395
18980TIP3    H178431   3.968   4.628  14.266  0.0444  0.0428 -1.2135
18980TIP3    H278432   3.829   4.687  14.278  0.1435 -0.4581  3.2911
18981TIP3   OH278433   2.671   3.886   0.909 -0.0068  0.1136  0.0588
18981TIP3    H178434   2.630   3.800   0.920 -0.7335  0.5257  0.5924
18981TIP3    H278435   2.648   3.911   0.819  0.4779 -0.3864 -0.2096
18982TIP3   OH278436   1.645   3.805  10.945 -0.0331  0.3086  0.1639
18982TIP3    H178437   1.727   3.834  10.905 -0.5755 -0.1343 -1.2887
18982TIP3    H278438   1.632   3.864  11.019  0.9780  1.1304 -0.3033
18983TIP3   OH278439   1.665   1.108   4.514 -0.0691  0.4915  0.0791
18983TIP3    H178440   1.741   1.138   4.564 -0.5933  1.2101  0.4489
18983TIP3    H278441   1.660   1.014   4.533  0.1191  0.6344  0.8573
18984TIP3   OH278442   1.542   5.516   1.587  0.4505 -0.3726  0.4585
18984TIP3    H178443   1.573   5.503   1.497  0.5376 -2.2703  0.7254
18984TIP3    H278444   1.562   5.607   1.607  0.9637 -0.0991 -1.2530
18985TIP3   OH278445   2.035   5.772   0.307  0.1100  0.0459  0.3162
18985TIP3    H178446   2.001   5.710   0.242  0.7541  1.1567 -1.1102
18985TIP3    H278447   1.984   5.851   0.292  1.4949  0.8804 -0.0614
18986TIP3   OH278448   3.775   1.840   4.818 -0.0766  0.3487  0.4233
18986TIP3    H178449   3.718   1.915   4.833 -0.4150  0.1605  0.1107
18986TIP3    H278450   3.774   1.828   4.723 -0.4257 -0.3607  0.5137
18987TIP3   OH278451   6.596   4.299  15.784  0.9179  0.1090 -0.1590
18987TIP3    H178452   6.629   4.217  15.819 -1.1319 -0.7502 -0.1453
18987TIP3    H278453   6.569   4.349  15.861 -1.8139 -1.0029 -0.3165
18988TIP3   OH278454   2.593   3.652  14.000 -0.2347  0.0222  0.5007
18988TIP3    H178455   2.513   3.672  14.048 -0.7899  0.4315 -0.5825
18988TIP3    H278456   2.573   3.571  13.953  0.9897 -1.5004  2.5224
18989TIP3   OH278457   4.156   1.473   5.949 -0.4969  0.4917 -0.3627
18989TIP3    H178458   4.101   1.394   5.947 -1.7426  1.3600 -0.7873
18989TIP3    H278459   4.196   1.476   5.863  0.7482 -0.5055  0.1715
18990TIP3   OH278460   2.298   4.119   2.373 -0.1592  0.4475 -0.1782
18990TIP3    H178461   2.386   4.114   2.410 -0.1472  1.5443 -0.0391
18990TIP3    H278462   2.242   4.139   2.447 -0.8455 -2.4646  0.1269
18991TIP3   OH278463   0.654   0.952   3.682 -1.0035 -0.1834 -0.1331
18991TIP3    H178464   0.735   0.974   3.729 -0.6632  2.0046 -1.6712
18991TIP3    H278465   0.665   0.859   3.659  0.9741 -0.0009 -0.0816
18992TIP3   OH278466   4.455   3.053   4.551 -0.0830  0.6004 -0.3433
18992TIP3    H178467   4.388   3.025   4.612  0.1338  0.0262 -0.3713
18992TIP3    H278468   4.411   3.116   4.494 -1.1246 -1.2529 -1.6307
18993TIP3   OH278469   3.245   5.966   1.630  0.3521 -0.3602 -0.1517
18993TIP3    H178470   3.176   5.958   1.695  0.2126 -0.2992 -0.2899
18993TIP3    H278471   3.308   5.898   1.653  0.9769  0.5486  0.8536
18994TIP3   OH278472   6.766   4.749   1.145 -0.0018 -0.2903  0.3709
18994TIP3    H178473   6.682   4.794   1.157  0.1854  0.0227  0.5020
18994TIP3    H278474   6.830   4.806   1.188  0.6990  0.9722 -2.2208
18995TIP3   OH278475   2.632   3.396   1.495 -0.1797 -0.1994 -0.0334
18995TIP3    H178476   2.622   3.483   1.456  1.8579  0.0402 -0.0802
18995TIP3    H278477   2.550   3.351   1.476 -0.7088  1.2508 -1.2248
18996TIP3   OH278478   1.719   6.193   5.388  0.7634  0.5194 -0.6642
18996TIP3    H178479   1.795   6.193   5.446 -0.2013  0.3827  0.6447
18996TIP3    H278480   1.682   6.105   5.398 -1.0090  1.3696  0.7201
18997TIP3   OH278481   5.122   6.069   1.910  0.1292  0.0125  0.0164
18997TIP3    H178482   5.194   6.076   1.847 -1.3213  0.7254 -1.6175
18997TIP3    H278483   5.115   6.157   1.947 -1.9149  0.8120 -2.1576
18998TIP3   OH278484   4.523   5.717   3.531  0.0292 -0.1724 -0.3090
18998TIP3    H178485   4.454   5.725   3.596  0.8199 -1.9993  0.7898
18998TIP3    H278486   4.548   5.624   3.533  1.7651  0.2397 -1.4467
18999TIP3   OH278487   4.690   1.202  15.653 -0.0322  0.8110 -0.6485
18999TIP3    H178488   4.653   1.163  15.732  0.4688  0.9239 -0.3537
18999TIP3    H278489   4.637   1.167  15.582 -0.6998  0.9707 -0.2333
19000TIP3   OH278490   0.806   6.543  17.144 -0.2870 -0.3751 -0.3438
19000TIP3    H178491   0.899   6.523  17.156 -0.2314  0.5122  0.8349
19000TIP3    H278492   0.771   6.548  17.233 -1.4152 -0.4801 -0.7691
19001TIP3   OH278493   2.403   4.336   6.423 -0.0253  0.9254  0.1840
19001TIP3    H178494   2.418   4.430   6.433  0.5445  0.9385 -0.7908
19001TIP3    H278495   2.489   4.297   6.437 -0.2088  0.5667  0.3031
19002TIP3   OH278496   1.422   6.064  16.948 -0.6388 -0.4590 -0.1028
19002TIP3    H178497   1.482   5.993  16.923  1.7613  1.5412 -0.2186
19002TIP3    H278498   1.343   6.047  16.897  0.6532 -1.8893 -1.7135
19003TIP3   OH278499   0.121   3.957  13.448  0.6910  0.6278  0.1865
19003TIP3    H178500   0.068   3.913  13.382 -0.4970 -0.1362  1.6244
19003TIP3    H278501   0.145   3.888  13.510  1.5968  1.3716  0.6732
19004TIP3   OH278502   1.615   5.526  12.278  0.4246 -0.5519 -0.0337
19004TIP3    H178503   1.694   5.472  12.276  0.1751 -0.9244  0.3418
19004TIP3    H278504   1.620   5.573  12.361 -0.9449 -2.3494  1.0869
19005TIP3   OH278505   5.502   4.989   1.795  0.1520 -0.4589 -0.2329
19005TIP3    H178506   5.422   4.989   1.849  0.2635  0.2147 -0.0602
19005TIP3    H278507   5.554   5.062   1.829  0.5070 -0.4229 -0.8401
19006TIP3   OH278508   0.498   5.413  12.103  0.5395  0.6729 -0.3425
19006TIP3    H178509   0.582   5.440  12.142  1.1565 -1.0876 -0.4343
19006TIP3    H278510   0.433   5.436  12.169  1.2248  0.8728  0.2759
19007TIP3   OH278511   1.530   1.876  11.931  0.3351  0.2214  0.3821
19007TIP3    H178512   1.533   1.842  12.020  0.5074 -0.8353 -0.0204
19007TIP3    H278513   1.520   1.798  11.876  1.0788  0.7891 -0.5743
19008TIP3   OH278514   3.979   2.679  15.857 -0.3851 -0.1974  0.3197
19008TIP3    H178515   3.906   2.643  15.907 -0.0588 -1.0264  0.2222
19008TIP3    H278516   4.007   2.756  15.907  1.4071 -2.2829  2.7407
19009TIP3   OH278517   1.028   0.502  15.040  0.0245 -0.7189  0.2259
19009TIP3    H178518   1.043   0.538  14.952  0.0991  0.8093  0.8579
19009TIP3    H278519   1.077   0.559  15.098 -2.6985  0.2807  1.6222
19010TIP3   OH278520   5.932   5.465   3.735  0.6469 -0.6990 -0.2226
19010TIP3    H178521   6.011   5.481   3.685  2.4731  0.9985  3.0101
19010TIP3    H278522   5.927   5.370   3.744  3.0456 -0.7835  0.5489
19011TIP3   OH278523   2.544   1.593  16.951  0.0416 -0.0339  0.4444
19011TIP3    H178524   2.458   1.578  16.990 -0.4512 -0.8334 -0.9199
19011TIP3    H278525   2.528   1.595  16.857  1.8105 -2.1416  0.0566
19012TIP3   OH278526   1.170   2.260  15.815  0.3164  0.1691  0.0135
19012TIP3    H178527   1.135   2.187  15.866 -1.0257  0.6655 -0.1663
19012TIP3    H278528   1.117   2.261  15.735 -0.5234  2.1018  0.5604
19013TIP3   OH278529   0.498   1.800   0.555 -0.5295 -0.6868 -0.3859
19013TIP3    H178530   0.476   1.882   0.509  1.7590 -0.0631 -0.4345
19013TIP3    H278531   0.455   1.732   0.504 -1.1817  0.3503 -1.2529
19014TIP3   OH278532   3.442   6.515  12.516  0.2355  0.1453  0.5068
19014TIP3    H178533   3.482   6.525  12.603 -0.2604  0.3902  0.7080
19014TIP3    H278534   3.511   6.476  12.463  0.7099  0.4554  0.8811
19015TIP3   OH278535   0.577   5.458   5.104  0.1084  0.1576 -0.4461
19015TIP3    H178536   0.665   5.419   5.105 -0.2259 -0.6101 -0.4636
19015TIP3    H278537   0.590   5.546   5.138  0.8336 -0.0696 -0.1109
19016TIP3   OH278538   2.370   5.450  11.504 -0.3370 -0.2093 -0.5523
19016TIP3    H178539   2.318   5.386  11.553  2.7757 -2.3120  0.1514
19016TIP3    H278540   2.395   5.515  11.569  1.6970 -1.6660  0.1719
19017TIP3   OH278541   0.465   4.672  12.367 -0.0179 -0.0245  0.4053
19017TIP3    H178542   0.458   4.580  12.394 -0.2483  0.1774  1.0442
19017TIP3    H278543   0.384   4.689  12.319  0.9947 -0.7783 -1.6675
19018TIP3   OH278544   0.282   0.861  15.463 -0.8495 -0.2878  0.0998
19018TIP3    H178545   0.321   0.917  15.396 -1.5838 -0.7490 -0.7268
19018TIP3    H278546   0.201   0.828  15.423 -1.4194 -0.3802  1.3001
19019TIP3   OH278547   2.599   2.592  11.712  0.1865 -0.7862 -0.1837
19019TIP3    H178548   2.543   2.668  11.695  1.4202  0.3051  0.5406
19019TIP3    H278549   2.570   2.560  11.798 -0.2706 -1.0744 -0.4457
19020TIP3   OH278550   0.297   6.194  11.911 -0.6036 -0.0479  0.2798
19020TIP3    H178551   0.293   6.276  11.863 -0.9368 -0.8488 -1.0958
19020TIP3    H278552   0.348   6.135  11.854 -1.4189 -1.1586  0.6697
19021TIP3   OH278553   4.859   5.642  13.235  0.5391 -0.0285 -0.5494
19021TIP3    H178554   4.912   5.586  13.179 -0.2231 -0.6138 -0.6957
19021TIP3    H278555   4.769   5.626  13.206  0.2006  0.2155  0.3644
19022TIP3   OH278556   5.418   6.648   1.978 -0.3482 -0.3325 -0.2475
19022TIP3    H178557   5.402   6.601   1.897  0.2867  1.0775 -1.2118
19022TIP3    H278558   5.335   6.643   2.026 -1.9629  1.9861 -2.6338
19023TIP3   OH278559   5.727   5.410  14.439  0.0379 -0.4471 -0.1381
19023TIP3    H178560   5.806   5.456  14.465 -0.6401  0.7728 -0.2009
19023TIP3    H278561   5.721   5.335  14.499  0.0374  0.7088  1.3133
19024TIP3   OH278562   0.545   6.406  16.030 -0.2885 -0.0691  0.1488
19024TIP3    H178563   0.460   6.375  16.061  0.2214 -0.5402  1.1358
19024TIP3    H278564   0.531   6.496  16.003 -0.5803  0.6552  2.6341
19025TIP3   OH278565   2.151   4.854  13.300  0.2721 -0.0277 -0.0617
19025TIP3    H178566   2.145   4.929  13.359  0.4194  0.2277 -0.3639
19025TIP3    H278567   2.124   4.889  13.215 -1.0587 -0.6761  0.0875
19026TIP3   OH278568   3.206   5.457   5.414  0.0688  0.0496 -0.1543
19026TIP3    H178569   3.151   5.410   5.352 -1.5812  2.7464 -0.8255
19026TIP3    H278570   3.186   5.417   5.499 -0.9428 -0.7700 -0.7650
19027TIP3   OH278571   4.153   6.624  16.644  0.1370 -0.1949 -0.0377
19027TIP3    H178572   4.229   6.578  16.678  1.4182  1.7198 -0.2698
19027TIP3    H278573   4.139   6.696  16.704 -0.4132  0.4885 -0.9653
19028TIP3   OH278574   3.343   5.496   0.749 -0.0916  0.2962  0.8040
19028TIP3    H178575   3.408   5.452   0.805  2.1539  1.1777 -1.0539
19028TIP3    H278576   3.381   5.581   0.730 -1.2798  0.4028 -1.2745
19029TIP3   OH278577   1.435   6.293  12.076  0.7019  0.0681 -0.1076
19029TIP3    H178578   1.374   6.338  12.017  0.5256  0.5177  0.4012
19029TIP3    H278579   1.378   6.256  12.144  0.9704  0.2524  0.2189
19030TIP3   OH278580   1.624   2.473   0.948  0.4716 -0.0188 -0.2398
19030TIP3    H178581   1.573   2.392   0.946  0.1500  0.0400  2.8297
19030TIP3    H278582   1.561   2.542   0.928  0.3316 -0.3586 -0.9754
19031TIP3   OH278583   5.195   2.275   2.831 -0.3092 -0.1061 -0.0293
19031TIP3    H178584   5.104   2.304   2.823  0.2435  1.4010 -1.0395
19031TIP3    H278585   5.238   2.345   2.881  0.7959  0.3015 -1.5263
19032TIP3   OH278586   3.716   4.058  12.519  0.1203  0.1803 -0.3775
19032TIP3    H178587   3.659   4.129  12.490 -1.0273 -0.3606  0.5224
19032TIP3    H278588   3.690   3.983  12.465  0.8317  0.2512 -0.8248
19033TIP3   OH278589   1.437   1.018  16.596 -0.5095  0.2794 -0.4263
19033TIP3    H178590   1.462   1.096  16.646 -0.5092  0.8662 -1.3210
19033TIP3    H278591   1.369   0.976  16.648 -0.0169  0.5024  0.3963
19034TIP3   OH278592   6.548   1.568  12.975  0.0828 -0.1851  0.1027
19034TIP3    H178593   6.536   1.561  12.881  0.2151 -1.0339  0.1440
19034TIP3    H278594   6.471   1.615  13.006  0.1595  0.3096 -0.4583
19035TIP3   OH278595   5.124   6.054  16.793 -0.1429 -1.1985 -0.5591
19035TIP3    H178596   5.194   6.066  16.857 -0.2896  1.7161 -0.8662
19035TIP3    H278597   5.057   6.004  16.839  1.1493 -1.9758  0.4880
19036TIP3   OH278598   6.680   0.107  16.503  0.1146  0.0165  0.3818
19036TIP3    H178599   6.683   0.061  16.587  1.0948 -0.1246  0.2844
19036TIP3    H278600   6.609   0.170  16.512  0.3895  0.1864  1.4210
19037TIP3   OH278601   1.049   4.577  13.959 -0.8449 -0.1563  0.7193
19037TIP3    H178602   1.116   4.644  13.959 -0.8670 -0.1340  0.9242
19037TIP3    H278603   1.093   4.499  13.924  0.1713 -1.0166  3.7985
19038TIP3   OH278604   2.323   2.573   6.309 -0.0917 -0.0193 -0.0708
19038TIP3    H178605   2.339   2.641   6.375 -2.2628 -1.8721  2.4861
19038TIP3    H278606   2.228   2.565   6.305  0.0926 -1.9966 -1.2900
19039TIP3   OH278607   2.224   4.958  11.282  0.2728  0.2987  0.1726
19039TIP3    H178608   2.169   5.035  11.265  1.9834  1.6266  0.5026
19039TIP3    H278609   2.161   4.887  11.298 -1.3312  1.2110 -1.8795
19040TIP3   OH278610   1.025   1.016   0.045 -0.4075 -0.3008 -0.2109
19040TIP3    H178611   0.945   0.965   0.058 -1.2522  1.5078  2.2254
19040TIP3    H278612   0.994   1.096   0.002 -0.1537  0.9607  1.8852
19041TIP3   OH278613   2.924   5.269  17.276  0.5386 -0.7782  0.0131
19041TIP3    H178614   3.015   5.296  17.259 -0.3193  0.9856 -2.0563
19041TIP3    H278615   2.876   5.351  17.283 -1.0893 -1.7123 -0.0278
19042TIP3   OH278616   0.156   2.290  16.423  0.0798 -0.0468 -0.1081
19042TIP3    H178617   0.172   2.208  16.470 -0.0223 -0.5988 -1.0182
19042TIP3    H278618   0.191   2.275  16.335 -2.1084 -0.0103 -1.0483
19043TIP3   OH278619   0.015   6.808  15.632 -0.6207  0.3409 -0.2640
19043TIP3    H178620   0.087   6.833  15.690 -0.8829  0.7682 -0.1257
19043TIP3    H278621  -0.050   6.876  15.643 -1.5098 -0.6051  0.4029
19044TIP3   OH278622   3.460   5.652  11.926  0.0238 -0.1912 -0.2681
19044TIP3    H178623   3.551   5.628  11.905  0.0952 -0.0498 -0.1213
19044TIP3    H278624   3.412   5.637  11.845  0.6390  2.0722 -1.0764
19045TIP3   OH278625   2.637   1.554  11.502 -0.2239 -0.1252  0.3079
19045TIP3    H178626   2.663   1.646  11.506 -0.1244 -0.1120 -0.5166
19045TIP3    H278627   2.717   1.507  11.479 -0.8101 -0.1322 -1.7903
19046TIP3   OH278628   2.132   1.584  12.377 -0.2974  0.2188 -0.0204
19046TIP3    H178629   2.079   1.545  12.307 -1.6448  1.2850  0.3780
19046TIP3    H278630   2.222   1.568  12.351 -0.8022 -1.1291 -1.0131
19047TIP3   OH278631   1.207   4.682   3.341  0.2362 -0.0605  0.0343
19047TIP3    H178632   1.249   4.709   3.259  1.1989  0.3993  0.6632
19047TIP3    H278633   1.146   4.613   3.316  0.2888  0.3076 -1.1166
19048TIP3   OH278634   0.878   6.578  10.868  0.0282  0.2097  0.1011
19048TIP3    H178635   0.791   6.599  10.836  0.1183  0.8941  0.2866
19048TIP3    H278636   0.929   6.559  10.790 -0.4086 -0.6791  0.0243
19049TIP3   OH278637   1.586   5.559   4.281 -0.3173  0.1801 -0.2516
19049TIP3    H178638   1.494   5.557   4.255 -0.1166 -0.5101 -0.9186
19049TIP3    H278639   1.610   5.467   4.293 -0.3652  0.4601  2.2475
19050TIP3   OH278640   0.468   2.481  16.573 -0.4661 -0.1031 -0.1263
19050TIP3    H178641   0.555   2.519  16.571  0.1034 -1.4389 -1.3783
19050TIP3    H278642   0.482   2.390  16.601 -1.5924  0.0218  0.9119
19051TIP3   OH278643   2.293   3.801  15.156 -0.0477  0.0324  0.2187
19051TIP3    H178644   2.339   3.736  15.210  0.3450  1.4435  1.5884
19051TIP3    H278645   2.313   3.774  15.066  0.8094 -1.2555  0.7719
19052TIP3   OH278646   5.373   3.165   0.657 -0.3508  0.3915 -0.7884
19052TIP3    H178647   5.409   3.086   0.618 -0.9876 -0.2656 -0.0416
19052TIP3    H278648   5.410   3.236   0.604  1.4843 -0.2942 -0.4605
19053TIP3   OH278649   4.446   4.347   4.992 -0.1716 -0.3859 -0.2846
19053TIP3    H178650   4.421   4.270   4.939 -1.0724  0.3437 -0.9400
19053TIP3    H278651   4.492   4.310   5.067  0.5219 -1.4917 -1.2312
19054TIP3   OH278652   6.531   2.147  13.270  0.3703  0.3730  0.3918
19054TIP3    H178653   6.435   2.141  13.273  0.3053  1.4004  0.5672
19054TIP3    H278654   6.561   2.067  13.314 -0.4047 -0.0201  0.2181
19055TIP3   OH278655   1.327   6.119  15.861  0.5267 -0.0176 -0.0286
19055TIP3    H178656   1.398   6.057  15.850 -0.6398 -1.5010  0.6245
19055TIP3    H278657   1.267   6.100  15.788 -0.3491 -0.3965  0.7734
19056TIP3   OH278658   0.993   5.519   2.906 -0.4227 -0.0947 -0.0900
19056TIP3    H178659   0.944   5.461   2.964  0.4576 -1.9330 -1.1471
19056TIP3    H278660   1.083   5.511   2.935 -0.2917  0.7844 -0.2362
19057TIP3   OH278661   0.685   4.984  11.185  0.1433 -0.0020  0.4917
19057TIP3    H178662   0.731   5.067  11.199 -1.0380  0.6684  0.4085
19057TIP3    H278663   0.618   5.004  11.120 -0.3960 -0.9251  0.7525
19058TIP3   OH278664   3.984   3.264  16.338  0.6755  0.5223 -0.1293
19058TIP3    H178665   3.952   3.191  16.284 -0.5789  0.0962  1.1407
19058TIP3    H278666   3.915   3.330  16.331  1.0832  0.9520 -0.0406
19059TIP3   OH278667   3.236   1.187  11.868  0.5891  0.1392 -0.0539
19059TIP3    H178668   3.250   1.105  11.821  0.0486 -0.5584  0.9909
19059TIP3    H278669   3.324   1.218  11.889  0.8438  0.4908 -1.5448
19060TIP3   OH278670   2.885   2.439  15.812 -0.0061 -0.3963  0.2112
19060TIP3    H178671   2.915   2.444  15.902  1.1031 -1.8297 -0.0574
19060TIP3    H278672   2.790   2.450  15.817  0.2603  1.6781  1.3184
19061TIP3   OH278673   0.727   2.909  16.369  0.1016  0.0940 -0.1851
19061TIP3    H178674   0.784   2.842  16.407 -0.8199  0.6449  2.3090
19061TIP3    H278675   0.785   2.983  16.354 -0.1429  1.2936  4.0090
19062TIP3   OH278676   2.793   0.098  13.467 -0.5958  0.7248 -0.0297
19062TIP3    H178677   2.726   0.150  13.511  0.5468  1.6907  0.6165
19062TIP3    H278678   2.773   0.008  13.489 -0.8295  1.1093  1.3602
19063TIP3   OH278679   5.949   1.390  12.054 -0.4241 -0.1056 -0.4771
19063TIP3    H178680   5.946   1.305  12.097  0.2078  0.2902  0.3505
19063TIP3    H278681   5.963   1.369  11.961  2.3795 -0.8337  0.0712
19064TIP3   OH278682   3.748   1.637   0.233 -0.5209 -0.0047 -0.6468
19064TIP3    H178683   3.709   1.604   0.152  1.6244 -1.5210 -1.1028
19064TIP3    H278684   3.842   1.634   0.217 -0.1469  2.3619  0.8944
19065TIP3   OH278685   4.361   4.557   0.829 -0.5335 -0.2701  0.2719
19065TIP3    H178686   4.282   4.556   0.775 -0.8303 -0.6071  0.7063
19065TIP3    H278687   4.371   4.467   0.860 -0.3157 -0.1007  0.7029
19066TIP3   OH278688   0.947   2.480  11.806 -0.3904 -0.2345  0.2885
19066TIP3    H178689   0.906   2.555  11.764  0.3394  0.2596  0.4466
19066TIP3    H278690   0.934   2.496  11.900  2.4001  1.2752  0.4904
19067TIP3   OH278691   3.913   6.032   5.522 -0.5580 -0.0360  0.2442
19067TIP3    H178692   3.952   6.032   5.609 -0.2939 -1.0092  0.1385
19067TIP3    H278693   3.950   5.954   5.480 -1.4040 -0.0988 -0.3978
19068TIP3   OH278694   0.741   5.626   5.612 -0.2200 -0.7194 -0.1869
19068TIP3    H178695   0.657   5.640   5.656  0.4024  0.0245  0.8086
19068TIP3    H278696   0.785   5.711   5.618  1.1272 -1.4542  0.4649
19069TIP3   OH278697   6.461   5.691   0.063 -0.0307  0.1513  0.1794
19069TIP3    H178698   6.406   5.754   0.016  0.6911  0.3610 -0.3805
19069TIP3    H278699   6.399   5.625   0.095 -0.6817  0.6848  0.0260
19070TIP3   OH278700   5.512   0.009   5.877  0.0380  0.9321 -0.5535
19070TIP3    H178701   5.495   0.096   5.911  1.1830  0.7775  0.4823
19070TIP3    H278702   5.482  -0.050   5.946 -1.4032  0.4655 -1.5492
19071TIP3   OH278703   4.230   1.137   1.020  0.3924  0.1058 -0.2720
19071TIP3    H178704   4.324   1.156   1.019  0.0904  1.7086 -0.0623
19071TIP3    H278705   4.194   1.200   1.082 -0.6710 -1.2863  0.5437
19072TIP3   OH278706   0.505   6.319  13.430  0.2972  0.3899  0.5865
19072TIP3    H178707   0.546   6.233  13.422 -0.8816 -0.1901  0.7422
19072TIP3    H278708   0.503   6.336  13.524 -0.3986  0.1362  0.6192
19073TIP3   OH278709   6.266   5.985   0.811 -0.3307  0.5528  0.4499
19073TIP3    H178710   6.178   5.969   0.776  1.2234 -0.4966 -3.2356
19073TIP3    H278711   6.286   6.075   0.785  0.2105  0.3117  0.0186
19074TIP3   OH278712   0.864   0.436   1.042 -0.0657 -0.5781 -0.3514
19074TIP3    H178713   0.896   0.370   0.980 -1.6855 -1.5719 -0.1674
19074TIP3    H278714   0.931   0.440   1.110  1.3158 -0.0952 -1.7305
19075TIP3   OH278715   3.130   0.820   3.695 -0.0291  0.7394  0.5227
19075TIP3    H178716   3.083   0.738   3.685  1.0421 -0.0487  1.8113
19075TIP3    H278717   3.127   0.838   3.789  0.8317  1.5115  0.4079
19076TIP3   OH278718   5.764   4.635  14.226  0.5942  0.1115  0.1455
19076TIP3    H178719   5.741   4.630  14.133  0.0830  1.0271  0.2235
19076TIP3    H278720   5.697   4.582  14.270  3.0586 -3.6500 -0.3527
19077TIP3   OH278721   4.784   4.804  16.665 -0.1313  0.1966  0.2941
19077TIP3    H178722   4.839   4.741  16.711 -2.7336 -3.8090 -1.8368
19077TIP3    H278723   4.817   4.804  16.575 -0.1086  1.9890  0.2809
19078TIP3   OH278724   1.534   5.527  13.213  0.5843  0.2645 -0.0033
19078TIP3    H178725   1.564   5.591  13.277  0.2873  1.0378 -0.6301
19078TIP3    H278726   1.611   5.510  13.158  1.2214 -1.4315  1.3958
19079TIP3   OH278727   4.795   1.685  14.858 -0.0155 -0.2947 -0.2783
19079TIP3    H178728   4.833   1.615  14.911  0.5803 -0.1494 -0.5081
19079TIP3    H278729   4.747   1.640  14.789 -0.3125 -0.4822  0.0516
19080TIP3   OH278730   1.061   5.423  11.529 -0.6243  0.3393  0.6116
19080TIP3    H178731   0.989   5.394  11.472 -0.1984  0.8144 -0.1880
19080TIP3    H278732   1.140   5.406  11.478 -0.1945  0.2120  1.3158
19081TIP3   OH278733   6.367   3.191   4.658 -0.3145  0.3468  0.4564
19081TIP3    H178734   6.351   3.249   4.732 -0.1357  0.1742  0.6316
19081TIP3    H278735   6.279   3.162   4.631 -0.3161 -0.4893  1.3288
19082TIP3   OH278736   2.157   2.127  10.457 -0.1282  0.0624  0.6408
19082TIP3    H178737   2.245   2.100  10.431  0.2580 -1.6786  3.5428
19082TIP3    H278738   2.150   2.218  10.427  1.9324 -0.3431 -1.2444
19083TIP3   OH278739   0.365   5.572   1.226  0.0656 -0.0060  0.1825
19083TIP3    H178740   0.341   5.618   1.145 -0.6560 -0.5155  0.1067
19083TIP3    H278741   0.282   5.560   1.272  0.1995 -1.5257  0.0482
19084TIP3   OH278742   0.662   6.256  16.239 -0.0904 -0.0466 -0.1803
19084TIP3    H178743   0.746   6.303  16.240  0.8595 -1.6991  0.8624
19084TIP3    H278744   0.611   6.300  16.172  1.4241  1.3429 -0.4645
19085TIP3   OH278745   4.592   3.007  14.565  0.5272 -0.2842 -0.2557
19085TIP3    H178746   4.617   3.088  14.610 -0.2398  0.7901 -1.7469
19085TIP3    H278747   4.498   2.999  14.582  0.4317 -0.3970 -0.8494
19086TIP3   OH278748   0.192   2.005   1.830  0.0895  0.2704 -1.0625
19086TIP3    H178749   0.200   2.089   1.785 -0.5320  0.2252 -1.2615
19086TIP3    H278750   0.104   1.974   1.808  0.0919 -0.1491 -0.4991
19087TIP3   OH278751   2.603   1.344   5.097 -0.1702 -0.7733  0.0712
19087TIP3    H178752   2.610   1.347   5.002 -1.6427  1.6501  0.0215
19087TIP3    H278753   2.686   1.380   5.129 -0.4279  0.1466 -0.3029
19088TIP3   OH278754   4.504   3.405   2.799 -0.3557 -0.4675 -0.0032
19088TIP3    H178755   4.434   3.462   2.770  1.5941  0.7853 -2.4047
19088TIP3    H278756   4.464   3.318   2.805 -1.9835  0.1495 -1.7318
19089TIP3   OH278757   3.965   0.313  16.203 -0.2366 -0.2885 -1.0611
19089TIP3    H178758   3.994   0.289  16.292  0.2232 -0.1359 -1.1667
19089TIP3    H278759   3.953   0.229  16.159 -0.9417 -0.3784 -0.7070
19090TIP3   OH278760   2.169   0.111  12.843 -0.5540 -0.4423 -0.5865
19090TIP3    H178761   2.217   0.055  12.783  0.7676 -1.4235  1.3618
19090TIP3    H278762   2.095   0.058  12.872  1.4120 -1.7194  2.2642
19091TIP3   OH278763   5.311   6.266  15.187  0.0608  0.6240 -0.0147
19091TIP3    H178764   5.319   6.313  15.270 -1.5865  0.8256  0.0454
19091TIP3    H278765   5.401   6.253  15.158  0.6656  0.4586  1.8519
19092TIP3   OH278766   4.718   2.699   5.007  0.1795 -0.5120  0.2844
19092TIP3    H178767   4.638   2.650   5.029  0.8758 -1.6511  0.3400
19092TIP3    H278768   4.725   2.765   5.076 -0.4019 -0.7954  0.6252
19093TIP3   OH278769   3.407   1.484  14.669 -0.9688  0.4593  0.1698
19093TIP3    H178770   3.337   1.439  14.714 -0.7871 -1.1373 -1.1162
19093TIP3    H278771   3.448   1.539  14.737 -1.3150 -1.1417  1.6940
19094TIP3   OH278772   5.089   1.355   5.053 -0.6967 -0.0733 -0.3961
19094TIP3    H178773   5.042   1.382   4.974 -0.3195 -1.3870 -1.0883
19094TIP3    H278774   5.176   1.332   5.022 -1.1848 -2.6720  0.0389
19095TIP3   OH278775   3.064   3.570  11.342  0.5887  0.2726  0.1532
19095TIP3    H178776   2.978   3.607  11.323  0.5959  0.3163  0.2057
19095TIP3    H278777   3.097   3.622  11.416  0.6519  0.2443  0.1438
19096TIP3   OH278778   1.014   3.042  13.460 -0.3237  0.3581 -0.2239
19096TIP3    H178779   0.989   3.048  13.552 -1.2153  0.0148 -0.4390
19096TIP3    H278780   1.028   3.133  13.433 -1.1620  0.5431 -0.0469
19097TIP3   OH278781   3.204   0.815  17.086  0.0581 -0.2553 -0.2453
19097TIP3    H178782   3.119   0.858  17.097 -0.3051 -1.0896  0.2986
19097TIP3    H278783   3.254   0.841  17.164 -0.1040 -0.6778  0.0023
19098TIP3   OH278784   2.573   0.616   3.949  0.3031  0.2658  0.1620
19098TIP3    H178785   2.541   0.651   3.865 -0.0816  1.3164  0.7368
19098TIP3    H278786   2.566   0.690   4.009 -0.5876 -0.8302  1.4221
19099TIP3   OH278787   5.978   5.552  12.435 -0.4308  0.5939  0.0209
19099TIP3    H178788   6.003   5.482  12.375 -0.5489  0.9960 -0.5087
19099TIP3    H278789   5.918   5.511  12.497  1.8088 -0.4554  1.5271
19100TIP3   OH278790   1.645   3.858   3.590 -0.0961  0.6906  0.3448
19100TIP3    H178791   1.628   3.764   3.597  1.0850  0.5190  0.9684
19100TIP3    H278792   1.703   3.877   3.663 -0.0121  1.8351 -0.0214
19101TIP3   OH278793   6.164   2.871  16.501 -0.6152 -0.0491  0.1736
19101TIP3    H178794   6.213   2.906  16.576 -0.0091 -0.9916  0.2227
19101TIP3    H278795   6.190   2.779  16.496 -2.6467 -0.6617  0.4207
19102TIP3   OH278796   0.289   4.511  13.543  0.2690  0.4637 -0.3684
19102TIP3    H178797   0.309   4.418  13.534 -1.1855  0.1612 -0.6328
19102TIP3    H278798   0.203   4.513  13.585 -0.0179  1.6892 -1.0021
19103TIP3   OH278799   6.171   0.252   1.681 -0.2349  0.0414  0.0274
19103TIP3    H178800   6.202   0.166   1.710  1.0217  1.5182  3.2804
19103TIP3    H278801   6.083   0.260   1.718  0.3908  0.9165  1.3467
19104TIP3   OH278802   6.201   4.813  10.803  0.2042  0.0014 -0.3224
19104TIP3    H178803   6.269   4.865  10.845  0.0348  0.1036 -0.1738
19104TIP3    H278804   6.144   4.878  10.760 -0.8258  0.0380  1.0630
19105TIP3   OH278805   2.777   1.616   5.307  0.4186 -0.2565 -0.0765
19105TIP3    H178806   2.793   1.527   5.339 -0.9128 -0.0249  1.2464
19105TIP3    H278807   2.769   1.670   5.385  2.7270  1.3459 -0.8751
19106TIP3   OH278808   6.014   2.806  12.546  0.1425  0.4899  0.0219
19106TIP3    H178809   6.065   2.746  12.492  0.5544  1.4639 -0.6964
19106TIP3    H278810   5.948   2.842  12.486  1.5615  2.7147 -0.2276
19107TIP3   OH278811   3.380   2.868   4.841 -0.2178 -0.6500 -0.3920
19107TIP3    H178812   3.379   2.924   4.763 -0.2149 -0.4099 -0.2196
19107TIP3    H278813   3.432   2.917   4.905  0.2559 -1.1073 -0.4308
19108TIP3   OH278814   6.551   0.506   2.824  0.1869 -0.4913 -0.2079
19108TIP3    H178815   6.543   0.493   2.730 -0.5023  1.5218 -0.4392
19108TIP3    H278816   6.489   0.443   2.862  1.1766 -1.9937 -1.0267
19109TIP3   OH278817   1.931   5.109   0.437 -0.0845 -0.4372 -0.3418
19109TIP3    H178818   1.948   5.043   0.504  0.7478  1.3099  1.2045
19109TIP3    H278819   1.940   5.062   0.354  2.0474 -1.9150  0.6983
19110TIP3   OH278820   4.595   3.413  13.912 -0.0616 -0.0512 -0.1588
19110TIP3    H178821   4.505   3.432  13.888 -1.4046 -2.6289  2.4799
19110TIP3    H278822   4.613   3.471  13.987  0.2291 -0.0828 -0.2007
19111TIP3   OH278823   0.810   3.873  15.798 -0.4402  0.0197 -0.4988
19111TIP3    H178824   0.762   3.923  15.864  1.0137 -1.4198  1.7020
19111TIP3    H278825   0.752   3.871  15.722 -1.7017  2.5901  0.3762
19112TIP3   OH278826   1.426   1.980  11.414 -0.1188  0.5293  0.1129
19112TIP3    H178827   1.409   1.955  11.505 -0.5548  0.3118 -0.0267
19112TIP3    H278828   1.505   1.933  11.390 -0.5950 -0.2517  0.0483
19113TIP3   OH278829   6.473   1.885  16.710  0.1373 -0.3436  0.4385
19113TIP3    H178830   6.467   1.880  16.806  0.1477  1.2170  0.5403
19113TIP3    H278831   6.403   1.946  16.685 -1.0932 -2.1976 -0.7317
19114TIP3   OH278832   1.414   1.617   2.755 -0.3679 -0.1283 -0.0618
19114TIP3    H178833   1.478   1.680   2.789  0.5380 -0.6762 -0.7159
19114TIP3    H278834   1.339   1.671   2.731  0.3165  0.6919 -0.4170
19115TIP3   OH278835   2.165   5.050  14.805  0.3065 -0.1667 -0.5221
19115TIP3    H178836   2.237   4.993  14.780  0.4104 -0.3922  0.2791
19115TIP3    H278837   2.194   5.137  14.781  1.0067 -0.2102  0.1447
19116TIP3   OH278838   5.966   1.898  16.535 -0.5464  0.0075  0.2077
19116TIP3    H178839   5.938   1.953  16.462 -0.3252 -0.7955 -0.4907
19116TIP3    H278840   5.891   1.840  16.552 -0.2629 -0.4212  0.0129
19117TIP3   OH278841   4.664   3.551  15.607  0.1844  0.1579 -0.6328
19117TIP3    H178842   4.584   3.552  15.554  0.7944 -1.1946 -1.6221
19117TIP3    H278843   4.712   3.629  15.578 -0.0489  0.1018 -1.1945
19118TIP3   OH278844   0.034   2.779   3.066 -0.5564 -0.2723 -0.2713
19118TIP3    H178845   0.014   2.705   3.123 -0.6428 -0.4476 -0.5336
19118TIP3    H278846   0.017   2.748   2.978 -0.1852 -0.0711 -0.4136
19119TIP3   OH278847   2.779   4.831   2.719 -0.4522  0.4559 -0.3383
19119TIP3    H178848   2.778   4.800   2.810 -2.7395  1.4886  0.0143
19119TIP3    H278849   2.689   4.819   2.689  0.3774 -0.2405 -2.6143
19120TIP3   OH278850   5.735   5.194   3.920  0.2877  0.1402  0.8168
19120TIP3    H178851   5.684   5.124   3.960 -0.3324 -0.4540 -0.9949
19120TIP3    H278852   5.676   5.270   3.918  0.0071 -0.0914  0.1976
19121TIP3   OH278853   3.302   6.187  14.224  0.1887  0.5178 -0.4077
19121TIP3    H178854   3.312   6.092  14.217  0.6105  0.4762  0.6753
19121TIP3    H278855   3.324   6.220  14.137 -0.5011 -0.4207 -0.9537
19122TIP3   OH278856   4.650   0.215  13.399  0.1918 -0.8156  0.7653
19122TIP3    H178857   4.739   0.237  13.428  1.1383  0.8096 -3.0558
19122TIP3    H278858   4.596   0.287  13.430  0.9709  0.2957 -0.3925
19123TIP3   OH278859   5.065   4.424  10.965  0.8398 -0.0089 -0.7167
19123TIP3    H178860   5.133   4.481  10.929  0.1815  0.5198 -1.1406
19123TIP3    H278861   5.053   4.454  11.055  1.0845 -0.0264 -0.6789
19124TIP3   OH278862   4.058   4.016   5.139 -0.2006 -0.2092 -0.3921
19124TIP3    H178863   4.072   4.079   5.068 -1.7289 -1.3036 -1.6926
19124TIP3    H278864   4.051   4.071   5.218 -0.2055  1.1404 -1.3111
19125TIP3   OH278865   2.867   5.989   3.654  0.3555 -0.5678 -0.1778
19125TIP3    H178866   2.924   5.963   3.727 -0.2372 -0.2240  0.4159
19125TIP3    H278867   2.886   5.926   3.585  1.5526 -0.3720 -0.0315
19126TIP3   OH278868   0.350   5.483  14.358  0.2946 -0.5916  0.5616
19126TIP3    H178869   0.301   5.483  14.441 -1.8628  0.7832 -0.6628
19126TIP3    H278870   0.338   5.571  14.323  2.7164 -0.6026 -0.3626
19127TIP3   OH278871   1.434   4.697  15.208  0.1397 -0.2364 -0.2100
19127TIP3    H178872   1.500   4.631  15.191  0.4801 -0.0864  0.5421
19127TIP3    H278873   1.437   4.755  15.132  1.2221  0.0597  0.0581
19128TIP3   OH278874   0.828   1.247  13.352  0.8161  0.5499  0.2025
19128TIP3    H178875   0.806   1.334  13.320 -2.8804 -1.1160 -2.1951
19128TIP3    H278876   0.877   1.207  13.279 -0.5248 -0.4947 -0.1582
19129TIP3   OH278877   2.528   6.435   0.511 -0.1564 -0.0036 -0.1541
19129TIP3    H178878   2.458   6.406   0.568  1.1854 -0.5159  1.2667
19129TIP3    H278879   2.581   6.494   0.565  0.6588  0.1710 -1.1117
19130TIP3   OH278880   5.079   4.539  12.055  0.1664  0.5540  0.0951
19130TIP3    H178881   5.102   4.454  12.092  2.5701 -0.4450 -3.4383
19130TIP3    H278882   4.989   4.528  12.023  0.1428 -0.3752  0.4711
19131TIP3   OH278883   1.750   2.602   6.154  0.1241  0.1846 -0.6677
19131TIP3    H178884   1.656   2.604   6.173 -0.1236 -1.5400 -1.6275
19131TIP3    H278885   1.763   2.523   6.102  2.1787  0.1898 -0.2241
19132TIP3   OH278886   5.913   3.251  11.928  0.0932  0.1997  0.2065
19132TIP3    H178887   5.836   3.307  11.941  0.9588  1.6831 -0.8522
19132TIP3    H278888   5.914   3.194  12.004 -0.8313  1.6454  1.3365
19133TIP3   OH278889   3.344   5.709   1.166 -0.0173 -0.5285 -0.1824
19133TIP3    H178890   3.280   5.773   1.137  0.4200  0.7850  1.6651
19133TIP3    H278891   3.343   5.715   1.261  1.4412 -1.8783 -0.0581
19134TIP3   OH278892   0.302   3.339   5.512 -0.3113  0.4348  0.2899
19134TIP3    H178893   0.383   3.349   5.562  0.1519  1.3271 -0.6136
19134TIP3    H278894   0.305   3.409   5.447 -2.3927  1.2376  1.0021
19135TIP3   OH278895   1.365   5.654   2.812 -0.5979 -0.4808  0.6042
19135TIP3    H178896   1.283   5.687   2.848 -1.2081  0.8586 -1.8896
19135TIP3    H278897   1.428   5.724   2.825 -1.1060  0.4928 -1.8362
19136TIP3   OH278898   6.119   1.565  11.608  0.1301  0.3316  0.4358
19136TIP3    H178899   6.065   1.528  11.538 -0.4637  2.4378 -0.2300
19136TIP3    H278900   6.206   1.572  11.570  0.3616 -0.8236  0.7295
19137TIP3   OH278901   0.218   5.251   4.217  0.0175  0.3590 -0.1915
19137TIP3    H178902   0.135   5.290   4.245  0.0363  0.0336  0.3123
19137TIP3    H278903   0.271   5.326   4.189  0.5975  0.8682  2.1769
19138TIP3   OH278904   4.910   4.871  11.781  0.1007 -0.2589  0.1657
19138TIP3    H178905   4.965   4.850  11.856  0.3433 -0.0248  0.0548
19138TIP3    H278906   4.823   4.887  11.818 -0.0519 -1.3194  0.2667
19139TIP3   OH278907   1.885   5.538  14.900 -0.9031 -0.3357 -0.1597
19139TIP3    H178908   1.798   5.555  14.863 -1.4201  0.8063  1.5017
19139TIP3    H278909   1.867   5.497  14.984  0.1233  1.1665  0.8133
19140TIP3   OH278910   0.178   3.972   1.223 -0.0530  0.2155  0.1084
19140TIP3    H178911   0.159   4.064   1.208 -3.6372 -0.6428 -1.2214
19140TIP3    H278912   0.200   3.937   1.137  0.4957 -0.3461  0.4686
19141TIP3   OH278913   4.071   3.301   1.364 -0.0229  0.5444 -0.5759
19141TIP3    H178914   4.052   3.325   1.455  0.5432 -0.9378 -0.0640
19141TIP3    H278915   3.995   3.250   1.336  0.0814  0.4908 -0.7613
19142TIP3   OH278916   0.945   4.032   5.852 -0.2848 -0.0571 -0.4801
19142TIP3    H178917   0.960   3.996   5.765  0.2218  0.1950 -0.4975
19142TIP3    H278918   1.017   4.093   5.866 -1.0716  0.8610 -0.4007
19143TIP3   OH278919   6.584   5.528  13.299 -0.4689  0.6302 -0.3109
19143TIP3    H178920   6.503   5.574  13.322 -0.2244  0.3227  1.2099
19143TIP3    H278921   6.596   5.546  13.206 -1.0813  2.5474 -0.0330
19144TIP3   OH278922   5.717   2.393  10.569 -0.2425  0.7296 -0.1675
19144TIP3    H178923   5.712   2.300  10.592 -0.7883  0.7713 -0.1168
19144TIP3    H278924   5.654   2.436  10.626 -0.7763  0.9881 -0.9492
19145TIP3   OH278925   0.450   0.036   1.188 -0.3399 -0.1531 -0.1750
19145TIP3    H178926   0.508  -0.037   1.211 -0.5084  0.0839  1.0399
19145TIP3    H278927   0.487   0.071   1.107  0.1622 -1.1401 -0.3834
19146TIP3   OH278928   4.029   5.778   5.435  0.2907 -0.0232  0.0663
19146TIP3    H178929   4.105   5.780   5.376  1.3634  0.0534  1.4270
19146TIP3    H278930   4.040   5.697   5.485  0.2677  0.7340  1.2961
19147TIP3   OH278931   3.936   6.450   2.636 -0.3867 -0.0502  0.4228
19147TIP3    H178932   3.968   6.396   2.564  1.8201  0.4877  0.9355
19147TIP3    H278933   3.918   6.535   2.595 -0.0816 -0.0297  0.3274
19148TIP3   OH278934   4.103   3.872   2.106  0.5790  0.1823  0.1627
19148TIP3    H178935   4.029   3.918   2.066  0.3695 -0.7000 -0.4928
19148TIP3    H278936   4.165   3.860   2.034  1.0047  0.2106  0.5289
19149TIP3   OH278937   0.098   5.597  13.995 -0.3307  0.3077 -0.2503
19149TIP3    H178938   0.071   5.550  14.074 -2.2050  0.4702 -0.7825
19149TIP3    H278939   0.117   5.528  13.931  1.3211  0.1714  0.3537
19150TIP3   OH278940   2.433   4.476   0.436  0.1597  0.3628  0.0782
19150TIP3    H178941   2.463   4.451   0.348  1.3445  0.8534  0.3353
19150TIP3    H278942   2.350   4.428   0.447  0.0004  0.2814 -1.2944
19151TIP3   OH278943   1.932   2.837   0.467 -0.3324  0.3672  0.0518
19151TIP3    H178944   1.985   2.772   0.513  0.3980  1.0493  0.1793
19151TIP3    H278945   1.852   2.844   0.520 -0.2296 -0.1177  0.2704
19152TIP3   OH278946   2.617   0.197  11.749 -0.7591  0.1129  0.1673
19152TIP3    H178947   2.593   0.107  11.729  2.6922 -0.6881 -0.5487
19152TIP3    H278948   2.635   0.197  11.843  0.1028 -0.1411  0.0009
19153TIP3   OH278949   1.219   4.875   1.334  0.6802  0.7574 -0.1020
19153TIP3    H178950   1.294   4.912   1.380  0.5170  0.8846  0.0633
19153TIP3    H278951   1.164   4.838   1.403  1.6502 -1.2891 -0.3894
19154TIP3   OH278952   1.810   3.017   5.649  0.6111 -0.4315 -0.2530
19154TIP3    H178953   1.876   2.987   5.711  1.0033 -0.1470 -0.5342
19154TIP3    H278954   1.837   2.982   5.564  0.8753  0.3878 -0.5183
19155TIP3   OH278955   5.624   4.204  13.401 -0.3863 -0.0260  0.5118
19155TIP3    H178956   5.610   4.283  13.452 -0.1389  0.6207 -0.4057
19155TIP3    H278957   5.600   4.229  13.311  2.1565 -0.2196 -0.2765
19156TIP3   OH278958   4.938   5.727   3.207  0.1922  0.5090  0.5381
19156TIP3    H178959   4.886   5.791   3.255 -0.2403 -1.6343  3.0134
19156TIP3    H278960   4.873   5.675   3.158  0.4832  1.4293 -0.8586
19157TIP3   OH278961   2.300   0.552   0.074 -0.1071  0.0162  0.2148
19157TIP3    H178962   2.278   0.570  -0.017  1.2878  3.0466  0.4036
19157TIP3    H278963   2.292   0.457   0.083 -1.3658 -0.1968 -2.7470
19158TIP3   OH278964   4.086   5.669  15.848  0.1849 -0.6919 -0.5777
19158TIP3    H178965   4.153   5.613  15.809  1.4833 -0.5882  1.4277
19158TIP3    H278966   4.071   5.631  15.935  0.8520  1.8407  0.6804
19159TIP3   OH278967   2.220   1.768  17.229  0.5592 -0.1239 -0.0789
19159TIP3    H178968   2.143   1.740  17.279 -1.1958 -0.3524 -2.8046
19159TIP3    H278969   2.232   1.860  17.253  0.2360 -0.4339  1.3249
19160TIP3   OH278970   4.440   6.196   1.025  0.0922  0.5676 -0.0045
19160TIP3    H178971   4.531   6.168   1.026  0.1037  0.6171  1.5644
19160TIP3    H278972   4.444   6.289   1.005  0.3054  0.3452 -1.0453
19161TIP3   OH278973   4.251   4.315  17.245 -0.2729 -0.4974  0.2264
19161TIP3    H178974   4.275   4.239  17.192  0.8877  0.2794 -0.3823
19161TIP3    H278975   4.171   4.348  17.204  0.8745  0.3850 -1.3789
19162TIP3   OH278976   4.274   4.023   1.350  0.3943 -0.2167 -0.1696
19162TIP3    H178977   4.296   3.971   1.427 -0.5764 -1.2518 -0.5728
19162TIP3    H278978   4.209   4.086   1.382  1.2839  0.4989  0.2349
19163TIP3   OH278979   6.038   3.119   5.028 -0.7376 -0.2181  0.5254
19163TIP3    H178980   5.949   3.144   5.005 -0.6337  0.6310  1.0116
19163TIP3    H278981   6.039   3.120   5.124 -0.4045 -0.9538  0.5334
19164TIP3   OH278982   4.512   3.481  13.580 -0.4790 -0.1021  0.5322
19164TIP3    H178983   4.436   3.430  13.608 -0.0491  0.3547  2.6963
19164TIP3    H278984   4.496   3.568  13.617  0.6487  0.2521  0.1937
19165TIP3   OH278985   4.035   3.063   6.434  0.1283  0.2905  0.1665
19165TIP3    H178986   4.105   3.117   6.469  0.6716 -0.1740 -0.1823
19165TIP3    H278987   4.072   2.974   6.431 -0.5586 -0.0038  0.2133
19166TIP3   OH278988   3.616   2.792  11.418  0.5636  0.5580 -0.4208
19166TIP3    H178989   3.539   2.783  11.473  3.0881  0.5931  3.3463
19166TIP3    H278990   3.667   2.712  11.434  0.7651 -0.0774 -3.8243
19167TIP3   OH278991   2.580   0.741   1.596  0.0805  0.3199 -0.0827
19167TIP3    H178992   2.553   0.666   1.542  1.3338 -0.5118  0.4295
19167TIP3    H278993   2.558   0.817   1.543 -5.0156 -0.1617  1.0156
19168TIP3   OH278994   0.917   1.845  14.212  0.1519 -0.9893  0.3615
19168TIP3    H178995   0.988   1.821  14.153  1.5423  1.6874  0.8809
19168TIP3    H278996   0.874   1.919  14.169 -0.3197 -0.5463  1.5635
19169TIP3   OH278997   4.782   6.483   1.065 -0.2783 -0.3160  0.0588
19169TIP3    H178998   4.793   6.392   1.095  1.0432  0.3743  1.7758
19169TIP3    H278999   4.691   6.504   1.085 -0.0401 -0.6286  1.5324
19170TIP3   OH279000   4.369   2.606  11.725  0.1466  0.1080  0.3182
19170TIP3    H179001   4.464   2.595  11.731  0.2691  0.9799 -0.0003
19170TIP3    H279002   4.349   2.679  11.784 -0.5469 -1.1712  1.7065
19171TIP3   OH279003   2.142   6.553   5.344  0.1719  0.0324 -0.5721
19171TIP3    H179004   2.163   6.500   5.266  0.0172  2.1323 -2.0854
19171TIP3    H279005   2.165   6.497   5.418 -1.1226 -2.6139 -2.0974
19172TIP3   OH279006   3.263   5.295  16.159 -0.4812  0.0897 -0.2145
19172TIP3    H179007   3.326   5.366  16.145  0.0135 -0.5440 -1.2611
19172TIP3    H279008   3.298   5.247  16.235 -0.1503  0.2232 -0.2833
19173TIP3   OH279009   5.092   5.172   4.780 -0.1905  0.1488 -0.1213
19173TIP3    H179010   5.135   5.145   4.699  0.3744 -1.6686  0.7470
19173TIP3    H279011   5.020   5.109   4.791  0.1523 -0.0439  1.1232
19174TIP3   OH279012   1.788   5.572  13.131 -0.6339  0.1742 -0.5800
19174TIP3    H179013   1.828   5.650  13.170 -0.3882 -0.5525  0.6771
19174TIP3    H279014   1.861   5.527  13.089 -0.5818  0.0942 -0.4049
19175TIP3   OH279015   6.426   4.492  15.420 -0.2225  0.1362 -0.0259
19175TIP3    H179016   6.413   4.587  15.425  0.7860  0.3365 -1.0857
19175TIP3    H279017   6.352   4.461  15.368  0.4714  0.5846 -1.3000
19176TIP3   OH279018   5.436   1.847   2.069 -1.1312  0.0505 -0.0777
19176TIP3    H179019   5.399   1.873   1.985  1.0773  1.2770 -0.7291
19176TIP3    H279020   5.404   1.913   2.130 -0.6553  0.6609 -0.4815
19177TIP3   OH279021   3.032   0.778   1.907 -0.0323 -0.0178 -0.0584
19177TIP3    H179022   3.113   0.754   1.863 -0.4353  0.3193 -1.0056
19177TIP3    H279023   2.971   0.707   1.887 -0.5857  0.7339 -1.0923
19178TIP3   OH279024   5.947   2.343  12.883 -0.4456  0.3079  0.3731
19178TIP3    H179025   6.021   2.339  12.823 -0.4056  0.9478  0.3799
19178TIP3    H279026   5.892   2.414  12.850 -1.6679 -0.9365 -0.3347
19179TIP3   OH279027   1.415   4.505  12.310  0.1947 -0.3287 -0.0318
19179TIP3    H179028   1.369   4.581  12.346 -0.8752 -1.0023  0.0377
19179TIP3    H279029   1.372   4.489  12.226  1.7153  0.3387 -0.9635
19180TIP3   OH279030   4.692   5.081  16.628 -0.3548 -0.2588 -0.4603
19180TIP3    H179031   4.726   5.000  16.667  0.3893  0.6701  0.8375
19180TIP3    H279032   4.714   5.150  16.691 -0.3619  1.0691 -1.8788
19181TIP3   OH279033   5.640   5.855   2.915 -0.5478  0.0377 -0.0960
19181TIP3    H179034   5.581   5.881   2.986  0.3536  0.7976  0.3777
19181TIP3    H279035   5.602   5.896   2.837  0.8051  2.7974  0.6275
19182TIP3   OH279036   4.593   4.002   3.143  0.2884 -0.5307 -0.7895
19182TIP3    H179037   4.509   3.957   3.132  0.4862 -0.3653 -3.2795
19182TIP3    H279038   4.630   3.965   3.224 -1.5826 -1.5359 -0.3645
19183TIP3   OH279039   5.247   5.930   3.423  0.4351  0.9393  0.1847
19183TIP3    H179040   5.214   5.850   3.464 -1.4683  2.3529  1.4464
19183TIP3    H279041   5.244   5.911   3.329 -0.0721 -0.4394  0.4625
19184TIP3   OH279042   0.779   2.898  14.027 -0.2555 -0.8879 -0.4753
19184TIP3    H179043   0.778   2.812  14.070 -0.4212 -1.4400 -1.5597
19184TIP3    H279044   0.865   2.903  13.986  0.1022 -0.1373  0.3470
19185TIP3   OH279045   2.132   4.080   5.830 -0.2997 -0.1070 -0.5628
19185TIP3    H179046   2.181   4.149   5.874 -0.5669 -0.9122  1.0456
19185TIP3    H279047   2.109   4.018   5.900 -1.5182 -0.9635 -1.6845
19186TIP3   OH279048   4.509   0.276   1.777  0.5835  0.1315  1.0106
19186TIP3    H179049   4.592   0.322   1.762  0.2869  0.3647  0.0911
19186TIP3    H279050   4.516   0.243   1.867  2.0085 -0.5452  0.6621
19187TIP3   OH279051   1.068   5.456  17.137 -0.5077  0.5221  0.4841
19187TIP3    H179052   1.159   5.447  17.167 -0.3264 -0.5127 -0.3366
19187TIP3    H279053   1.018   5.403  17.197 -0.4955  0.6333  0.5936
19188TIP3   OH279054   1.473   3.075   2.607  0.3954  0.3450  0.6325
19188TIP3    H179055   1.552   3.110   2.566 -0.2910  2.7155  1.2245
19188TIP3    H279056   1.441   3.009   2.546  2.1824  0.1835 -0.1648
19189TIP3   OH279057   1.134   1.157   0.778 -0.3512  0.1383  0.0396
19189TIP3    H179058   1.139   1.133   0.870 -0.0373  0.3932  0.0913
19189TIP3    H279059   1.058   1.214   0.771 -0.0245  0.6018  0.2511
19190TIP3   OH279060   1.200   0.330   5.249 -0.2418  0.0742  0.1751
19190TIP3    H179061   1.281   0.381   5.249 -0.5772  0.6181  1.4025
19190TIP3    H279062   1.212   0.265   5.318 -0.7594  0.0110  0.2093
19191TIP3   OH279063   3.456   5.745   0.772 -0.3109 -0.2550  0.6440
19191TIP3    H179064   3.533   5.801   0.781  0.1331 -0.8412  0.5042
19191TIP3    H279065   3.432   5.751   0.680 -2.1773  2.2147  1.2444
19192TIP3   OH279066   0.845   6.421  11.084  0.1134  0.2039  0.4262
19192TIP3    H179067   0.764   6.376  11.060 -0.5646  1.1285  0.9453
19192TIP3    H279068   0.872   6.466  11.003 -1.4561  2.2314  0.9752
19193TIP3   OH279069   4.242   1.391   1.825  0.1650  0.1296 -0.2566
19193TIP3    H179070   4.322   1.340   1.825  0.1947  0.1659  0.9815
19193TIP3    H279071   4.217   1.397   1.917 -0.8464  0.7583 -0.5623
19194TIP3   OH279072   6.304   6.606  17.111 -0.5274 -0.1857  0.4906
19194TIP3    H179073   6.286   6.523  17.155 -2.1045  0.8534  1.8653
19194TIP3    H279074   6.221   6.630  17.069  0.0467  0.4743 -0.3000
19195TIP3   OH279075   4.583   4.256   3.111  0.6362  0.3083 -0.8689
19195TIP3    H179076   4.503   4.237   3.062 -0.2511 -0.4283  0.7984
19195TIP3    H279077   4.608   4.171   3.149  2.7630  0.3328 -2.1651
19196TIP3   OH279078   1.767   4.772   3.705  0.3958  0.6238  0.4636
19196TIP3    H179079   1.726   4.849   3.745  0.0751  0.7212 -0.0554
19196TIP3    H279080   1.834   4.745   3.769  0.6971  1.4984  0.5235
19197TIP3   OH279081   4.563   5.735  14.538  0.0455  0.0046 -0.0527
19197TIP3    H179082   4.616   5.694  14.470  0.3439 -1.3435  0.9810
19197TIP3    H279083   4.497   5.670  14.560 -0.6468  0.8076  0.2745
19198TIP3   OH279084   1.811   4.180  16.377 -0.0154 -0.2230 -0.2216
19198TIP3    H179085   1.897   4.221  16.368  0.2241 -0.5986  0.3325
19198TIP3    H279086   1.781   4.169  16.287 -0.2490  1.5140 -0.3790
19199TIP3   OH279087   5.110   5.155   1.840 -0.3750  0.0689  0.3040
19199TIP3    H179088   5.173   5.114   1.899  0.6189 -0.5483 -1.1783
19199TIP3    H279089   5.031   5.101   1.849 -0.2417  0.0076  1.1129
19200TIP3   OH279090   5.110   2.646   3.671 -0.2366 -0.2302 -0.1576
19200TIP3    H179091   5.063   2.721   3.708  0.9032  0.1942  0.4559
19200TIP3    H279092   5.046   2.574   3.673 -1.7370  1.0204 -1.8985
19201TIP3   OH279093   4.963   0.288   3.249 -0.2807 -0.1101  0.1975
19201TIP3    H179094   4.887   0.344   3.230 -2.4288 -2.4987  1.5387
19201TIP3    H279095   5.020   0.343   3.303 -2.1689  0.9320  1.1862
19202TIP3   OH279096   1.772   1.412   2.243 -0.9857  0.1892  0.1524
19202TIP3    H179097   1.760   1.407   2.148  0.2908  1.2338 -0.0823
19202TIP3    H279098   1.735   1.330   2.276 -1.4814 -0.1656 -1.2421
19203TIP3   OH279099   5.596   4.475  12.440  0.1102  0.1717  0.2101
19203TIP3    H179100   5.526   4.458  12.503 -0.1373  0.0488 -0.0924
19203TIP3    H279101   5.614   4.390  12.400 -1.1739  0.6025 -1.3523
19204TIP3   OH279102   1.132   1.631   5.082 -0.1201  0.1313  0.0001
19204TIP3    H179103   1.050   1.666   5.048  0.4598  1.4855 -0.0662
19204TIP3    H279104   1.148   1.682   5.162  0.7250 -0.0074 -0.0769
19205TIP3   OH279105   0.111   2.699  11.997  1.2266 -0.1722  0.4124
19205TIP3    H179106   0.078   2.675  12.084 -1.1622  1.7064  0.0823
19205TIP3    H279107   0.094   2.622  11.943  0.3251 -0.4155  1.0174
19206TIP3   OH279108   0.284   5.551   4.779 -0.2796  0.1743  0.2366
19206TIP3    H179109   0.297   5.464   4.742 -0.0766 -0.0169  0.7519
19206TIP3    H279110   0.189   5.565   4.774 -0.1400  0.6312 -1.4193
19207TIP3   OH279111   4.455   0.077  14.734 -0.1022 -0.2354 -0.0958
19207TIP3    H179112   4.509   0.144  14.775  0.5704 -0.7609 -0.1118
19207TIP3    H279113   4.367   0.093  14.767  0.0060  0.8147 -0.3019
19208TIP3   OH279114   6.052   6.299  16.623 -0.3843 -0.4198 -0.4921
19208TIP3    H179115   6.146   6.283  16.621 -0.3168 -0.2254  0.6918
19208TIP3    H279116   6.013   6.212  16.628 -0.2597 -0.5003 -0.9733
19209TIP3   OH279117   0.853   3.859  12.908 -0.1454  0.1210 -0.0972
19209TIP3    H179118   0.923   3.795  12.925 -2.1133 -2.0154  0.2788
19209TIP3    H279119   0.806   3.822  12.832 -0.6671  1.6944 -0.5525
19210TIP3   OH279120   6.410   3.341  14.242 -0.0363 -0.2832  0.2639
19210TIP3    H179121   6.397   3.289  14.322  2.4903 -0.2800  0.7228
19210TIP3    H279122   6.499   3.375  14.251 -1.1272  2.9446 -0.7270
19211TIP3   OH279123   5.167   3.522   5.691  0.4664  0.0519  0.3933
19211TIP3    H179124   5.192   3.612   5.713 -1.3317  1.1984 -1.9566
19211TIP3    H279125   5.071   3.521   5.699  0.3381 -1.2344 -0.9499
19212TIP3   OH279126   2.803   4.199  13.028 -0.3307 -0.0191  0.8734
19212TIP3    H179127   2.721   4.164  13.064 -0.6576 -0.2603 -0.0772
19212TIP3    H279128   2.859   4.214  13.104 -1.6389  1.1478  1.6157
19213TIP3   OH279129   3.982   3.405   5.973 -0.1180 -0.2377 -0.2312
19213TIP3    H179130   4.054   3.405   6.036  0.9505 -0.7468 -1.4542
19213TIP3    H279131   3.913   3.355   6.016  0.1441  0.4892  1.0608
19214TIP3   OH279132   5.634   6.331  15.328  0.3141  0.0278  0.0018
19214TIP3    H179133   5.690   6.318  15.252  0.5461  0.4037  0.1083
19214TIP3    H279134   5.615   6.242  15.359  0.1473 -0.1251 -0.5454
19215TIP3   OH279135   2.158   3.313  16.248 -0.1681  0.1406 -0.2800
19215TIP3    H179136   2.119   3.397  16.270 -1.1069 -0.1720 -0.7112
19215TIP3    H279137   2.120   3.290  16.163  0.4797 -0.4675 -0.4097
19216TIP3   OH279138   5.791   5.081   2.032  0.4563  0.3599 -0.0365
19216TIP3    H179139   5.739   5.142   1.981 -0.2306  0.0061  0.2388
19216TIP3    H279140   5.804   5.124   2.116 -0.2757  0.0052  0.2607
19217TIP3   OH279141   1.478   2.551  13.978  0.0233 -0.0491  0.5969
19217TIP3    H179142   1.523   2.557  13.893  1.4219 -0.4398  1.3033
19217TIP3    H279143   1.416   2.624  13.976  1.7800  1.4715  0.2369
19218TIP3   OH279144   1.787   3.893   3.936  0.3021 -0.1184  0.4845
19218TIP3    H179145   1.699   3.858   3.920  0.4348 -0.1464 -0.2226
19218TIP3    H279146   1.846   3.823   3.908  0.5983  1.4520 -3.0155
19219TIP3   OH279147   4.119   6.514   1.165 -0.0399  0.0025  0.6846
19219TIP3    H179148   4.205   6.519   1.207  2.0021  1.3597 -3.4188
19219TIP3    H279149   4.120   6.431   1.118 -0.2635  0.8072 -0.7659
19220TIP3   OH279150   4.850   5.007   5.699  0.0085  0.1049  0.0661
19220TIP3    H179151   4.758   4.990   5.679  0.1905 -0.2941 -0.4449
19220TIP3    H279152   4.898   4.957   5.633  0.5801  0.7538 -0.0108
19221TIP3   OH279153   4.310   1.354   5.734 -0.3829  0.0217 -0.0311
19221TIP3    H179154   4.381   1.392   5.682 -2.6901  0.2918 -3.0570
19221TIP3    H279155   4.347   1.272   5.768  1.9813  1.0637 -0.0041
19222TIP3   OH279156   2.056   2.687  14.329  0.1552  0.2785  0.9610
19222TIP3    H179157   2.060   2.609  14.274 -0.0979  1.1317 -0.2810
19222TIP3    H279158   1.995   2.665  14.399 -0.1378 -0.5329  0.4484
19223TIP3   OH279159   3.922   5.749   2.970 -0.4555  0.0676 -0.5995
19223TIP3    H179160   3.849   5.747   2.908 -1.3166  0.0305  0.4076
19223TIP3    H279161   3.941   5.657   2.987 -1.2056  0.0805  0.3356
19224TIP3   OH279162   2.196   3.236  15.935  0.6969  0.0821  0.0678
19224TIP3    H179163   2.258   3.310  15.937 -0.4580  1.0643  2.5530
19224TIP3    H279164   2.170   3.228  15.843  1.9614  1.8324 -0.4662
19225TIP3   OH279165   5.584   2.388   3.706  0.5755  0.2355  0.4134
19225TIP3    H179166   5.495   2.386   3.672  1.1133  0.1704 -1.0444
19225TIP3    H279167   5.581   2.450   3.779 -1.0449 -1.1328  1.5319
19226TIP3   OH279168   4.010   1.080   4.480  0.6643 -0.3887  0.4377
19226TIP3    H179169   4.047   1.042   4.400  2.0959 -1.0618  1.3978
19226TIP3    H279170   4.072   1.056   4.549 -1.0755 -0.6833  1.9303
19227TIP3   OH279171   0.865   5.969  13.556 -0.2576  0.6342  0.1053
19227TIP3    H179172   0.775   5.971  13.523 -0.5320 -1.0750  0.7113
19227TIP3    H279173   0.876   5.881  13.590  1.0999  1.3611  1.6166
19228TIP3   OH279174   6.214   3.618   2.523  0.0371 -0.0143  0.0454
19228TIP3    H179175   6.149   3.652   2.584 -1.3676  0.1924 -1.5251
19228TIP3    H279176   6.278   3.690   2.513  0.7222 -0.3504  1.8581
19229TIP3   OH279177   3.673   4.493  17.239 -0.4004  0.3189  0.0971
19229TIP3    H179178   3.584   4.467  17.264 -0.9130  0.9518 -1.0019
19229TIP3    H279179   3.661   4.541  17.157  1.1570 -1.3809 -1.1715
19230TIP3   OH279180   1.261   6.637   3.581  0.1878 -0.3339  0.7336
19230TIP3    H179181   1.259   6.543   3.598  1.7412 -0.1770  1.8966
19230TIP3    H279182   1.335   6.650   3.522  1.1071  0.3646  2.0196
19231TIP3   OH279183   0.976   6.434   6.748 -0.1840 -0.1164 -0.0825
19231TIP3    H179184   0.988   6.351   6.703  1.0613 -0.1647  0.3173
19231TIP3    H279185   0.905   6.477   6.700 -0.0845 -0.9238 -0.9764
19232TIP3   OH279186   2.551   3.393  12.250  0.0279  0.0242  0.1215
19232TIP3    H179187   2.489   3.442  12.196 -1.1576 -0.6024  0.9110
19232TIP3    H279188   2.528   3.301  12.237 -0.3107 -0.1227  1.7575
19233TIP3   OH279189   5.462   0.628   2.542 -0.2117  0.1708  0.1013
19233TIP3    H179190   5.531   0.670   2.594  0.5695  0.8731 -1.4507
19233TIP3    H279191   5.485   0.535   2.542  1.1790  0.4933 -1.0153
19234TIP3   OH279192   1.250   2.352   4.102  0.4974 -0.2051  0.1172
19234TIP3    H179193   1.311   2.280   4.084 -0.5124 -1.0607  0.0484
19234TIP3    H279194   1.263   2.414   4.030  0.8753 -0.6634 -0.2094
19235TIP3   OH279195   2.420   1.752  16.732  0.1780 -0.0229 -0.5070
19235TIP3    H179196   2.489   1.810  16.766 -0.0207 -0.5035  0.7207
19235TIP3    H279197   2.339   1.785  16.771 -0.2213  0.1327 -1.4376
19236TIP3   OH279198   6.662   5.347  15.507 -0.1183  0.1226  0.0749
19236TIP3    H179199   6.724   5.411  15.542 -0.6786  1.4283 -1.2394
19236TIP3    H279200   6.578   5.393  15.507 -0.2765 -0.0707 -2.2117
19237TIP3   OH279201   3.502   2.162  14.355  0.5345 -0.6984 -0.7384
19237TIP3    H179202   3.458   2.077  14.346  0.2849 -0.5469 -0.9851
19237TIP3    H279203   3.465   2.214  14.284 -1.8154  0.7008  1.4357
19238TIP3   OH279204   1.247   2.976  11.958 -0.1330 -0.3417  0.5260
19238TIP3    H179205   1.274   3.043  11.895 -0.0765  0.3345  1.2625
19238TIP3    H279206   1.276   2.894  11.919  0.4832  0.1306 -0.0212
19239TIP3   OH279207   6.427   4.934  17.194 -0.2121  0.5267  0.1745
19239TIP3    H179208   6.393   4.884  17.120 -2.2249 -0.5908  1.8309
19239TIP3    H279209   6.351   4.952  17.249  1.2783  1.1763  2.0979
19240TIP3   OH279210   6.636   3.960   0.975 -0.0908 -0.3735 -0.1420
19240TIP3    H179211   6.701   4.031   0.975  0.8069 -1.1794  1.4280
19240TIP3    H279212   6.594   3.966   0.889  1.3744  0.7823 -0.7946
19241TIP3   OH279213   5.999   1.492   4.554 -0.4291 -0.2265  0.5913
19241TIP3    H179214   5.915   1.516   4.592 -0.1396  0.3543  0.8737
19241TIP3    H279215   5.977   1.455   4.469 -0.9188  0.7022  0.3046
19242TIP3   OH279216   3.626   3.387   2.291 -0.5109 -0.3888  0.1417
19242TIP3    H179217   3.572   3.310   2.309 -1.3137  0.4499  1.3634
19242TIP3    H279218   3.620   3.398   2.196  1.2843 -3.0258 -0.3438
19243TIP3   OH279219   2.371   3.082   0.812 -0.2457 -0.4029  1.0212
19243TIP3    H179220   2.461   3.051   0.809 -0.3220 -0.5315 -0.0160
19243TIP3    H279221   2.378   3.177   0.802 -0.3240 -0.5760 -0.9083
19244TIP3   OH279222   4.979   2.754  16.343  0.3679 -0.4292 -0.0322
19244TIP3    H179223   5.070   2.746  16.374  0.2727 -0.3508  0.2743
19244TIP3    H279224   4.985   2.748  16.248  0.8579  1.0672 -0.1142
19245TIP3   OH279225   4.748   3.294   4.932 -0.1733  0.2159 -0.2790
19245TIP3    H179226   4.742   3.349   5.010  1.7894 -1.1312  0.8532
19245TIP3    H279227   4.657   3.284   4.903 -0.7946  1.8660  1.0198
19246TIP3   OH279228   0.188   0.606  13.854  0.2002  0.6899  0.1179
19246TIP3    H179229   0.203   0.512  13.869 -1.3808  0.4685  0.4633
19246TIP3    H279230   0.273   0.640  13.826  1.3027 -0.4404  1.9904
19247TIP3   OH279231   2.770   5.344   0.481 -0.0451 -0.3316 -1.0612
19247TIP3    H179232   2.792   5.316   0.392  1.3302  0.9914 -1.1522
19247TIP3    H279233   2.722   5.426   0.470 -2.7508 -1.7775 -0.7132
19248TIP3   OH279234   0.224   5.616  11.493 -0.2710 -0.5898  0.4841
19248TIP3    H179235   0.185   5.618  11.406  0.5296 -0.9183  0.1184
19248TIP3    H279236   0.181   5.687  11.540  0.6355  0.7635 -0.7283
19249TIP3   OH279237   3.666   2.958   4.673  0.1179  0.1626  0.6066
19249TIP3    H179238   3.724   2.923   4.605 -1.3442  2.9829 -2.2238
19249TIP3    H279239   3.584   2.975   4.627 -1.2534  1.1443  3.3694
19250TIP3   OH279240   6.013   3.012   4.186  0.0212 -0.5727 -0.1438
19250TIP3    H179241   5.974   3.098   4.202  0.9611  0.0723 -1.2448
19250TIP3    H279242   6.062   3.022   4.105  0.8014 -1.9370  0.1312
19251TIP3   OH279243   4.776   2.387   1.307 -0.8060 -0.0381 -0.1370
19251TIP3    H179244   4.831   2.384   1.229 -1.5567 -0.9163 -0.6411
19251TIP3    H279245   4.716   2.460   1.291 -0.0217  0.7090  0.2694
19252TIP3   OH279246   4.241   5.552   0.856  0.4880  0.1117  0.2631
19252TIP3    H179247   4.283   5.490   0.915  1.0465  0.0332 -0.2038
19252TIP3    H279248   4.299   5.629   0.857 -0.5604  0.9067  1.3718
19253TIP3   OH279249   1.345   0.582  16.811 -0.1955  0.0109 -0.6937
19253TIP3    H179250   1.363   0.645  16.742  1.8548  0.8189  0.5237
19253TIP3    H279251   1.318   0.503  16.765 -2.2715  1.5775 -2.2617
19254TIP3   OH279252   5.687   2.943   3.607 -0.2632  0.6580  0.1404
19254TIP3    H179253   5.663   2.873   3.547  0.4383 -0.7950  1.5260
19254TIP3    H279254   5.605   2.965   3.652 -0.0382 -0.9195  1.3736
19255TIP3   OH279255   1.118   1.729  16.432 -0.1003 -0.2159  0.0101
19255TIP3    H179256   1.148   1.753  16.345 -1.1514 -0.8091 -0.5332
19255TIP3    H279257   1.197   1.700  16.478  0.0852 -2.4694 -1.6250
19256TIP3   OH279258   6.689   2.146  12.175  0.1474  0.1466 -0.8128
19256TIP3    H179259   6.671   2.236  12.145  1.6498  0.7763  0.1277
19256TIP3    H279260   6.619   2.094  12.135 -2.3178  2.1044  0.7082
19257TIP3   OH279261   5.113   1.681   3.532 -0.0130 -0.3019 -0.1612
19257TIP3    H179262   5.202   1.708   3.510 -1.0388  1.5405 -2.2193
19257TIP3    H279263   5.070   1.761   3.562 -1.6563 -0.6356 -1.5344
19258TIP3   OH279264   5.201   2.617  12.020 -0.6040  0.5302  0.7112
19258TIP3    H179265   5.224   2.527  12.045  0.6856  0.2979 -1.2006
19258TIP3    H279266   5.118   2.609  11.974 -1.0796  0.4667  1.5823
19259TIP3   OH279267   4.252   0.043  12.170  0.7501 -0.4576  0.3070
19259TIP3    H179268   4.160   0.042  12.197  0.5839  1.8108 -0.0801
19259TIP3    H279269   4.301   0.058  12.250  0.4515  3.0813 -0.1019
19260TIP3   OH279270   2.052   2.333   5.740 -0.3496 -0.0485  0.1080
19260TIP3    H179271   2.122   2.302   5.682  2.0517  1.2789  2.2149
19260TIP3    H279272   2.020   2.253   5.783 -0.3257 -0.6904 -1.0408
19261TIP3   OH279273   0.534   5.071  13.417  0.9719 -0.1087 -0.0092
19261TIP3    H179274   0.509   5.052  13.507 -0.0826  0.8196 -0.0965
19261TIP3    H279275   0.589   4.997  13.391 -0.0894 -1.2076  0.8488
19262TIP3   OH279276   1.090   6.694   3.365 -0.8070 -0.3974 -0.3344
19262TIP3    H179277   1.002   6.658   3.377 -0.6229 -0.2344  1.5334
19262TIP3    H279278   1.143   6.652   3.432  0.0063  1.3441  0.1486
19263TIP3   OH279279   5.032   0.106  13.978  0.4505  0.3863  0.5100
19263TIP3    H179280   5.073   0.100  13.891 -0.4528 -0.6761  0.1481
19263TIP3    H279281   5.098   0.070  14.038 -0.1072 -1.7702 -0.1274
19264TIP3   OH279282   5.690   5.882  16.262 -0.1394  0.4702  0.3731
19264TIP3    H179283   5.618   5.870  16.324 -1.1051 -0.5393 -0.8931
19264TIP3    H279284   5.733   5.963  16.289 -1.4043  0.7762  1.4997
19265TIP3   OH279285   4.338   4.615   1.612  0.0157 -0.0853  0.8593
19265TIP3    H179286   4.411   4.649   1.663  0.2118  0.9429 -0.0700
19265TIP3    H279287   4.335   4.672   1.534 -1.3108 -0.5658  0.5409
19266TIP3   OH279288   3.680   4.565   1.162 -0.4900 -0.0809  0.0468
19266TIP3    H179289   3.723   4.481   1.152 -0.5887 -0.1505  0.2025
19266TIP3    H279290   3.586   4.544   1.163 -0.5176  0.0398 -0.0240
19267TIP3   OH279291   2.173   4.591  13.369 -0.2029  0.2559  0.1140
19267TIP3    H179292   2.175   4.686  13.353  0.0180  0.4995  1.4711
19267TIP3    H279293   2.133   4.583  13.456  1.8315 -0.7504  0.9841
19268TIP3   OH279294   3.509   4.134   2.164 -0.4575 -0.0348 -0.0548
19268TIP3    H179295   3.514   4.229   2.171 -0.1892 -0.2402  3.5170
19268TIP3    H279296   3.416   4.114   2.173 -0.6038 -0.0854 -1.5775
19269TIP3   OH279297   5.454   0.690  13.326  0.5324  0.6138  0.0553
19269TIP3    H179298   5.550   0.685  13.322  0.5324  1.3701 -1.1474
19269TIP3    H279299   5.434   0.689  13.420  1.6968  0.1529  0.3130
19270TIP3   OH279300   2.132   0.915  15.712  0.0694  0.0932  0.6213
19270TIP3    H179301   2.146   0.856  15.787  2.5859  0.3554  0.3947
19270TIP3    H279302   2.040   0.941  15.720 -0.2237 -1.3505  2.5518
19271TIP3   OH279303   4.016   5.736  16.900  0.1539 -0.1928 -0.0633
19271TIP3    H179304   4.010   5.772  16.989  0.0410  2.0260 -0.9372
19271TIP3    H279305   4.028   5.642  16.913  3.4478  0.4455  2.4131
19272TIP3   OH279306   5.810   1.564  15.760 -0.4205  0.4147 -0.3920
19272TIP3    H179307   5.795   1.473  15.735 -2.4802  0.3825  0.8680
19272TIP3    H279308   5.901   1.565  15.791 -0.7589 -1.5239  0.7985
19273TIP3   OH279309   0.301   0.721   6.423  0.2716 -0.1184  0.1801
19273TIP3    H179310   0.361   0.795   6.435 -0.8771  1.0596 -1.2957
19273TIP3    H279311   0.214   0.759   6.424 -0.2755 -1.2033 -2.3237
19274TIP3   OH279312   1.024   1.921   3.076 -0.1300  0.5566 -0.9908
19274TIP3    H179313   1.090   1.991   3.075  0.7571 -0.2685 -0.9026
19274TIP3    H279314   1.073   1.842   3.099 -0.8749 -0.3675 -2.4891
19275TIP3   OH279315   0.076   6.403   5.585 -0.6478 -0.5421  0.2027
19275TIP3    H179316   0.117   6.332   5.636 -0.1623 -0.7230 -0.4288
19275TIP3    H279317   0.096   6.381   5.494 -1.0155  0.0910 -0.0293
19276TIP3   OH279318   6.538   6.208  14.838 -0.2222  0.0571 -0.5106
19276TIP3    H179319   6.631   6.218  14.859 -0.2217 -0.1058 -0.4371
19276TIP3    H279320   6.509   6.296  14.814 -0.0022  0.0724 -0.7221
19277TIP3   OH279321   5.555   0.776   4.713 -0.5235  0.3288  0.0123
19277TIP3    H179322   5.520   0.848   4.766 -0.4906  1.4024 -1.4075
19277TIP3    H279323   5.513   0.697   4.749 -2.1420  1.2829  0.2333
19278TIP3   OH279324   1.317   5.851  13.739 -0.3267  0.1758  0.4091
19278TIP3    H179325   1.224   5.869  13.733 -0.3765 -0.6081 -1.4391
19278TIP3    H279326   1.350   5.862  13.650  1.0740 -0.9349  0.7669
19279TIP3   OH279327   5.452   5.568  11.070 -0.5359 -0.3877  0.1838
19279TIP3    H179328   5.539   5.606  11.062 -0.6462 -0.3287 -0.9068
19279TIP3    H279329   5.393   5.644  11.067 -0.6516 -0.4727  0.3123
19280TIP3   OH279330   5.239   4.342   0.437  0.3322 -0.1072  0.3393
19280TIP3    H179331   5.161   4.399   0.439  0.7114  0.5023 -1.3005
19280TIP3    H279332   5.307   4.393   0.481  0.5294  0.5239 -0.6651
19281TIP3   OH279333   3.520   5.498  16.947 -0.1272 -0.3414 -0.2476
19281TIP3    H179334   3.590   5.524  16.887  0.2440 -0.0634  0.3032
19281TIP3    H279335   3.456   5.569  16.943 -1.0645 -1.2517 -1.8182
19282TIP3   OH279336   1.858   0.779   1.207  0.0073 -0.5340 -0.1469
19282TIP3    H179337   1.876   0.719   1.134  1.0792 -1.8015  1.1080
19282TIP3    H279338   1.925   0.757   1.272 -0.2617  1.3124  0.7791
19283TIP3   OH279339   4.943   4.067   0.593  0.1581 -0.6336 -0.0240
19283TIP3    H179340   4.965   4.032   0.679  0.4143  1.5923  0.8683
19283TIP3    H279341   5.027   4.078   0.548  0.0909 -1.0407 -0.2517
19284TIP3   OH279342   5.835   1.696   5.877  0.3471  0.0139  0.1097
19284TIP3    H179343   5.879   1.640   5.814 -0.8450  1.1544 -1.7739
19284TIP3    H279344   5.750   1.655   5.891 -0.0920  0.7290 -0.4203
19285TIP3   OH279345   0.139   4.732   1.444  0.3189 -0.4984 -0.1826
19285TIP3    H179346   0.234   4.719   1.445  0.7168  2.0327  0.3842
19285TIP3    H279347   0.127   4.814   1.395 -1.4145  0.1544  1.2639
19286TIP3   OH279348   3.845   4.874  10.279 -0.0558 -0.4349  0.0479
19286TIP3    H179349   3.908   4.864  10.208 -1.7770  0.7253 -1.6510
19286TIP3    H279350   3.861   4.797  10.335  1.6941 -1.0543 -1.2497
19287TIP3   OH279351   2.202   4.739  13.948  0.5249 -0.0865 -0.0219
19287TIP3    H179352   2.168   4.828  13.957 -0.6543 -0.7921  3.0894
19287TIP3    H279353   2.236   4.736  13.859 -0.3231  3.1595 -0.5387
19288TIP3   OH279354   2.945   5.750  10.619 -0.0461  0.1028 -0.3543
19288TIP3    H179355   2.955   5.773  10.527  0.5864  0.7406 -0.1325
19288TIP3    H279356   2.907   5.662  10.619  1.2116 -0.4460 -1.2228
19289TIP3   OH279357   5.268   4.764  16.038  0.0133 -0.2902 -0.0525
19289TIP3    H179358   5.328   4.722  16.099  1.3482  0.3989 -0.8632
19289TIP3    H279359   5.217   4.825  16.091  1.2289  0.3773  0.3656
19290TIP3   OH279360   4.082   0.710  12.257 -0.4636 -0.9807 -0.0643
19290TIP3    H179361   4.094   0.672  12.345  0.7698 -3.4304 -1.2281
19290TIP3    H279362   4.000   0.671  12.226  0.3325 -1.9924 -0.9122
19291TIP3   OH279363   0.025   3.484   2.478 -0.5927 -0.3961  0.7015
19291TIP3    H179364   0.033   3.521   2.390  0.8637 -0.3426  0.8605
19291TIP3    H279365  -0.065   3.449   2.480 -0.4121 -1.0185 -1.0449
19292TIP3   OH279366   0.317   4.907  14.346  0.7688  0.3016 -0.0144
19292TIP3    H179367   0.341   4.999  14.333 -0.1003  0.6394  0.6234
19292TIP3    H279368   0.334   4.892  14.439 -0.3673  0.2244  0.1911
19293TIP3   OH279369   2.315   6.146  15.128  0.2625 -0.0239  0.4095
19293TIP3    H179370   2.342   6.083  15.195  0.5803 -0.4182 -0.0790
19293TIP3    H279371   2.225   6.122  15.107  0.3884 -0.3345  0.2130
19294TIP3   OH279372   0.699   2.242  14.952 -0.0203  0.5670 -0.0574
19294TIP3    H179373   0.774   2.287  14.991 -0.3943  0.9633  0.2096
19294TIP3    H279374   0.719   2.149  14.963  0.0279  0.6752  0.7993
19295TIP3   OH279375   0.443   0.257   3.972 -0.2684  0.3469  0.5221
19295TIP3    H179376   0.377   0.208   4.022 -0.3117  1.6384  1.7733
19295TIP3    H279377   0.501   0.190   3.937 -0.8900 -0.6587  1.3877
19296TIP3   OH279378   2.511   5.169   0.535  0.2706  0.8477  0.0739
19296TIP3    H179379   2.559   5.243   0.498  1.8721 -0.3346 -0.2684
19296TIP3    H279380   2.488   5.116   0.459  1.3749 -0.3092  0.5388
19297TIP3   OH279381   0.272   1.699  16.734  0.1709 -0.6721 -0.3154
19297TIP3    H179382   0.198   1.759  16.743  0.1826 -0.5302 -1.1058
19297TIP3    H279383   0.253   1.650  16.654  0.3616 -1.4478  0.1068
19298TIP3   OH279384   4.257   3.125   3.313 -0.0228 -0.2517  0.3323
19298TIP3    H179385   4.324   3.194   3.314 -1.4596  1.1678  0.4401
19298TIP3    H279386   4.289   3.060   3.376  1.1684  0.4854  0.5009
19299TIP3   OH279387   2.482   6.007  13.491 -0.4262  0.0471 -0.5492
19299TIP3    H179388   2.531   5.939  13.445 -0.7673 -0.4203 -0.2317
19299TIP3    H279389   2.531   6.021  13.571 -0.5640 -0.0971 -0.4394
19300TIP3   OH279390   5.440   6.418  12.377 -0.2248  0.0090  0.0995
19300TIP3    H179391   5.355   6.402  12.417  0.8136 -3.7339  0.9843
19300TIP3    H279392   5.449   6.349  12.311  1.2443  1.6814 -1.5369
19301TIP3   OH279393   4.394   4.774  14.394 -0.1194 -0.0001 -0.3970
19301TIP3    H179394   4.399   4.860  14.436 -0.5011 -0.0772 -0.1929
19301TIP3    H279395   4.455   4.720  14.445  0.0504  0.1236 -0.4659
19302TIP3   OH279396   3.681   2.815   2.370 -0.1327  0.4195 -0.0882
19302TIP3    H179397   3.754   2.762   2.402 -2.1670 -1.1059  2.1976
19302TIP3    H279398   3.643   2.762   2.299 -0.1150  0.3949 -0.0797
19303TIP3   OH279399   4.915   1.633  11.860 -0.4966  0.3139 -1.0553
19303TIP3    H179400   4.827   1.610  11.887 -0.4945  1.1609 -0.3227
19303TIP3    H279401   4.972   1.577  11.913 -0.4467  2.7389  1.5641
19304TIP3   OH279402   4.681   3.217  15.817 -0.0437 -0.3031  0.3144
19304TIP3    H179403   4.627   3.296  15.823 -1.4481 -1.2534  0.5165
19304TIP3    H279404   4.637   3.154  15.874  1.3075 -1.0959  0.4948
19305TIP3   OH279405   1.499   5.119  14.975  0.3964 -0.9196 -0.2752
19305TIP3    H179406   1.454   5.164  14.904 -1.5417 -0.7582  1.0240
19305TIP3    H279407   1.572   5.177  14.997 -0.8579  0.5977 -0.0261
19306TIP3   OH279408   1.038   1.413  11.008 -0.0134 -0.3860 -0.0427
19306TIP3    H179409   1.107   1.473  10.981  0.0606 -0.5742 -0.2747
19306TIP3    H279410   0.989   1.461  11.075 -0.7196  0.4100 -1.1271
19307TIP3   OH279411   6.579   0.047  14.101 -0.4798  0.2703 -0.5523
19307TIP3    H179412   6.639   0.005  14.039 -0.5497 -1.9223  0.8076
19307TIP3    H279413   6.634   0.107  14.151 -0.2616  1.4194 -2.1058
19308TIP3   OH279414   6.441   3.656   0.032 -0.4034 -0.3131 -0.0738
19308TIP3    H179415   6.418   3.593   0.101 -0.9495 -0.0255  0.0139
19308TIP3    H279416   6.380   3.728   0.045  0.8376  0.6628  0.4159
19309TIP3   OH279417   3.554   0.758   4.697 -0.2297 -0.0664 -0.4489
19309TIP3    H179418   3.622   0.752   4.631 -0.3308 -0.3540 -0.5250
19309TIP3    H279419   3.479   0.710   4.660 -0.3820  0.0161 -0.2511
19310TIP3   OH279420   3.030   2.034   4.474 -0.8061 -0.0725  0.1923
19310TIP3    H179421   3.077   2.072   4.399 -0.9184 -0.8245 -0.2656
19310TIP3    H279422   2.941   2.020   4.442 -0.8189 -0.5216  0.4159
19311TIP3   OH279423   4.880   3.374   3.555 -0.3672  0.0819 -0.2790
19311TIP3    H179424   4.816   3.363   3.485  1.5172  0.9387 -2.2094
19311TIP3    H279425   4.917   3.461   3.540  0.6969 -0.0873  1.2595
19312TIP3   OH279426   3.150   5.036  17.182 -0.8277 -0.0470 -0.3885
19312TIP3    H179427   3.158   5.070  17.094 -2.1922 -0.6202 -0.7476
19312TIP3    H279428   3.095   4.958  17.173 -0.1024 -0.7218  0.8124
19313TIP3   OH279429   4.464   3.980   2.849 -0.0623 -0.2321  0.1939
19313TIP3    H179430   4.455   4.046   2.780  0.1813  0.1787  0.5558
19313TIP3    H279431   4.416   4.017   2.923 -3.1189 -2.0914 -0.7497
19314TIP3   OH279432   1.721   4.684   5.416  0.2019  0.5793  0.3439
19314TIP3    H179433   1.732   4.603   5.366  0.5099  1.8349 -1.7267
19314TIP3    H279434   1.632   4.714   5.393  1.1193  2.2644 -1.2243
19315TIP3   OH279435   5.544   2.555  13.211 -0.2747 -0.2223  0.0384
19315TIP3    H179436   5.453   2.583  13.202 -0.2033 -0.1253 -0.4174
19315TIP3    H279437   5.545   2.500  13.289 -0.4654  0.8504  0.8087
19316TIP3   OH279438   3.218   2.818  13.311  0.9255 -0.2587 -0.1402
19316TIP3    H179439   3.179   2.876  13.245  1.6666  0.7741  0.3302
19316TIP3    H279440   3.144   2.765  13.342  0.1223  0.8340 -0.1495
19317TIP3   OH279441   6.011   6.421  11.605 -0.2357  0.3230 -0.4250
19317TIP3    H179442   5.962   6.407  11.686 -0.7593  3.6253 -0.1061
19317TIP3    H279443   6.046   6.335  11.583  0.6454 -0.4731  3.7829
19318TIP3   OH279444   0.669   2.151  12.060 -0.1273  0.4951 -0.2507
19318TIP3    H179445   0.671   2.243  12.084  0.2046  1.1026 -2.5526
19318TIP3    H279446   0.760   2.123  12.065 -0.1968  0.3511  0.2180
19319TIP3   OH279447   6.102   6.660   3.966  0.5387  0.3305  0.0419
19319TIP3    H179448   6.093   6.582   3.912  0.5604 -0.6371  1.4182
19319TIP3    H279449   6.036   6.649   4.035  0.5333  1.5300  0.2395
19320TIP3   OH279450   2.211   6.789  16.419 -0.3051 -0.1432 -0.0396
19320TIP3    H179451   2.221   6.742  16.502 -0.4702  0.2329  0.2003
19320TIP3    H279452   2.126   6.760  16.385 -0.3014 -0.1930 -0.0043
19321TIP3   OH279453   0.229   3.518  17.088 -0.1087 -0.9058 -0.2662
19321TIP3    H179454   0.250   3.531  16.995 -2.6337 -0.8712 -0.8705
19321TIP3    H279455   0.311   3.488  17.127  1.3655  0.4343 -2.2264
19322TIP3   OH279456   0.617   3.995   3.352 -0.0047 -0.1819  0.1501
19322TIP3    H179457   0.605   3.904   3.325  0.6553  0.6569 -3.1464
19322TIP3    H279458   0.693   4.025   3.302  0.7566  1.7470  2.3926
19323TIP3   OH279459   6.105   1.320  12.849  0.1708  0.2996  0.5641
19323TIP3    H179460   6.088   1.272  12.768 -0.3089 -0.0671  0.8808
19323TIP3    H279461   6.036   1.291  12.909 -0.1534  1.4169  0.7432
19324TIP3   OH279462   3.331   0.723  16.803  0.0148 -0.6194  0.0189
19324TIP3    H179463   3.347   0.759  16.890  2.4731 -1.2033 -0.1445
19324TIP3    H279464   3.272   0.786  16.761  0.2394  0.5854  1.4793
19325TIP3   OH279465   2.307   0.995   4.492  0.1083  0.0686  0.2680
19325TIP3    H179466   2.222   0.964   4.521  0.6828  0.2807  2.3018
19325TIP3    H279467   2.362   0.916   4.491  0.1228  0.0829 -0.1506
19326TIP3   OH279468   0.855   1.411   1.883 -0.9242 -0.2815 -0.0926
19326TIP3    H179469   0.933   1.466   1.878 -1.1830  0.1535  0.6904
19326TIP3    H279470   0.867   1.358   1.962 -0.7985 -1.1751 -0.6996
19327TIP3   OH279471   5.788   2.354  12.325 -0.1138 -0.0031 -0.0820
19327TIP3    H179472   5.880   2.333  12.312 -0.2395 -1.2109  0.8965
19327TIP3    H279473   5.768   2.419  12.258  1.2819 -0.2046 -0.6973
19328TIP3   OH279474   0.992   4.494  15.685  0.0141 -0.4982  0.1327
19328TIP3    H179475   0.997   4.570  15.627  0.1176 -1.0375 -0.5706
19328TIP3    H279476   1.060   4.435  15.652  2.9261  0.8973  3.3004
19329TIP3   OH279477   4.877   0.782   4.508  0.1199  0.5022 -0.2704
19329TIP3    H179478   4.906   0.793   4.599  0.9841  0.0202 -0.4849
19329TIP3    H279479   4.830   0.699   4.507  1.6871 -0.3939 -0.6451
19330TIP3   OH279480   3.058   2.559  12.102 -0.3895 -0.4668  0.1005
19330TIP3    H179481   3.050   2.551  12.007 -2.2576 -1.6416  0.3410
19330TIP3    H279482   3.001   2.632  12.125  0.4513  0.1389  0.2655
19331TIP3   OH279483   1.908   3.211   3.261 -0.1062  0.0044  0.2990
19331TIP3    H179484   2.000   3.207   3.288 -0.2201 -0.5350  0.5976
19331TIP3    H279485   1.865   3.262   3.329 -0.5832 -2.1776  1.6546
19332TIP3   OH279486   5.040   3.802  15.800 -0.4167 -0.2128 -0.1967
19332TIP3    H179487   5.093   3.726  15.823 -0.5425  0.0448  0.9528
19332TIP3    H279488   5.069   3.826  15.712 -0.1992 -1.4264 -0.4596
19333TIP3   OH279489   0.600   3.129  12.432  0.2201  0.0372 -0.1358
19333TIP3    H179490   0.524   3.096  12.384  0.6987 -0.7986 -0.3439
19333TIP3    H279491   0.620   3.213  12.391 -1.1060  0.6673  0.4880
19334TIP3   OH279492   4.191   5.685  15.280  0.2066  0.2287 -0.0567
19334TIP3    H179493   4.152   5.645  15.358  0.0067 -0.1828 -0.3649
19334TIP3    H279494   4.140   5.765  15.266 -1.0006 -0.6604 -0.8655
19335TIP3   OH279495   3.183   0.075  13.630 -0.2298  0.4145  0.5566
19335TIP3    H179496   3.164   0.134  13.703  0.6696 -0.9619  1.9216
19335TIP3    H279497   3.160  -0.012  13.662 -0.0175 -0.1837 -0.8680
19336TIP3   OH279498   1.523   6.188   6.475  0.1551  0.0179 -0.3952
19336TIP3    H179499   1.429   6.179   6.490 -0.3221  1.1921 -2.4340
19336TIP3    H279500   1.542   6.126   6.404  0.5749  1.0113 -1.1630
19337TIP3   OH279501   6.063   4.839  17.156 -0.6938 -0.2640  0.0733
19337TIP3    H179502   6.001   4.870  17.222 -0.4886  0.9983 -0.3199
19337TIP3    H279503   6.062   4.907  17.089 -0.3739 -1.2067 -0.8875
19338TIP3   OH279504   6.634   1.745   1.988 -0.6465 -0.7199  0.3009
19338TIP3    H179505   6.674   1.808   2.049  0.7984 -0.4395 -0.9166
19338TIP3    H279506   6.697   1.673   1.983 -1.1161 -1.0934 -0.2711
19339TIP3   OH279507   5.241   6.602   1.342  0.4757 -0.3258  0.1215
19339TIP3    H179508   5.157   6.570   1.309  0.2362 -1.0247  1.3969
19339TIP3    H279509   5.304   6.579   1.274 -0.3090 -0.0956 -0.6875
19340TIP3   OH279510   6.677   0.782   3.754 -0.2428  0.4777  0.4642
19340TIP3    H179511   6.640   0.703   3.714  0.5111 -0.9212  2.4203
19340TIP3    H279512   6.652   0.853   3.695 -0.6301 -1.2623 -1.5448
19341TIP3   OH279513   5.427   1.991  13.469  0.1606 -0.3201 -0.2194
19341TIP3    H179514   5.372   1.917  13.496  0.2355  0.0925  1.1339
19341TIP3    H279515   5.434   2.045  13.548 -1.0059  1.8320 -1.5305
19342TIP3   OH279516   3.138   3.380   0.169  0.6461  0.4633 -0.0741
19342TIP3    H179517   3.227   3.352   0.146  0.8675 -1.2731  2.6888
19342TIP3    H279518   3.082   3.326   0.113  1.2457 -1.2020  0.8944
19343TIP3   OH279519   6.509   2.702  10.661 -0.4800 -0.2643  0.1278
19343TIP3    H179520   6.480   2.792  10.646  1.8398  0.7876  1.7463
19343TIP3    H279521   6.428   2.650  10.658 -2.0078  2.0403  0.5035
19344TIP3   OH279522   5.828   3.731   4.370 -0.0011 -0.4073 -0.1208
19344TIP3    H179523   5.775   3.799   4.328 -0.9224 -1.9156 -1.4738
19344TIP3    H279524   5.765   3.676   4.416  0.6691 -0.7057  0.4501
19345TIP3   OH279525   0.029   6.456   2.021  0.0553 -0.0595 -0.0470
19345TIP3    H179526   0.035   6.365   1.989 -1.1778 -0.2874  0.3312
19345TIP3    H279527  -0.040   6.495   1.967  1.8300  1.1876 -1.4219
19346TIP3   OH279528   4.157   4.802  12.238 -0.2382 -0.5442  0.1218
19346TIP3    H179529   4.201   4.849  12.167  0.3254 -1.0679  0.1167
19346TIP3    H279530   4.068   4.835  12.237  0.0023  0.1127 -0.2490
19347TIP3   OH279531   6.742   1.948  16.512 -0.0713  0.3801 -0.3490
19347TIP3    H179532   6.701   2.034  16.501 -0.7669  0.4270  2.3714
19347TIP3    H279533   6.670   1.886  16.499 -0.2785  0.3351  1.0081
19348TIP3   OH279534   1.677   2.444  12.606 -0.5253  0.2611 -0.0830
19348TIP3    H179535   1.641   2.415  12.689  1.3327 -0.3819  0.5317
19348TIP3    H279536   1.663   2.539  12.605  0.1836  0.4009  1.3668
19349TIP3   OH279537   2.264   3.069   2.920 -0.1838  0.5459 -0.9928
19349TIP3    H179538   2.344   3.078   2.869  0.1765  1.1273 -0.3421
19349TIP3    H279539   2.278   3.127   2.995 -1.2018  0.6198 -0.8636
19350TIP3   OH279540   4.158   5.895  11.752 -0.2460 -0.0325 -0.0839
19350TIP3    H179541   4.077   5.941  11.733 -0.5287 -0.2772  0.5244
19350TIP3    H279542   4.226   5.946  11.706 -0.2915  2.0577  2.0220
19351TIP3   OH279543   2.380   5.428  14.229 -0.2223 -0.6191 -0.2400
19351TIP3    H179544   2.370   5.523  14.232 -1.3229 -0.6945 -1.2712
19351TIP3    H279545   2.433   5.407  14.306 -0.8449  0.7236  0.5704
19352TIP3   OH279546   6.241   0.415   0.868  0.1816  0.0053 -0.0630
19352TIP3    H179547   6.204   0.480   0.808 -0.0087 -0.0325  0.0110
19352TIP3    H279548   6.323   0.388   0.828 -0.2190 -0.4431 -0.5978
19353TIP3   OH279549   5.566   6.246   0.969 -0.7237  0.1661 -0.4213
19353TIP3    H179550   5.625   6.175   0.944 -0.7247  0.6479 -1.8669
19353TIP3    H279551   5.617   6.299   1.030  0.6261  0.9549 -2.1795
19354TIP3   OH279552   5.506   3.458   1.723 -0.5429  0.7570  0.0533
19354TIP3    H179553   5.457   3.496   1.795  1.5534  2.0388  0.8314
19354TIP3    H279554   5.531   3.532   1.668 -0.1635  0.0435 -0.7661
19355TIP3   OH279555   2.745   3.626  15.818  0.2572  0.3002 -0.0304
19355TIP3    H179556   2.708   3.710  15.844  0.8687  0.8664 -0.9700
19355TIP3    H279557   2.839   3.643  15.808  0.1428 -0.0856 -1.8304
19356TIP3   OH279558   2.842   1.019  16.105  0.1963  0.1937 -0.7681
19356TIP3    H179559   2.892   1.097  16.129 -0.6807 -0.0200  1.8555
19356TIP3    H279560   2.906   0.948  16.110  0.0595  0.1687  0.9247
19357TIP3   OH279561   0.031   2.514  11.781 -0.1605  0.1006  0.0057
19357TIP3    H179562  -0.044   2.476  11.735 -0.7624  2.3115 -0.9304
19357TIP3    H279563   0.105   2.500  11.722 -0.3507  0.2159 -0.2637
19358TIP3   OH279564   4.446   0.568  13.293  0.4244  0.2505  0.0968
19358TIP3    H179565   4.368   0.546  13.344  0.5534 -1.3383 -0.3675
19358TIP3    H279566   4.519   0.534  13.344  0.7288  0.6656 -0.0535
19359TIP3   OH279567   0.683   0.356  15.624  0.0849 -0.4092  0.0887
19359TIP3    H179568   0.600   0.354  15.670  0.3387  0.9676  0.6344
19359TIP3    H279569   0.661   0.381  15.534 -0.0647  0.1706  0.2892
19360TIP3   OH279570   4.588   5.495  16.815  0.7416 -0.1298  0.0180
19360TIP3    H179571   4.660   5.441  16.782 -0.3423 -0.9059 -1.1312
19360TIP3    H279572   4.586   5.478  16.909  2.2760  0.1791  0.1200
19361TIP3   OH279573   2.552   4.026  13.875  0.7347 -0.4384 -0.1307
19361TIP3    H179574   2.589   4.111  13.849 -1.0242  0.5879  0.6435
19361TIP3    H279575   2.529   3.984  13.792 -1.7298  1.4101 -0.4697
19362TIP3   OH279576   0.141   5.105   2.962  0.0036  0.2167 -0.2398
19362TIP3    H179577   0.100   5.021   2.985  1.4390  0.3908  3.2892
19362TIP3    H279578   0.076   5.171   2.985  0.1565  0.2288  0.1599
19363TIP3   OH279579   6.529   2.773   5.788  0.7143 -0.0550 -0.3112
19363TIP3    H179580   6.506   2.720   5.864  0.8807 -0.2248 -0.3801
19363TIP3    H279581   6.494   2.724   5.713 -1.0382  0.9940 -0.2008
19364TIP3   OH279582   6.596   3.814   0.706 -0.3666  0.3358  0.2357
19364TIP3    H179583   6.667   3.868   0.740 -1.3241  1.6652  0.1391
19364TIP3    H279584   6.635   3.765   0.633  0.1078  2.0505 -0.6693
19365TIP3   OH279585   1.825   2.439   3.677  0.0159 -0.1797 -0.0725
19365TIP3    H179586   1.904   2.392   3.704 -0.0548  0.5444  1.4374
19365TIP3    H279587   1.806   2.406   3.589  0.0248 -2.8791  0.8958
19366TIP3   OH279588   1.113   3.289   6.457 -0.3648  0.3658 -1.0326
19366TIP3    H179589   1.020   3.281   6.479  0.7968  1.3119  5.2601
19366TIP3    H279590   1.126   3.383   6.444 -0.0181  0.3964 -0.4706
19367TIP3   OH279591   6.440   1.898   5.492 -0.0125 -0.1966 -0.1637
19367TIP3    H179592   6.529   1.872   5.469  0.1214  0.0706  0.0538
19367TIP3    H279593   6.387   1.821   5.473  0.5865 -1.1216  1.7920
19368TIP3   OH279594   4.029   1.659  11.572 -0.4795 -0.1020  0.0335
19368TIP3    H179595   4.022   1.667  11.477 -0.4501 -1.0920 -0.0503
19368TIP3    H279596   3.984   1.736  11.606  2.4208  2.1000 -0.8531
19369TIP3   OH279597   1.700   4.292  11.890  0.1860 -0.0204  0.0720
19369TIP3    H179598   1.713   4.302  11.796  1.7008 -2.1313  0.0373
19369TIP3    H279599   1.619   4.243  11.898 -0.1322  0.4716 -0.1229
19370TIP3   OH279600   6.118   5.820   5.305  0.2787 -0.3429 -0.5603
19370TIP3    H179601   6.167   5.745   5.269  1.8313  0.8556 -0.9932
19370TIP3    H279602   6.027   5.790   5.305  0.5983 -1.4911 -2.6966
19371TIP3   OH279603   3.852   1.624   1.949  0.2316  0.6426  0.1651
19371TIP3    H179604   3.797   1.601   1.874 -0.8988  1.0300  0.8668
19371TIP3    H279605   3.898   1.703   1.921  0.9360 -0.0562 -0.6700
19372TIP3   OH279606   0.614   5.074  15.893 -0.3024  0.2111 -0.3762
19372TIP3    H179607   0.555   5.136  15.852 -1.0777 -0.7263 -0.7011
19372TIP3    H279608   0.614   4.998  15.834  1.8706  0.5154 -0.8285
19373TIP3   OH279609   1.652   5.480   1.846  0.1180  0.0074  0.1999
19373TIP3    H179610   1.635   5.398   1.892 -1.6544  0.9096  1.2002
19373TIP3    H279611   1.603   5.473   1.765  1.1266 -0.4942 -0.3808
19374TIP3   OH279612   0.585   1.877   3.654 -0.1536  0.4373  0.2434
19374TIP3    H179613   0.612   1.859   3.744  0.6259 -1.3384 -0.3248
19374TIP3    H279614   0.645   1.825   3.600 -1.1384  0.8418 -1.2740
19375TIP3   OH279615   6.391   5.490  12.627  0.4548 -0.0721 -0.5710
19375TIP3    H179616   6.335   5.533  12.563 -1.0208  0.6812  1.1920
19375TIP3    H279617   6.331   5.446  12.687  1.7458  0.1684  0.9479
19376TIP3   OH279618   4.212   6.208  14.707 -0.8210  0.0891  0.5806
19376TIP3    H179619   4.176   6.255  14.632 -0.7016 -0.8606 -0.0839
19376TIP3    H279620   4.222   6.118  14.676  1.5603  0.2085  0.9475
19377TIP3   OH279621   4.354   6.132   3.345 -0.5842 -0.1250  0.2114
19377TIP3    H179622   4.360   6.208   3.403  1.9868 -0.6563  0.7237
19377TIP3    H279623   4.271   6.143   3.298 -2.6460  0.3924  3.8301
19378TIP3   OH279624   1.355   5.353  12.893  0.0597  0.1358 -0.4171
19378TIP3    H179625   1.349   5.298  12.815  0.2536 -2.2485  1.1881
19378TIP3    H279626   1.264   5.380  12.910  0.1781  1.7026 -2.1385
19379TIP3   OH279627   1.646   6.726   2.256  0.0949  0.1401  0.8833
19379TIP3    H179628   1.614   6.660   2.195  0.8248  0.7354 -0.1415
19379TIP3    H279629   1.602   6.807   2.230  1.1693  0.6097  0.5191
19380TIP3   OH279630   0.914   4.755  11.802  0.1870  0.6793 -0.0955
19380TIP3    H179631   0.825   4.760  11.837  0.0492  1.0650 -0.5076
19380TIP3    H279632   0.902   4.723  11.712  0.4957  0.3296 -0.0144
19381TIP3   OH279633   3.933   2.116  11.975  0.7434  0.2609 -0.1779
19381TIP3    H179634   3.840   2.137  11.967  0.5223  0.1927  1.9644
19381TIP3    H279635   3.977   2.200  11.966  0.2646  0.7614  1.9335
19382TIP3   OH279636   3.705   1.509   0.478  0.3238 -0.0733 -0.2503
19382TIP3    H179637   3.730   1.574   0.412 -0.3684 -0.6954 -1.1435
19382TIP3    H279638   3.617   1.537   0.505 -0.1533 -0.8817 -0.9556
19383TIP3   OH279639   4.194   6.224   2.042  0.1975  0.0121  0.3864
19383TIP3    H179640   4.102   6.207   2.063  0.2937  1.7485  2.3502
19383TIP3    H279641   4.197   6.230   1.947 -1.7894  0.2938  0.3363
19384TIP3   OH279642   0.794   6.228   3.724 -0.2300  0.3705 -0.1799
19384TIP3    H179643   0.836   6.258   3.643 -0.5326 -3.1024 -1.7085
19384TIP3    H279644   0.703   6.211   3.699 -0.5730  0.1730  1.1411
19385TIP3   OH279645   0.408   1.152   4.481 -0.1865  0.1185 -0.7452
19385TIP3    H179646   0.333   1.103   4.448 -2.3430  2.6519  0.2603
19385TIP3    H279647   0.410   1.231   4.428 -1.5169  2.5651  2.6781
19386TIP3   OH279648   5.841   3.242  15.873 -0.3157 -0.7068  0.2618
19386TIP3    H179649   5.917   3.184  15.882  0.2931  0.5023  3.5671
19386TIP3    H279650   5.766   3.183  15.874  0.3829 -1.6016  1.6365
19387TIP3   OH279651   6.439   4.468  13.418 -0.0338 -0.2680  0.0486
19387TIP3    H179652   6.439   4.462  13.323 -1.2244  0.7250 -0.0143
19387TIP3    H279653   6.378   4.401  13.447  0.2976 -0.5430  0.1185
19388TIP3   OH279654   3.319   6.186  14.872  0.6620 -0.1713  0.4823
19388TIP3    H179655   3.347   6.209  14.784 -1.3304 -0.3985 -0.2349
19388TIP3    H279656   3.252   6.118  14.859  0.2250 -0.0832  2.1549
19389TIP3   OH279657   1.436   3.060  15.117 -0.4359 -0.2187  0.4589
19389TIP3    H179658   1.413   3.151  15.135  0.0133 -0.0376  0.1335
19389TIP3    H279659   1.352   3.015  15.108 -0.6871  0.6192 -1.6872
19390TIP3   OH279660   2.163   2.984   5.322 -0.5132 -0.3882 -0.1229
19390TIP3    H179661   2.251   2.955   5.348 -0.7513  0.3819  1.6769
19390TIP3    H279662   2.123   2.908   5.281  1.2841 -0.5038 -1.7077
19391TIP3   OH279663   4.150   3.399   5.738 -0.4544 -0.4612  0.3203
19391TIP3    H179664   4.173   3.492   5.742  0.0147 -0.5680  0.1472
19391TIP3    H279665   4.089   3.386   5.811 -0.3057 -0.0787  0.5130
19392TIP3   OH279666   4.572   0.048   3.611  0.1813  0.3533  0.1047
19392TIP3    H179667   4.500   0.019   3.667  0.5763  0.2812  0.5795
19392TIP3    H279668   4.547   0.136   3.583 -1.3570 -0.6906 -1.9151
19393TIP3   OH279669   1.786   6.166   5.093  0.4733  0.5193 -0.1413
19393TIP3    H179670   1.738   6.173   5.175 -2.0211 -0.3480 -1.4846
19393TIP3    H279671   1.755   6.239   5.040  0.6871 -0.0079 -1.0130
19394TIP3   OH279672   4.560   1.314   2.879  0.4847  0.2768 -0.4326
19394TIP3    H179673   4.552   1.292   2.971  1.4424 -0.4052 -0.5014
19394TIP3    H279674   4.652   1.340   2.868  0.5570 -0.3015 -1.3150
19395TIP3   OH279675   5.436   1.458   2.005  0.0587 -0.3144 -0.4272
19395TIP3    H179676   5.426   1.363   1.998 -0.9032 -0.0619 -3.2428
19395TIP3    H279677   5.529   1.474   1.989  0.1596 -0.7476 -0.2827
19396TIP3   OH279678   5.405   0.957   1.029 -0.1268 -0.1451  0.0091
19396TIP3    H179679   5.369   1.037   1.068 -1.9058  0.1171 -2.0692
19396TIP3    H279680   5.452   0.987   0.951  1.7165 -0.8584  0.8106
19397TIP3   OH279681   6.603   6.092   1.794  0.1899 -0.3555 -0.2719
19397TIP3    H179682   6.634   6.006   1.765  1.5863  0.4116 -1.1539
19397TIP3    H279683   6.545   6.121   1.724 -0.6067 -0.7506  0.2212
19398TIP3   OH279684   1.100   5.111  13.371 -0.1076 -0.1268  0.6108
19398TIP3    H179685   1.058   5.070  13.447 -0.8758 -3.0137 -1.3259
19398TIP3    H279686   1.177   5.058  13.354  0.2975  0.7721 -0.3815
19399TIP3   OH279687   2.344   2.193   2.740  0.7593  0.2139  0.4357
19399TIP3    H179688   2.371   2.268   2.793 -0.9245  0.3509  1.1301
19399TIP3    H279689   2.331   2.228   2.652 -0.0596  0.7579  0.7686
19400TIP3   OH279690   3.715   0.101  14.324  0.8216  0.2038  0.5670
19400TIP3    H179691   3.667   0.095  14.407  0.9931 -0.1483  0.6422
19400TIP3    H279692   3.807   0.095  14.349  0.9176  1.1166  0.4463
19401TIP3   OH279693   1.302   3.253   4.444 -0.2506 -0.5167 -0.0084
19401TIP3    H179694   1.297   3.250   4.540  0.2020  3.0145  0.1821
19401TIP3    H279695   1.395   3.244   4.424 -0.4417 -2.2659 -0.2127
19402TIP3   OH279696   6.777   5.877  16.085  0.0710 -0.0790 -0.6432
19402TIP3    H179697   6.772   5.963  16.044  1.8329  0.2420 -0.2251
19402TIP3    H279698   6.739   5.889  16.172 -0.1329  0.1529 -0.7629
19403TIP3   OH279699   3.287   6.698   2.702 -0.0292  0.1192 -0.0254
19403TIP3    H179700   3.262   6.721   2.791  0.5864 -0.2770  0.2490
19403TIP3    H279701   3.235   6.757   2.647  0.0452  0.7913  0.6126
19404TIP3   OH279702   1.525   2.351   3.365 -0.1165 -0.2135 -0.2915
19404TIP3    H179703   1.567   2.428   3.404  0.5379 -1.1766  0.9444
19404TIP3    H279704   1.438   2.381   3.339  0.7361  1.3887 -1.3955
19405TIP3   OH279705   4.470   2.183   4.642  0.3437 -0.2301 -0.2476
19405TIP3    H179706   4.521   2.148   4.714  2.0503  2.8037  0.0597
19405TIP3    H279707   4.511   2.146   4.563  1.0453 -0.2874  0.1440
19406TIP3   OH279708   5.939   4.225   5.903 -0.1612  0.1354 -0.1491
19406TIP3    H179709   5.922   4.135   5.929  0.4984  0.5898  1.9249
19406TIP3    H279710   6.007   4.256   5.963  0.9329  1.4481 -2.0084
19407TIP3   OH279711   0.680   3.054   5.990 -0.0419 -0.4582  0.0370
19407TIP3    H179712   0.773   3.067   5.971  0.1669  0.1865  1.4834
19407TIP3    H279713   0.643   3.028   5.906  1.5970 -1.5926 -0.3720
19408TIP3   OH279714   6.121   2.343  14.537  0.3380  0.2611 -0.3067
19408TIP3    H179715   6.106   2.378  14.449  0.7026  1.4889  0.1022
19408TIP3    H279716   6.087   2.411  14.596 -0.1416 -0.6622  0.5019
19409TIP3   OH279717   0.422   1.261  16.459  0.2567  0.6210  0.1623
19409TIP3    H179718   0.449   1.324  16.392 -0.1657 -0.4065 -0.9880
19409TIP3    H279719   0.504   1.231  16.498  0.5476  0.5630 -0.4935
19410TIP3   OH279720   1.245   1.070  11.820  0.1573 -0.7373  0.2649
19410TIP3    H179721   1.153   1.095  11.808  0.3889 -0.5084 -1.0852
19410TIP3    H279722   1.254   1.057  11.915 -0.8924  0.6986  0.5837
19411TIP3   OH279723   4.151   4.279  11.493  0.7183  0.2927  0.3136
19411TIP3    H179724   4.080   4.217  11.474  0.5652  0.0658  1.5397
19411TIP3    H279725   4.109   4.365  11.489  0.7137  0.2534 -0.4539
19412TIP3   OH279726   6.006   2.291  15.390 -0.3139  0.1310  0.0832
19412TIP3    H179727   5.973   2.256  15.473  0.1161 -1.2520 -0.3156
19412TIP3    H279728   6.088   2.334  15.413 -0.4728  0.2366  0.4607
19413TIP3   OH279729   2.219   3.898   2.761 -0.0619  0.2044 -0.1344
19413TIP3    H179730   2.212   3.991   2.742  1.1853 -0.4152 -4.2199
19413TIP3    H279731   2.131   3.863   2.742  0.2318  0.1274 -1.3625
19414TIP3   OH279732   5.012   0.199  10.998 -0.3215  0.2717 -0.0388
19414TIP3    H179733   5.026   0.262  10.928 -0.7624 -0.6271 -0.9636
19414TIP3    H279734   4.959   0.245  11.062 -1.0710  0.6902 -0.9431
19415TIP3   OH279735   6.288   4.284  12.952  0.2571  0.3426 -0.6318
19415TIP3    H179736   6.246   4.256  12.871  0.7946 -0.1132 -0.7565
19415TIP3    H279737   6.215   4.304  13.011 -0.1377 -0.6321 -0.7756
19416TIP3   OH279738   5.520   2.197  12.615 -0.4356  0.2788 -0.0204
19416TIP3    H179739   5.580   2.149  12.672 -0.7882 -0.0967  0.0387
19416TIP3    H279740   5.550   2.178  12.526 -0.7988 -0.3523 -0.0100
19417TIP3   OH279741   0.238   0.879  13.553 -0.4650  0.5549 -0.1412
19417TIP3    H179742   0.184   0.948  13.589  1.2818  1.2999  1.1147
19417TIP3    H279743   0.328   0.911  13.561  0.2826 -1.2345 -0.8712
19418TIP3   OH279744   4.098   0.810   1.591 -0.2094 -0.0868  0.5810
19418TIP3    H179745   4.159   0.806   1.517 -1.8993  0.1968 -0.8582
19418TIP3    H279746   4.081   0.903   1.604 -0.4354 -0.1697  0.9003
19419TIP3   OH279747   4.059   1.549   4.535  0.3603 -0.3913  0.3774
19419TIP3    H179748   4.039   1.455   4.535 -0.1637 -0.2912  2.2654
19419TIP3    H279749   4.091   1.567   4.623  0.6142  1.1843 -0.0227
19420TIP3   OH279750   0.845   2.991   4.327 -0.4586 -0.0765 -0.8328
19420TIP3    H179751   0.928   3.035   4.345 -0.7380  0.6302 -1.2667
19420TIP3    H279752   0.791   3.057   4.284 -0.7349 -0.9642 -1.8710
19421TIP3   OH279753   4.423   1.207  14.676  0.4639 -0.1641  0.3413
19421TIP3    H179754   4.334   1.239  14.670  0.6443  0.1318 -0.8172
19421TIP3    H279755   4.459   1.217  14.588  1.5026 -0.6758  0.6915
19422TIP3   OH279756   2.327   5.287   0.714 -0.0642 -0.0096 -0.0460
19422TIP3    H179757   2.394   5.236   0.667 -0.8560 -0.9562 -0.1835
19422TIP3    H279758   2.306   5.359   0.655  1.4342  0.7706  0.3622
19423TIP3   OH279759   0.761   5.405   3.001 -0.2630  0.0370  0.5281
19423TIP3    H179760   0.685   5.348   3.004 -0.0095 -0.3936 -1.1054
19423TIP3    H279761   0.747   5.462   2.926  0.1994  1.1383  1.2539
19424TIP3   OH279762   6.120   2.915  16.006 -0.2151 -0.4035  1.1170
19424TIP3    H179763   6.186   2.936  16.073  2.2613 -1.4782 -0.8884
19424TIP3    H279764   6.122   2.990  15.946  0.8782 -1.4425 -0.1863
19425TIP3   OH279765   5.687   2.524   1.221 -0.1351  0.1401  0.3337
19425TIP3    H179766   5.779   2.546   1.206 -0.5030  0.3639 -1.7608
19425TIP3    H279767   5.690   2.455   1.288  1.5180  0.5107  0.6719
19426TIP3   OH279768   2.410   5.635  15.798  0.1231 -0.3967 -0.4353
19426TIP3    H179769   2.416   5.554  15.848 -1.1765 -0.2487 -0.0147
19426TIP3    H279770   2.497   5.674  15.806  0.7227 -1.6813 -0.5450
19427TIP3   OH279771   0.331   2.179  13.973 -0.3267 -0.6072 -0.0111
19427TIP3    H179772   0.258   2.117  13.964 -0.9392  0.4406 -3.0184
19427TIP3    H279773   0.290   2.265  13.974  0.8070 -0.0006 -1.7473
19428TIP3   OH279774   2.913   1.516   3.839  0.0114  0.0947  0.0895
19428TIP3    H179775   2.859   1.522   3.760 -1.5217  0.2003  1.1166
19428TIP3    H279776   2.881   1.438   3.884  0.7628  0.1318  0.6972
19429TIP3   OH279777   0.851   4.875   4.476 -0.2286 -0.1376 -0.4478
19429TIP3    H179778   0.758   4.867   4.453 -0.3629  0.3463 -0.0969
19429TIP3    H279779   0.863   4.816   4.550  0.0081 -1.0636 -1.2256
19430TIP3   OH279780   3.698   4.864  16.601  0.0408  0.2138  0.2792
19430TIP3    H179781   3.617   4.814  16.591 -0.4745  0.9351  0.8596
19430TIP3    H279782   3.759   4.821  16.541 -0.3786 -1.1567  0.8074
19431TIP3   OH279783   4.210   6.809   3.088 -0.0117 -0.1807  0.3067
19431TIP3    H179784   4.280   6.854   3.136 -0.9181  1.3317  0.2388
19431TIP3    H279785   4.130   6.836   3.132 -0.6186 -1.3371 -0.0747
19432TIP3   OH279786   0.822   3.780   5.949  0.3817  0.7817  0.2968
19432TIP3    H179787   0.831   3.749   6.039 -1.7472  0.4039  0.4163
19432TIP3    H279788   0.895   3.841   5.937  1.9521 -0.8049  1.5496
19433TIP3   OH279789   3.257   4.005  14.367  0.0920  0.0255  0.1026
19433TIP3    H179790   3.325   3.990  14.302 -0.4695  1.5180 -0.8446
19433TIP3    H279791   3.206   3.924  14.367  0.5876 -0.2906 -0.7177
19434TIP3   OH279792   6.548   0.529  15.047  0.1542  0.1103  0.2805
19434TIP3    H179793   6.486   0.462  15.019 -0.3317  1.3234 -1.5551
19434TIP3    H279794   6.622   0.521  14.987  0.3384  0.8637  0.3980
19435TIP3   OH279795   5.734   4.828  10.924  0.2942  0.3003  0.0275
19435TIP3    H179796   5.814   4.776  10.933 -0.6140 -0.9399  1.0815
19435TIP3    H279797   5.676   4.772  10.873  0.6654  1.8860 -2.2264
19436TIP3   OH279798   5.835   4.055   2.258  0.0652 -0.0019  0.2174
19436TIP3    H179799   5.887   3.977   2.276 -0.3958 -0.1260  1.0548
19436TIP3    H279800   5.745   4.030   2.278  0.0639  1.0885  1.7005
19437TIP3   OH279801   2.206   4.330  14.436  0.3321  0.2847  0.0605
19437TIP3    H179802   2.228   4.348  14.527  1.6407  0.5820 -0.3011
19437TIP3    H279803   2.262   4.389  14.386 -1.9967  1.7488 -0.8809
19438TIP3   OH279804   3.419   6.643   4.141  0.4265  0.4906  0.0626
19438TIP3    H179805   3.419   6.548   4.156 -0.0266  0.3790 -0.6373
19438TIP3    H279806   3.327   6.666   4.131  0.6433  0.7035 -1.6148
19439TIP3   OH279807   5.714   0.546  10.851  0.7318 -0.4159 -0.5407
19439TIP3    H179808   5.624   0.577  10.846  0.3976 -1.0316  1.2061
19439TIP3    H279809   5.768   0.621  10.825 -0.2020  0.5469  0.2960
19440TIP3   OH279810   4.548   0.784   0.692 -0.0246  0.3779  0.7561
19440TIP3    H179811   4.609   0.804   0.621  0.1388  1.6546  1.2264
19440TIP3    H279812   4.531   0.690   0.684  1.1096  0.2283 -0.0845
19441TIP3   OH279813   3.233   2.660   0.941 -0.1395  0.0975  0.2614
19441TIP3    H179814   3.257   2.630   0.853  0.9437 -0.3052  0.6937
19441TIP3    H279815   3.151   2.709   0.928 -1.6555 -2.5340 -0.5625
19442TIP3   OH279816   3.416   3.455   4.904  0.0032  0.2270  0.1348
19442TIP3    H179817   3.461   3.540   4.901  1.1811 -0.3511  1.3578
19442TIP3    H279818   3.435   3.421   4.991 -0.7953 -1.1251 -0.2200
19443TIP3   OH279819   3.414   4.513   5.446  0.0262 -0.1669 -0.3336
19443TIP3    H179820   3.432   4.477   5.533  0.3578  1.6750  0.3885
19443TIP3    H279821   3.477   4.469   5.389  0.0627 -1.1159  0.4260
19444TIP3   OH279822   3.103   5.104   4.503  0.1021 -0.1261 -0.2383
19444TIP3    H179823   3.162   5.178   4.492  0.0111 -0.0401 -0.1456
19444TIP3    H279824   3.044   5.110   4.428 -0.5143  0.4553  0.2936
19445TIP3   OH279825   1.039   6.625  16.763  0.3846  0.4222  0.4528
19445TIP3    H179826   1.038   6.553  16.826  1.4536  0.7526  0.8734
19445TIP3    H279827   0.953   6.622  16.720  0.9801 -2.0074 -0.6062
19446TIP3   OH279828   0.994   6.272   0.302  0.3938 -0.2741 -0.9605
19446TIP3    H179829   0.971   6.338   0.368 -0.6153 -2.7178  1.2162
19446TIP3    H279830   0.913   6.258   0.253 -0.0851 -1.6265  0.1807
19447TIP3   OH279831   5.441   1.362   5.250 -0.2221 -0.0838 -0.6567
19447TIP3    H179832   5.404   1.347   5.163 -0.1553  0.4746 -0.7837
19447TIP3    H279833   5.530   1.328   5.244 -0.4671 -0.7461 -0.5760
19448TIP3   OH279834   2.273   3.093   1.064 -0.5596  0.2429  0.1474
19448TIP3    H179835   2.325   3.077   0.985 -0.8135 -0.8203  0.1988
19448TIP3    H279836   2.305   3.178   1.096  0.7358 -0.1254 -0.1413
19449TIP3   OH279837   6.314   1.664   6.078 -0.4209  0.0975  0.2486
19449TIP3    H179838   6.297   1.730   6.145  1.2881 -0.1768  0.9995
19449TIP3    H279839   6.408   1.674   6.058 -0.4329 -1.2334 -0.5588
19450TIP3   OH279840   3.174   1.956  13.003 -0.2809 -0.0334 -0.4071
19450TIP3    H179841   3.252   1.908  13.030 -0.0557  0.3816 -0.3333
19450TIP3    H279842   3.135   1.986  13.085 -0.4283 -0.0941 -0.4547
19451TIP3   OH279843   0.894   1.577  15.596 -0.4652  0.5666  0.0714
19451TIP3    H179844   0.927   1.662  15.626  0.5028  0.0192  0.5437
19451TIP3    H279845   0.799   1.588  15.596 -0.3827  1.3672  1.0025
19452TIP3   OH279846   3.519   1.974   0.722  0.3978 -0.7144  1.2581
19452TIP3    H179847   3.559   2.006   0.803  1.5887 -0.6249  0.6514
19452TIP3    H279848   3.555   2.031   0.654  2.8859 -3.5583  0.0792
19453TIP3   OH279849   0.556   5.371   0.694 -0.5944  0.5120  0.1540
19453TIP3    H179850   0.577   5.358   0.601  1.0491  0.1481  0.5497
19453TIP3    H279851   0.562   5.465   0.706  2.3000  0.3209  0.5508
19454TIP3   OH279852   1.421   3.531  12.880  0.3284 -0.5899  0.3094
19454TIP3    H179853   1.422   3.440  12.850 -0.4802 -0.7411  0.7109
19454TIP3    H279854   1.390   3.526  12.971 -1.0671  0.1894 -0.0918
19455TIP3   OH279855   0.157   3.370  12.621 -0.2692 -0.1973  0.5520
19455TIP3    H179856   0.106   3.319  12.558 -1.0219 -0.6803  1.5472
19455TIP3    H279857   0.231   3.314  12.643 -0.8632 -0.6779  1.3154
19456TIP3   OH279858   4.622   3.507  12.461 -0.0785  0.2098  0.7601
19456TIP3    H179859   4.715   3.529  12.456  0.0411 -0.5944 -1.0999
19456TIP3    H279860   4.620   3.416  12.492 -0.1863 -0.1894 -0.4056
19457TIP3   OH279861   0.364   0.998  15.236 -0.0884 -0.0116 -0.1751
19457TIP3    H179862   0.311   1.074  15.212  2.4339  2.0073  0.4967
19457TIP3    H279863   0.394   0.962  15.152  0.9111  1.3515 -0.4113
19458TIP3   OH279864   5.340   6.048   1.715 -0.5924 -0.1639 -0.7231
19458TIP3    H179865   5.385   6.131   1.701 -0.1772  0.4594  3.4592
19458TIP3    H279866   5.404   5.981   1.692  0.0250  0.7014 -1.5288
19459TIP3   OH279867   4.774   1.586   2.517 -0.4160 -0.1732 -0.2790
19459TIP3    H179868   4.750   1.496   2.537  0.4458 -0.2325  0.5043
19459TIP3    H279869   4.705   1.639   2.558  0.4524 -0.3654  1.4480
19460TIP3   OH279870   5.905   5.060  14.768  0.1031 -0.1699  0.0094
19460TIP3    H179871   5.933   5.053  14.859  1.1097  0.5452 -0.2370
19460TIP3    H279872   5.898   4.970  14.738 -0.4272 -0.4140  0.8508
19461TIP3   OH279873   4.665   3.077   3.356 -0.3175 -0.1960 -0.3178
19461TIP3    H179874   4.757   3.086   3.381 -0.2218 -1.8627  0.0137
19461TIP3    H279875   4.639   2.993   3.393 -1.4431 -0.6153 -2.0346
19462TIP3   OH279876   4.722   0.377  16.515 -0.5309 -0.3353 -0.1619
19462TIP3    H179877   4.681   0.429  16.584  0.2201 -0.3613  0.3021
19462TIP3    H279878   4.808   0.355  16.549 -0.0565 -0.1298 -1.2183
19463TIP3   OH279879   5.999   5.594  12.853 -0.4192  0.3927  0.4709
19463TIP3    H179880   5.904   5.589  12.857 -0.4351 -0.7373 -0.9280
19463TIP3    H279881   6.017   5.662  12.789 -0.2985  0.1644  0.2592
19464TIP3   OH279882   5.781   0.607  15.725 -0.0763  0.3238 -0.2804
19464TIP3    H179883   5.794   0.645  15.638 -0.6479  0.7593 -0.1764
19464TIP3    H279884   5.694   0.569  15.722  0.7689 -1.6903 -0.6318
19465TIP3   OH279885   4.574   1.998   1.027 -0.3151 -0.0567  0.1143
19465TIP3    H179886   4.591   2.086   0.994 -0.3387 -1.0596 -2.7298
19465TIP3    H279887   4.593   1.941   0.953  0.9798 -2.5738  2.3178
19466TIP3   OH279888   3.317   5.185   1.412  0.4286  0.3958  0.4866
19466TIP3    H179889   3.298   5.098   1.380 -0.3422  1.1604 -1.1897
19466TIP3    H279890   3.306   5.179   1.507 -0.3250 -1.1306  0.3124
19467TIP3   OH279891   5.136   0.214   0.775  0.1255 -0.0604  0.0863
19467TIP3    H179892   5.198   0.273   0.731  0.7485 -1.0604 -0.3930
19467TIP3    H279893   5.170   0.126   0.758 -0.2801 -0.5222  1.5751
19468TIP3   OH279894   4.305   3.296   3.775  0.3845 -0.0103 -0.1239
19468TIP3    H179895   4.249   3.228   3.736  2.9344 -0.6859 -2.7488
19468TIP3    H279896   4.354   3.250   3.844 -0.1699 -0.0741  0.2354
19469TIP3   OH279897   2.083   5.938   4.240 -0.1278 -0.0015 -0.1612
19469TIP3    H179898   2.157   5.973   4.290  0.6521 -2.5338  0.5539
19469TIP3    H279899   2.043   6.015   4.199  0.8216  1.8197  2.1939
19470TIP3   OH279900   2.768   6.628  16.576 -0.1587 -0.3953 -0.4712
19470TIP3    H179901   2.803   6.632  16.487  0.7314 -1.0463 -0.1555
19470TIP3    H279902   2.746   6.535  16.588 -3.6819  0.2479 -1.2948
19471TIP3   OH279903   6.008   0.337   0.372  0.2524 -1.2047 -0.3338
19471TIP3    H179904   5.996   0.257   0.422  1.1196 -2.3642 -1.9369
19471TIP3    H279905   5.956   0.324   0.293 -1.2901  0.6967  0.3254
19472TIP3   OH279906   3.436   3.156   0.303  0.3462 -0.4612 -0.0376
19472TIP3    H179907   3.386   3.088   0.258  0.3285 -1.6804  1.7953
19472TIP3    H279908   3.424   3.137   0.396  2.0096  0.8520  0.4553
19473TIP3   OH279909   1.075   6.463   1.992  0.4778  0.3364 -0.4031
19473TIP3    H179910   1.144   6.450   1.927  0.2283 -1.1168 -0.3825
19473TIP3    H279911   1.121   6.473   2.075  0.6274 -2.1078 -0.1611
19474TIP3   OH279912   1.035   5.298   3.946 -0.3397  0.2193 -0.3623
19474TIP3    H179913   0.961   5.258   3.991  0.9823 -0.9140  0.8467
19474TIP3    H279914   1.101   5.229   3.942  0.8395  1.3610 -0.9943
19475TIP3   OH279915   3.833   3.391  14.881 -0.1176 -0.3829 -0.1445
19475TIP3    H179916   3.824   3.439  14.798 -2.5338  0.0178  0.3090
19475TIP3    H279917   3.923   3.408  14.909 -0.1628  1.8997 -1.2169
19476TIP3   OH279918   4.072   2.755  11.885  0.1715 -0.0267  0.1116
19476TIP3    H179919   4.159   2.792  11.896 -0.5820  1.8832 -0.1126
19476TIP3    H279920   4.013   2.829  11.894 -1.4682 -1.3550  0.6654
19477TIP3   OH279921   6.722   3.492   3.747  0.1495 -0.1642  0.2456
19477TIP3    H179922   6.647   3.468   3.801  0.1456  0.4570  0.5214
19477TIP3    H279923   6.685   3.539   3.673  0.2938  0.4316  0.5506
19478TIP3   OH279924   4.523   1.833  12.246  0.2413 -0.3150 -0.0949
19478TIP3    H179925   4.479   1.816  12.329 -1.6821  1.3231 -0.7229
19478TIP3    H279926   4.603   1.879  12.270  0.3287 -0.9915  0.9245
19479TIP3   OH279927   6.296   3.015   5.061 -0.2768 -0.7185 -0.2974
19479TIP3    H179928   6.311   3.057   5.145  1.0561 -1.8533  0.0549
19479TIP3    H279929   6.206   3.036   5.039 -0.7455 -0.6951  1.5766
19480TIP3   OH279930   2.594   1.504  13.846  0.5273  0.3860  0.1578
19480TIP3    H179931   2.519   1.545  13.888  0.6808  1.7642 -0.8737
19480TIP3    H279932   2.624   1.439  13.909 -1.4839 -0.1412  0.6061
19481TIP3   OH279933   0.153   4.776   3.707  0.7717 -0.5567  0.1104
19481TIP3    H179934   0.115   4.860   3.680 -0.0506 -1.7307 -2.5839
19481TIP3    H279935   0.189   4.793   3.794  1.3373  2.8063 -0.6915
19482TIP3   OH279936   1.337   2.061  10.653 -0.0297  0.4657 -0.3585
19482TIP3    H179937   1.254   2.057  10.605 -0.5827 -2.4327  0.7218
19482TIP3    H279938   1.386   1.984  10.623  1.1064  0.6196  1.0337
19483TIP3   OH279939   6.790   2.654  15.036  0.0924  0.4220  0.1116
19483TIP3    H179940   6.847   2.581  15.014 -1.2651 -0.5958 -0.1305
19483TIP3    H279941   6.711   2.612  15.071 -0.9761  1.7365 -0.6692
19484TIP3   OH279942   0.557   3.155   3.896 -0.3696 -0.8797  0.2028
19484TIP3    H179943   0.590   3.113   3.817 -0.0743  0.3487 -0.3412
19484TIP3    H279944   0.463   3.138   3.895 -0.4939 -0.1829 -0.8478
19485TIP3   OH279945   4.984   3.301   6.245 -0.2400  0.4259 -0.6718
19485TIP3    H179946   5.010   3.301   6.337 -0.8311 -0.8246 -0.4961
19485TIP3    H279947   4.892   3.327   6.246 -1.1946 -2.7295 -0.5914
19486TIP3   OH279948   4.265   2.405   5.688 -0.4330  0.0152 -0.0330
19486TIP3    H179949   4.354   2.370   5.688 -0.5133 -0.2015 -0.5797
19486TIP3    H279950   4.271   2.487   5.736  0.3875  0.8063 -1.4611
19487TIP3   OH279951   1.577   1.170   3.316  0.2071 -0.6025  0.3542
19487TIP3    H179952   1.620   1.187   3.232 -0.4399  2.1355  0.5148
19487TIP3    H279953   1.488   1.145   3.293  0.4271 -1.2215  0.1786
19488TIP3   OH279954   3.128   1.526  15.105  0.0647 -0.0728  0.6147
19488TIP3    H179955   3.173   1.595  15.154 -1.0314  0.1328  1.3295
19488TIP3    H279956   3.037   1.531  15.134 -1.1085  1.5289 -3.0528
19489TIP3   OH279957   4.840   2.755  11.169  0.6757  0.6049 -0.7428
19489TIP3    H179958   4.840   2.666  11.132  0.0997 -0.0089  0.7078
19489TIP3    H279959   4.926   2.790  11.145  1.7561 -1.1017  0.4599
19490TIP3   OH279960   3.508   5.075   4.447 -0.3836  0.2311  0.2202
19490TIP3    H179961   3.535   5.155   4.402 -0.1991  0.0707  0.0440
19490TIP3    H279962   3.472   5.105   4.530  0.7400  0.4087  0.6445
19491TIP3   OH279963   5.811   6.197   2.642  0.5276 -0.4895  0.2565
19491TIP3    H179964   5.820   6.270   2.580 -0.3260  0.4324  1.1856
19491TIP3    H279965   5.872   6.131   2.611  0.3111  0.0686 -1.4112
19492TIP3   OH279966   3.396   1.895  14.335  0.2827  0.3134 -0.4577
19492TIP3    H179967   3.397   1.888  14.239 -1.1514  0.6679 -0.5057
19492TIP3    H279968   3.400   1.804  14.365  2.1004  0.2624 -0.8281
19493TIP3   OH279969   2.900   1.636  13.262 -0.3034  1.1488 -0.0432
19493TIP3    H179970   2.845   1.709  13.232 -0.3792 -0.3776 -3.7832
19493TIP3    H279971   2.838   1.568  13.287 -0.1748  1.0498  0.0056
19494TIP3   OH279972   4.644   1.706  11.368  0.1883  0.3254 -0.0679
19494TIP3    H179973   4.704   1.683  11.297 -0.2220  0.5425 -0.4887
19494TIP3    H279974   4.701   1.731  11.440  0.6183  1.3814 -0.7491
19495TIP3   OH279975   1.204   4.390   3.006 -0.1551  0.0792 -0.0339
19495TIP3    H179976   1.118   4.382   3.048 -0.6989 -0.6981 -1.2678
19495TIP3    H279977   1.248   4.460   3.055 -1.2270  0.0127  1.0444
19496TIP3   OH279978   1.069   0.523  14.775 -0.0887  0.6564  0.3851
19496TIP3    H179979   1.002   0.482  14.720  0.9628  1.5089 -1.5749
19496TIP3    H279980   1.072   0.614  14.747  0.5123  1.1014  1.8288
19497TIP3   OH279981   5.492   1.867  11.942  0.0870  1.0198 -0.0708
19497TIP3    H179982   5.571   1.834  11.985  0.6810  1.4266 -0.8494
19497TIP3    H279983   5.519   1.887  11.853 -0.8420  1.3770 -0.2801
19498TIP3   OH279984   0.633   6.414   4.135 -0.5367 -0.2197  0.0458
19498TIP3    H179985   0.719   6.431   4.171 -0.7221  0.2000  0.2970
19498TIP3    H279986   0.645   6.420   4.040 -0.2301 -0.4518  0.0714
19499TIP3   OH279987   1.715   5.426   3.440 -0.0127 -0.5956  0.5062
19499TIP3    H179988   1.639   5.485   3.441  0.4490  0.0085  0.1272
19499TIP3    H279989   1.791   5.484   3.436  0.4925 -1.1951  1.3364
19500TIP3   OH279990   6.675   3.454   4.495  0.4591 -0.4119  0.0604
19500TIP3    H179991   6.693   3.392   4.424  1.7909  0.9853 -0.8590
19500TIP3    H279992   6.757   3.457   4.545  0.4023  0.5891  0.1018
19501TIP3   OH279993   3.647   0.374   3.742 -0.3179  0.0624 -0.1169
19501TIP3    H179994   3.564   0.345   3.777 -0.1172  1.2845  1.4264
19501TIP3    H279995   3.640   0.360   3.647 -1.2285 -2.3563  0.2763
19502TIP3   OH279996   5.147   2.319   6.583 -1.4504  0.5060 -0.5600
19502TIP3    H179997   5.186   2.289   6.665 -1.2303 -0.5814 -1.0499
19502TIP3    H279998   5.076   2.377   6.610 -1.1213  0.4828  0.3857
19503TIP3   OH279999   6.597   5.637   3.557 -0.2802 -0.1529 -0.0217
19503TIP3    H180000   6.516   5.661   3.513  1.0622  0.8931 -2.0011
19503TIP3    H280001   6.571   5.572   3.622 -2.8525  0.9957  0.1401
19504TIP3   OH280002   2.347   0.883  12.558  0.0639 -0.1658 -0.0311
19504TIP3    H180003   2.307   0.941  12.493  0.8209 -1.8287 -2.0338
19504TIP3    H280004   2.335   0.795  12.522  1.0070 -1.0823  1.8278
19505TIP3   OH280005   5.557   0.566   2.886  1.0543  0.3276 -0.1119
19505TIP3    H180006   5.634   0.512   2.866  1.5959  0.9820  0.1617
19505TIP3    H280007   5.489   0.503   2.910  1.1862 -0.3167 -1.3826
19506TIP3   OH280008   4.107   4.234   1.445  0.8120 -0.0091  0.4390
19506TIP3    H180009   4.116   4.262   1.536 -0.5130  1.3122  0.1735
19506TIP3    H280010   4.013   4.227   1.430  0.8287  2.9757 -1.7314
19507TIP3   OH280011   4.946   2.138  12.213  0.4366  0.4232 -0.1129
19507TIP3    H180012   4.956   2.045  12.197 -0.3528  0.2899  0.1126
19507TIP3    H280013   4.992   2.154  12.296  1.5713  0.4604 -0.7505
19508TIP3   OH280014   3.924   0.571   6.497 -0.1414 -0.4660  0.0067
19508TIP3    H180015   3.854   0.581   6.433  0.2050 -1.0571 -0.4612
19508TIP3    H280016   3.969   0.655   6.497  0.0698 -0.5771 -0.7726
19509TIP3   OH280017   2.037   2.397   1.887  0.0425 -0.1586 -0.1685
19509TIP3    H180018   1.975   2.399   1.960 -0.2186  1.0228 -0.4211
19509TIP3    H280019   1.987   2.427   1.811  0.2876 -1.4630 -0.8716
19510TIP3   OH280020   3.077   3.336   6.055  0.4412 -0.5247  0.0753
19510TIP3    H180021   3.054   3.254   6.099 -3.9779  0.9776  0.7467
19510TIP3    H280022   3.050   3.323   5.964  0.2068  0.0059  0.0675
19511TIP3   OH280023   0.908   1.416   5.110  0.2535 -0.0560  0.1930
19511TIP3    H180024   0.983   1.451   5.063  0.4428  0.0426  0.5649
19511TIP3    H280025   0.876   1.489   5.163 -1.3015  0.4718 -1.4377
19512TIP3   OH280026   1.347   5.277   1.357  0.5192 -0.4288 -0.7069
19512TIP3    H180027   1.268   5.303   1.404  0.7140 -1.3617  0.1411
19512TIP3    H280028   1.368   5.353   1.302 -0.6626  0.0166 -0.5471
19513TIP3   OH280029   6.436   1.246  15.534 -0.1139  0.5285 -0.7073
19513TIP3    H180030   6.458   1.226  15.625 -2.9229  2.4730  0.4818
19513TIP3    H280031   6.482   1.328  15.516  0.7152 -0.0291 -1.1971
19514TIP3   OH280032   4.653   2.687  11.947  0.1827 -0.3331 -0.4592
19514TIP3    H180033   4.720   2.701  11.880  1.7017 -1.9141  0.7001
19514TIP3    H280034   4.634   2.593  11.943 -0.1593 -0.3295  0.9199
19515TIP3   OH280035   1.013   0.770  11.152  0.5374  0.1640  0.4213
19515TIP3    H180036   1.021   0.864  11.134  1.0237  0.1260  0.4333
19515TIP3    H280037   0.950   0.738  11.088 -1.0996  0.8641  1.6451
19516TIP3   OH280038   5.967   0.121   4.405 -0.6856  0.1019 -0.2241
19516TIP3    H180039   5.968   0.043   4.350  2.7124  0.2816 -0.5155
19516TIP3    H280040   6.001   0.091   4.490 -0.4069  1.0223  0.0028
19517TIP3   OH280041   1.732   5.655  16.171 -0.3258 -0.8673 -0.7570
19517TIP3    H180042   1.732   5.645  16.266  0.2446 -3.6120 -1.0120
19517TIP3    H280043   1.640   5.655  16.146 -0.6027  2.8470  0.0297
19518TIP3   OH280044   4.976   5.228  11.055  0.2487 -0.1085  0.0996
19518TIP3    H180045   4.994   5.320  11.069 -1.2063  0.0475  1.0601
19518TIP3    H280046   4.920   5.225  10.977  2.7476 -0.4492 -1.7655
19519TIP3   OH280047   3.023   2.587  13.741 -0.0461  0.3822 -0.3807
19519TIP3    H180048   3.034   2.567  13.834  0.2532  0.1790 -0.4588
19519TIP3    H280049   3.037   2.503  13.697 -2.0404  0.0722 -0.4809
19520TIP3   OH280050   4.147   2.887   2.034  0.4363  0.0366 -0.5766
19520TIP3    H180051   4.196   2.821   2.083  1.5987  0.8109 -0.6831
19520TIP3    H280052   4.196   2.900   1.953 -0.2814  0.3738 -0.9694
19521TIP3   OH280053   3.665   4.289   1.113  0.2338 -0.0261  0.3458
19521TIP3    H180054   3.588   4.310   1.060 -0.3797 -0.2458  1.1385
19521TIP3    H280055   3.706   4.215   1.068  1.3601  1.6411 -1.4259
19522TIP3   OH280056   3.573   2.336   6.672 -0.0736 -0.0272 -0.1578
19522TIP3    H180057   3.663   2.333   6.639 -1.0613  1.4142 -3.1877
19522TIP3    H280058   3.564   2.425   6.706 -0.6339  0.1755 -0.8160
19523TIP3   OH280059   4.476   4.637  15.551  0.1654 -0.1822  0.0003
19523TIP3    H180060   4.475   4.562  15.492  0.2371  0.3957 -0.7450
19523TIP3    H280061   4.455   4.601  15.637 -0.3120 -0.9718 -0.4477
19524TIP3   OH280062   2.337   5.544  14.819 -0.0083 -0.3772 -0.2162
19524TIP3    H180063   2.324   5.459  14.861 -1.5665 -0.0684 -0.0335
19524TIP3    H280064   2.253   5.589  14.829  0.4343  0.7397 -1.3207
19525TIP3   OH280065   2.039   0.892   5.680  0.0428  0.4132  0.3620
19525TIP3    H180066   2.031   0.924   5.590 -2.2428 -3.3748 -0.9271
19525TIP3    H280067   1.951   0.900   5.716  0.8251  1.3555  2.0934
19526TIP3   OH280068   2.223   2.705   5.819 -0.2000 -0.2676  0.4404
19526TIP3    H180069   2.256   2.616   5.822  1.4361  0.3192  0.4421
19526TIP3    H280070   2.270   2.751   5.889  0.4338  1.0660 -0.8415
19527TIP3   OH280071   1.838   1.096  15.239 -0.2973 -0.0587 -0.5290
19527TIP3    H180072   1.917   1.060  15.278 -0.3326 -0.9099 -1.2045
19527TIP3    H280073   1.785   1.018  15.217 -1.0228  0.4689 -0.6822
19528TIP3   OH280074   4.634   5.841  11.750  0.0423 -0.0839  0.0220
19528TIP3    H180075   4.600   5.930  11.764 -1.3832 -0.3192 -1.8657
19528TIP3    H280076   4.561   5.784  11.771  1.0103 -0.8612  1.3974
19529TIP3   OH280077   6.296   4.377   1.411  0.0322 -0.2444  0.1320
19529TIP3    H180078   6.319   4.462   1.448 -1.6754  1.0219 -1.5941
19529TIP3    H280079   6.373   4.351   1.360  1.1597 -0.5103  1.9301
19530TIP3   OH280080   2.683   5.962  11.511  0.6322 -0.1025 -0.3993
19530TIP3    H180081   2.680   5.933  11.420  0.7248 -1.8745  0.1433
19530TIP3    H280082   2.775   5.949  11.536  0.0542 -2.0785  0.7195
19531TIP3   OH280083   4.938   2.165  16.434 -0.1671 -0.0437  0.4279
19531TIP3    H180084   4.919   2.232  16.368  0.6652  0.0894  0.3170
19531TIP3    H280085   4.944   2.083  16.385 -2.6413 -0.4576  0.7463
19532TIP3   OH280086   4.989   0.996  16.435 -0.2297  0.1111 -0.0179
19532TIP3    H180087   5.001   0.926  16.499  0.3072 -0.1133 -0.3635
19532TIP3    H280088   4.918   0.965  16.379  0.0650 -0.1952 -0.2214
19533TIP3   OH280089   3.024   3.546   3.801 -0.0563  0.4127 -0.0853
19533TIP3    H180090   3.029   3.587   3.887 -0.5732  1.5532 -0.5907
19533TIP3    H280091   2.976   3.608   3.747  2.0293  0.6553 -1.7476
19534TIP3   OH280092   5.066   1.392   1.503 -0.0935 -0.0634 -0.2271
19534TIP3    H180093   5.087   1.299   1.502 -0.3285 -0.1163 -0.7877
19534TIP3    H280094   5.099   1.424   1.587 -1.4123 -0.9678  0.6593
19535TIP3   OH280095   3.881   3.524  13.279  0.4291  0.3212  0.2233
19535TIP3    H180096   3.947   3.530  13.210  0.4417  3.6781  0.4593
19535TIP3    H280097   3.806   3.482  13.236  0.8323  1.3586 -1.5222
19536TIP3   OH280098   2.270   3.530   4.565  0.7095  0.4643 -0.5515
19536TIP3    H180099   2.224   3.608   4.597  1.8153  1.4673 -1.3786
19536TIP3    H280100   2.243   3.521   4.474  0.5540 -0.1493 -0.4494
19537TIP3   OH280101   6.257   2.935  13.535 -0.2625 -0.1518  0.2280
19537TIP3    H180102   6.290   2.977  13.455  0.9004  0.3083  0.9436
19537TIP3    H280103   6.163   2.925  13.519 -0.1146  0.3360 -1.0238
19538TIP3   OH280104   1.495   6.134  14.768  0.5072 -0.3524 -0.2058
19538TIP3    H180105   1.485   6.089  14.851  1.3525  0.3732  0.2902
19538TIP3    H280106   1.578   6.181  14.775  0.2768  0.2301 -1.2067
19539TIP3   OH280107   4.485   0.605  15.612 -0.3519  0.0181 -0.0613
19539TIP3    H180108   4.481   0.632  15.520 -1.5669 -0.9283 -0.3090
19539TIP3    H280109   4.519   0.682  15.658 -2.3221  1.4636 -0.9411
19540TIP3   OH280110   0.217   1.466   4.654 -0.5193 -0.0534 -0.0912
19540TIP3    H180111   0.143   1.416   4.688  0.1452 -1.9372 -1.3144
19540TIP3    H280112   0.178   1.534   4.600 -1.4885  1.4228  2.3828
19541TIP3   OH280113   1.432   6.811   3.814 -0.6013 -0.6992  0.3739
19541TIP3    H180114   1.480   6.813   3.732 -0.6011 -0.5403  0.3771
19541TIP3    H280115   1.457   6.893   3.858 -0.1262 -1.0699  0.7974
19542TIP3   OH280116   6.390   1.120   4.497 -0.2047 -0.0722  0.2592
19542TIP3    H180117   6.446   1.073   4.435 -1.7110 -0.7545 -0.6143
19542TIP3    H280118   6.370   1.055   4.565 -1.0072 -0.2295 -0.1248
19543TIP3   OH280119   3.108   3.946   1.868  0.2658 -0.4088 -0.6940
19543TIP3    H180120   3.075   3.888   1.936 -0.7556 -0.3266 -1.1156
19543TIP3    H280121   3.057   4.026   1.876  1.8698  0.5792  0.0729
19544TIP3   OH280122   5.398   0.589  12.699  0.6773 -0.4542  0.3030
19544TIP3    H180123   5.400   0.507  12.650  0.7911  0.1845 -0.7980
19544TIP3    H280124   5.480   0.591  12.747  0.7685 -0.8903  0.1678
19545TIP3   OH280125   0.733   4.569  13.388 -0.2025  0.2749  0.4977
19545TIP3    H180126   0.762   4.599  13.474  0.5933  2.2130 -0.4186
19545TIP3    H280127   0.644   4.604  13.379  0.1738  1.1034  0.0270
19546TIP3   OH280128   0.363   1.924  16.861  0.1792  0.1804  0.2223
19546TIP3    H180129   0.308   1.930  16.938 -0.5783 -0.2357 -0.2784
19546TIP3    H280130   0.355   1.833  16.832 -0.5025  0.6223 -1.0306
19547TIP3   OH280131   0.228   5.275  14.239  0.1366 -0.2082 -0.7822
19547TIP3    H180132   0.258   5.288  14.150  0.9661  1.1551 -0.3218
19547TIP3    H280133   0.261   5.352  14.287 -0.3734 -0.8717  0.6629
19548TIP3   OH280134   4.950   1.506  17.004  0.1216  0.5345 -0.2171
19548TIP3    H180135   4.979   1.440  16.941  0.1904  0.2497  0.1110
19548TIP3    H280136   5.027   1.521  17.059  0.1972  1.1094 -0.4781
19549TIP3   OH280137   5.427   1.401  15.165 -0.0870  0.2687  0.3506
19549TIP3    H180138   5.423   1.458  15.241 -3.3958  2.5009 -1.3831
19549TIP3    H280139   5.513   1.419  15.126 -0.1737  2.3718  1.0834
19550TIP3   OH280140   5.873   6.387  14.550 -0.1059  0.4739  0.2647
19550TIP3    H180141   5.852   6.387  14.643  0.1506  0.5173  0.3240
19550TIP3    H280142   5.893   6.479  14.529 -4.1208  1.2069 -0.7515
19551TIP3   OH280143   3.423   5.173  10.995 -0.3336  0.4288 -0.1868
19551TIP3    H180144   3.475   5.143  11.069  1.9662  1.8252 -1.1805
19551TIP3    H280145   3.369   5.244  11.030 -0.2921  0.1526  0.4464
19552TIP3   OH280146   1.957   6.709   2.248 -0.4125  0.0091 -0.3866
19552TIP3    H180147   1.868   6.690   2.218 -0.0110 -2.0384 -0.3286
19552TIP3    H280148   2.001   6.745   2.170 -1.2904  1.0892 -0.3946
19553TIP3   OH280149   0.810   5.814  13.077 -0.0620  0.1570 -0.5171
19553TIP3    H180150   0.754   5.736  13.078  0.7196 -0.4430 -1.6886
19553TIP3    H280151   0.889   5.785  13.032  0.8891  1.2029  0.4544
19554TIP3   OH280152   6.007   1.358  14.394  0.0158  0.2902  0.6037
19554TIP3    H180153   5.989   1.433  14.451 -0.9253 -0.1027  0.8380
19554TIP3    H280154   6.056   1.395  14.321 -3.1232  1.7148 -0.8653
19555TIP3   OH280155   5.308   0.626   4.135 -0.3357 -0.5152  0.6960
19555TIP3    H180156   5.352   0.590   4.058 -1.0998 -1.3534  0.6442
19555TIP3    H280157   5.290   0.549   4.190 -0.9072 -0.0687  1.1352
19556TIP3   OH280158   2.741   3.681  14.535 -0.0667  0.7410 -0.7141
19556TIP3    H180159   2.712   3.704  14.623  1.8939  2.0315 -0.3689
19556TIP3    H280160   2.661   3.684  14.482 -1.2554  0.0227  0.9883
19557TIP3   OH280161   2.507   4.812  12.579  0.0418  0.2493 -0.3299
19557TIP3    H180162   2.515   4.900  12.541  0.0747 -0.2806 -1.5747
19557TIP3    H280163   2.585   4.802  12.633  1.1157  0.1889 -1.8528
19558TIP3   OH280164   2.417   4.801   1.375  0.3259  0.2975  0.5505
19558TIP3    H180165   2.324   4.821   1.375  0.5753  1.5175  1.4062
19558TIP3    H280166   2.424   4.718   1.328 -1.2474 -0.1078  1.0160
19559TIP3   OH280167   1.706   1.294   4.743 -0.2984 -0.0608  0.3368
19559TIP3    H180168   1.786   1.284   4.794 -0.1268  0.6812  0.2114
19559TIP3    H280169   1.648   1.225   4.777  0.0800 -0.0453  1.0224
19560TIP3   OH280170   5.866   5.753  16.821  0.1523  0.4948  0.0994
19560TIP3    H180171   5.949   5.769  16.778  0.6287 -0.6585  0.5466
19560TIP3    H280172   5.803   5.742  16.750  1.0048 -1.8201 -0.3557
19561TIP3   OH280173   5.586   2.583  16.280 -0.8509 -0.8515 -0.6377
19561TIP3    H180174   5.535   2.664  16.289  0.0711 -0.3544  0.2001
19561TIP3    H280175   5.533   2.528  16.223 -0.5612  1.1432 -2.9406
19562TIP3   OH280176   6.028   0.018  16.724 -0.3372 -0.2938 -0.1173
19562TIP3    H180177   5.937   0.007  16.753 -0.5187  0.3976 -0.4186
19562TIP3    H280178   6.026   0.094  16.666 -0.1457 -2.1843 -2.7017
19563TIP3   OH280179   0.129   2.646  17.168 -0.4847  0.5818  0.3206
19563TIP3    H180180   0.203   2.594  17.199 -0.7628 -0.5806 -0.9516
19563TIP3    H280181   0.090   2.682  17.248 -0.4523 -1.3804  1.2389
19564TIP3   OH280182   3.993   2.004  17.123 -0.6611 -0.7280 -0.5111
19564TIP3    H180183   3.934   2.056  17.068  2.5696  1.9723 -1.5678
19564TIP3    H280184   3.976   2.035  17.212 -0.7760  0.0883 -0.8125
19565TIP3   OH280185   4.990   2.859   4.966  0.0210  0.3312  0.5074
19565TIP3    H180186   4.925   2.897   4.907  1.1606 -1.0808 -1.7395
19565TIP3    H280187   4.944   2.785   5.007 -0.4177  0.5851  0.4819
19566TIP3   OH280188   6.679   3.969   5.491 -0.1510 -0.2857 -0.0462
19566TIP3    H180189   6.723   4.010   5.417 -0.6026 -1.5242 -1.0201
19566TIP3    H280190   6.586   3.973   5.469 -0.2525 -1.1448  0.2014
19567TIP3   OH280191   1.039   2.590  16.895  0.5543 -0.1716 -0.0019
19567TIP3    H180192   1.063   2.509  16.851 -2.3402  1.0792 -4.1298
19567TIP3    H280193   1.109   2.652  16.871  1.2873 -0.6453  0.8610
19568TIP3   OH280194   0.627   6.116  14.677 -0.3189 -0.0645  0.0981
19568TIP3    H180195   0.711   6.079  14.705 -0.5724 -1.0646 -0.4227
19568TIP3    H280196   0.649   6.177  14.607  0.1275  0.9181  1.0981
19569TIP3   OH280197   5.473   4.996   1.370  0.0012 -0.1817 -0.0064
19569TIP3    H180198   5.562   4.969   1.392 -0.1410 -0.2347  0.4977
19569TIP3    H280199   5.420   4.917   1.385 -0.1092 -0.1918 -0.4400
19570TIP3   OH280200   4.567   0.318  14.823 -0.2336  0.0282  0.3268
19570TIP3    H180201   4.593   0.403  14.859 -0.9749  0.3981  0.0045
19570TIP3    H280202   4.614   0.310  14.740 -1.6987  1.0222 -0.6119
19571TIP3   OH280203   3.670   0.121   3.950  0.1963 -0.4267  0.2501
19571TIP3    H180204   3.635   0.097   3.865 -1.3318 -0.3411  0.8387
19571TIP3    H280205   3.604   0.090   4.013 -0.1667  2.1730  1.2232
19572TIP3   OH280206   6.044   5.918  11.385 -0.0553 -0.2496  0.0893
19572TIP3    H180207   5.978   5.942  11.320 -0.7578 -1.9081  0.1915
19572TIP3    H280208   6.096   5.850  11.342  1.3742  0.7704  0.1510
19573TIP3   OH280209   6.075   3.067   4.682  0.2614  0.4702 -0.2798
19573TIP3    H180210   6.086   2.972   4.683  1.7659  0.6191  2.4372
19573TIP3    H280211   5.990   3.083   4.722  0.9929  0.3345  1.3639
19574TIP3   OH280212   1.595   4.084   2.301  0.7106 -0.5349  0.5492
19574TIP3    H180213   1.690   4.075   2.289  0.5543 -2.1546  0.4524
19574TIP3    H280214   1.568   4.143   2.231  1.5528 -0.5635  0.1885
19575TIP3   OH280215   4.771   2.586  15.666  0.1720 -0.1203 -0.4073
19575TIP3    H180216   4.688   2.633  15.672  0.9391  1.3163 -0.7896
19575TIP3    H280217   4.774   2.531  15.745 -1.3179 -0.5009 -0.6075
19576TIP3   OH280218   3.923   5.075   2.801  0.0065  0.6048 -1.1180
19576TIP3    H180219   3.873   5.120   2.870 -0.6961  0.1501 -1.3245
19576TIP3    H280220   3.856   5.031   2.748  0.6623 -0.3798 -1.1322
19577TIP3   OH280221   2.041   2.777   0.225  0.7396 -0.8260 -0.3098
19577TIP3    H180222   2.015   2.794   0.315 -0.8645 -1.5286 -0.6210
19577TIP3    H280223   2.073   2.862   0.193 -1.3690  0.1228  0.0326
19578TIP3   OH280224   3.000   0.822  10.675  0.0016  0.0187 -0.0104
19578TIP3    H180225   2.953   0.852  10.753  1.7743 -0.5649  1.3118
19578TIP3    H280226   3.021   0.902  10.627  1.4850  0.6304  1.6266
19579TIP3   OH280227   6.747   5.889  10.979 -0.2577 -0.1574 -0.0530
19579TIP3    H180228   6.744   5.922  10.889  1.9048  1.4378  0.4085
19579TIP3    H280229   6.797   5.808  10.973  0.9037  0.5530 -0.1455
19580TIP3   OH280230   4.509   3.764   0.984 -0.5208 -0.6093 -0.1788
19580TIP3    H180231   4.532   3.671   0.988  1.8749 -0.0078  1.4335
19580TIP3    H280232   4.479   3.786   1.072 -0.7826  0.2197 -0.4671
19581TIP3   OH280233   0.558   5.671   6.346  0.3542 -0.4080  0.5237
19581TIP3    H180234   0.484   5.651   6.288 -0.7893  0.3449  1.6814
19581TIP3    H280235   0.581   5.587   6.385 -0.3572 -0.5434  0.6715
19582TIP3   OH280236   1.294   4.382   4.841 -0.1519 -0.0706 -0.2648
19582TIP3    H180237   1.353   4.439   4.791  0.3750  0.3201  0.7730
19582TIP3    H280238   1.347   4.304   4.860 -0.7306 -0.7221 -1.3071
19583TIP3   OH280239   2.883   5.734  14.760  0.1162 -0.2249  0.1360
19583TIP3    H180240   2.846   5.771  14.839  0.6933  1.6598 -0.4460
19583TIP3    H280241   2.828   5.768  14.689  0.5351 -0.6368 -0.3979
19584TIP3   OH280242   0.617   4.224  12.856 -0.3197 -0.2961  0.3701
19584TIP3    H180243   0.549   4.268  12.806  0.5457  0.0649 -0.5205
19584TIP3    H280244   0.598   4.131  12.847 -0.9429 -0.1798  0.4881
19585TIP3   OH280245   1.848   6.387  13.489 -0.0056 -0.0282 -0.4786
19585TIP3    H180246   1.920   6.374  13.551  0.2865  2.8633 -0.1103
19585TIP3    H280247   1.770   6.355  13.535  0.7187 -1.0926  0.0141
19586TIP3   OH280248   1.113   4.993   1.065 -0.4631  0.6589  0.1228
19586TIP3    H180249   1.108   4.965   1.156 -0.7376  1.4684  0.3683
19586TIP3    H280250   1.162   5.075   1.068  0.4024  0.1633 -0.5816
19587TIP3   OH280251   0.208   3.277   1.663 -0.8433  0.3984 -0.4051
19587TIP3    H180252   0.281   3.255   1.605 -0.1270  1.0293  0.2356
19587TIP3    H280253   0.241   3.350   1.715 -0.2054 -2.3327  3.2199
19588TIP3   OH280254   0.929   6.028   2.905  0.4054  0.2451 -0.2667
19588TIP3    H180255   0.886   5.945   2.926 -2.5259  1.9284  0.8020
19588TIP3    H280256   0.872   6.068   2.839  0.4169  2.4676  1.0142
19589TIP3   OH280257   2.148   2.859   6.219  0.4215  0.6654  0.4670
19589TIP3    H180258   2.115   2.779   6.261  0.9204  0.0290 -0.3377
19589TIP3    H280259   2.070   2.911   6.200  0.2433  1.5292  3.2784
19590TIP3   OH280260   2.697   6.325   5.054  0.7043  0.2311 -0.2599
19590TIP3    H180261   2.697   6.309   5.149 -0.0019 -1.5132 -0.5543
19590TIP3    H280262   2.613   6.368   5.037  0.7857  0.4475 -0.1291
19591TIP3   OH280263   3.335   1.191  14.817  0.2022  0.7067  0.0558
19591TIP3    H180264   3.278   1.267  14.807 -2.5999 -1.1419  1.1964
19591TIP3    H280265   3.348   1.183  14.912  0.8469  0.0185 -0.0841
19592TIP3   OH280266   0.308   4.274  14.173 -0.0325 -0.5395  0.2212
19592TIP3    H180267   0.268   4.188  14.164 -0.4294 -0.4629  1.2277
19592TIP3    H280268   0.400   4.257  14.196  0.0049 -0.6928 -0.0443
19593TIP3   OH280269   0.273   1.596   2.838  0.1329  0.3905  0.1273
19593TIP3    H180270   0.291   1.531   2.770 -1.1772  0.2119 -0.0582
19593TIP3    H280271   0.327   1.569   2.912  0.7689 -0.0136 -0.4777
19594TIP3   OH280272   2.993   4.956   6.694 -0.4535 -0.0703  0.4119
19594TIP3    H180273   2.966   5.030   6.640 -1.4710 -1.4040 -0.9429
19594TIP3    H280274   2.912   4.922   6.732  0.0848 -0.0679  1.6158
19595TIP3   OH280275   6.473   3.406   4.860  0.5723  0.3809  0.4816
19595TIP3    H180276   6.473   3.500   4.843 -2.1461  0.2949 -0.2724
19595TIP3    H280277   6.390   3.390   4.904  1.9268 -1.3818  2.4842
19596TIP3   OH280278   3.850   1.743   4.084  0.3759 -0.2938 -0.6829
19596TIP3    H180279   3.775   1.750   4.026  0.7111 -0.3789 -1.1288
19596TIP3    H280280   3.843   1.655   4.122  0.5159 -0.4868 -1.0973
19597TIP3   OH280281   5.842   3.450   0.636  0.7330  0.2499 -0.0982
19597TIP3    H180282   5.779   3.426   0.703 -1.7806  1.7295 -1.8521
19597TIP3    H280283   5.907   3.380   0.638 -0.7986 -1.1737  1.9359
19598TIP3   OH280284   3.285   4.226   5.362  0.8672 -0.7824 -0.5552
19598TIP3    H180285   3.189   4.228   5.364  0.9129  1.8650  1.8022
19598TIP3    H280286   3.309   4.167   5.434  1.0356 -0.8136 -0.6352
19599TIP3   OH280287   1.015   4.169  15.912  0.3137 -0.2474 -0.3554
19599TIP3    H180288   0.975   4.251  15.940  0.4994 -0.1451 -0.3874
19599TIP3    H280289   0.986   4.158  15.821 -0.5710 -0.7588 -0.0155
19600TIP3   OH280290   2.181   4.165  16.869  0.3529  0.1520 -0.1679
19600TIP3    H180291   2.259   4.221  16.866 -0.1349  0.8038 -0.7733
19600TIP3    H280292   2.109   4.223  16.845 -0.1217 -0.8113 -1.0708
19601TIP3   OH280293   0.627   1.518  14.094  0.2746  0.2154  0.1370
19601TIP3    H180294   0.603   1.438  14.047 -1.6265  0.7562  0.1469
19601TIP3    H280295   0.649   1.489  14.182  1.9859 -0.5753 -0.5290
19602TIP3   OH280296   5.765   1.318  14.756 -0.2805 -0.5303 -0.0072
19602TIP3    H180297   5.751   1.250  14.690 -2.6033 -0.3300  0.2438
19602TIP3    H280298   5.721   1.285  14.834 -1.1487  1.0847  0.2143
19603TIP3   OH280299   1.767   6.698   0.343 -0.2263  0.1630  0.7350
19603TIP3    H180300   1.841   6.753   0.317 -0.7803  1.3256  1.5550
19603TIP3    H280301   1.786   6.612   0.306  0.9243  0.7716 -0.1090
19604TIP3   OH280302   6.655   4.520  15.638 -0.0406  0.5190  0.2642
19604TIP3    H180303   6.603   4.505  15.559  0.5894  1.3471 -0.3214
19604TIP3    H280304   6.683   4.433  15.665  1.0122  0.3520 -1.3034
19605TIP3   OH280305   0.708   1.736  13.954  0.0024 -0.2483 -0.0261
19605TIP3    H180306   0.683   1.655  13.998 -3.8460  0.1239 -1.2653
19605TIP3    H280307   0.710   1.801  14.025  2.1475 -1.2178  0.8227
19606TIP3   OH280308   5.914   3.840  15.780 -0.0658  0.8143 -0.1159
19606TIP3    H180309   5.950   3.922  15.813  0.3976  0.1427  1.1044
19606TIP3    H280310   5.863   3.805  15.853  0.9368 -0.6836 -0.0925
19607TIP3   OH280311   5.901   3.479   4.283 -0.3496 -0.5238  0.5560
19607TIP3    H180312   5.910   3.574   4.275 -1.6639 -0.5758 -2.0015
19607TIP3    H280313   5.985   3.449   4.316 -0.2870  1.6319  2.4627
19608TIP3   OH280314   4.293   3.136  11.626 -0.1638 -0.8196 -0.0358
19608TIP3    H180315   4.300   3.231  11.627 -0.2055 -0.8193  0.8912
19608TIP3    H280316   4.199   3.119  11.628 -0.1358 -0.8832  0.7656
19609TIP3   OH280317   0.695   5.875   5.150  0.2858 -0.0766 -0.5177
19609TIP3    H180318   0.770   5.821   5.129  0.7793  0.4051 -0.0118
19609TIP3    H280319   0.624   5.841   5.096  0.2301 -2.1105  0.7981
19610TIP3   OH280320   1.569   4.334  16.369 -0.2900 -0.4345  0.1877
19610TIP3    H180321   1.636   4.384  16.323 -0.2369 -1.3586 -0.7770
19610TIP3    H280322   1.609   4.310  16.452  0.4522 -0.6666 -0.2289
19611TIP3   OH280323   2.206   1.092  15.494 -0.3824 -0.0319 -0.6489
19611TIP3    H180324   2.152   1.056  15.565 -0.7312 -0.6681 -1.2243
19611TIP3    H280325   2.296   1.071  15.519 -0.3178  1.8498  0.7750
19612TIP3   OH280326   0.644   6.462   0.345  0.8964  0.7227 -0.3582
19612TIP3    H180327   0.602   6.534   0.392  1.1711  0.5990  0.0767
19612TIP3    H280328   0.578   6.392   0.344  0.4432  1.1661 -1.2298
19613TIP3   OH280329   5.764   4.571  15.941 -0.3174  0.4756 -0.3940
19613TIP3    H180330   5.834   4.630  15.971 -0.6291 -0.5446  2.5229
19613TIP3    H280331   5.807   4.508  15.884  1.1714 -0.1368  1.3720
19614TIP3   OH280332   1.492   3.775   4.314 -0.2657 -0.3328  0.0979
19614TIP3    H180333   1.562   3.742   4.258 -0.6020 -0.6956 -0.1137
19614TIP3    H280334   1.466   3.700   4.368  0.7223  0.2694  1.4378
19615TIP3   OH280335   3.693   3.464  12.511 -0.7986  0.9266 -0.5532
19615TIP3    H180336   3.671   3.554  12.485  1.0363  1.1347 -1.4487
19615TIP3    H280337   3.789   3.463  12.515 -0.8047 -1.0232 -0.6469
19616TIP3   OH280338   5.539   1.571   6.529 -0.3150  0.0362  0.6601
19616TIP3    H180339   5.567   1.506   6.594 -0.2371  0.5193  1.1055
19616TIP3    H280340   5.463   1.531   6.487  0.8864 -1.1893 -0.4011
19617TIP3   OH280341   1.349   6.031  12.478 -0.1436 -0.0917  0.2958
19617TIP3    H180342   1.357   6.092  12.405  0.3141 -0.3782  0.1044
19617TIP3    H280343   1.392   6.076  12.551 -1.3214  0.5451  0.6140
19618TIP3   OH280344   3.411   6.250  11.090 -0.2267 -0.3749  1.0232
19618TIP3    H180345   3.340   6.249  11.154 -1.0567  1.4172  0.1664
19618TIP3    H280346   3.367   6.240  11.005  0.5890  0.0933  0.5419
19619TIP3   OH280347   2.945   4.407   5.871  0.4180 -0.4936  1.1972
19619TIP3    H180348   2.951   4.461   5.950 -0.6595  0.3826  0.6985
19619TIP3    H280349   2.851   4.399   5.856  0.6251 -0.2155 -0.2981
19620TIP3   OH280350   3.460   5.311   1.175  0.1374  0.1034  0.6773
19620TIP3    H180351   3.434   5.301   1.267 -1.1583  2.1410  0.5603
19620TIP3    H280352   3.544   5.267   1.169 -0.3891 -1.2210  2.5376
19621TIP3   OH280353   1.865   2.509   1.674  1.1268  0.8639  0.9593
19621TIP3    H180354   1.867   2.603   1.658  1.2486  0.6912 -0.0651
19621TIP3    H280355   1.799   2.476   1.613 -0.1318  0.5021  2.4955
19622TIP3   OH280356   4.795   0.813   5.035 -0.4531  1.0229 -0.4523
19622TIP3    H180357   4.715   0.864   5.026 -1.2099 -0.2258 -0.9229
19622TIP3    H280358   4.854   0.850   4.969 -1.1420  1.0113 -1.0787
19623TIP3   OH280359   1.884   4.234   4.536 -0.2161 -0.2283  0.2327
19623TIP3    H180360   1.847   4.150   4.508  0.1437 -1.0142  2.0111
19623TIP3    H280361   1.838   4.299   4.483  0.9522 -1.6505 -2.6295
19624TIP3   OH280362   3.121   0.390  11.880 -0.0008 -0.0933  0.5920
19624TIP3    H180363   3.175   0.463  11.909  0.4942 -0.0677 -0.3608
19624TIP3    H280364   3.117   0.331  11.955 -0.1335  0.7556  1.2586
19625TIP3   OH280365   3.162   5.657  16.643  0.4922  0.2175 -0.2706
19625TIP3    H180366   3.074   5.643  16.676 -0.2712  3.5674 -0.7139
19625TIP3    H280367   3.177   5.584  16.582 -1.8277 -0.5641  0.0413
19626TIP3   OH280368   6.242   6.778  14.868 -0.3164 -0.0791  0.2626
19626TIP3    H180369   6.213   6.815  14.951 -0.5408 -0.4803  0.3614
19626TIP3    H280370   6.213   6.841  14.802 -0.8808 -0.1834  0.4115
19627TIP3   OH280371   5.896   1.972   5.697  0.2981 -0.2363 -0.1209
19627TIP3    H180372   5.898   1.910   5.769  1.2829 -0.7116 -0.5546
19627TIP3    H280373   5.907   1.919   5.618 -0.7466  0.2785 -0.6264
19628TIP3   OH280374   2.104   1.293  15.358 -0.1848 -0.3597  0.3001
19628TIP3    H180375   2.153   1.332  15.286 -1.4711 -1.0907 -0.9976
19628TIP3    H280376   2.165   1.232  15.399  0.3502 -0.4083 -0.5656
19629TIP3   OH280377   3.646   2.547  16.761 -0.0756 -0.4140  0.1601
19629TIP3    H180378   3.588   2.472  16.779  0.0694 -0.4349  0.5427
19629TIP3    H280379   3.651   2.550  16.665  2.7967 -3.1410  0.1424
19630TIP3   OH280380   0.426   5.542   6.031  0.2026  0.4555  0.0913
19630TIP3    H180381   0.408   5.459   6.076 -0.6573 -0.8858 -2.5699
19630TIP3    H280382   0.403   5.609   6.095 -2.3270 -1.3501  1.2025
19631TIP3   OH280383   5.025   2.697  13.364  0.7122 -0.1315 -0.3095
19631TIP3    H180384   4.973   2.777  13.372 -0.4501 -0.9690  0.6944
19631TIP3    H280385   5.104   2.714  13.416  0.3410  0.2476  0.1286
19632TIP3   OH280386   1.238   2.815   4.432 -0.2025 -0.1011 -0.5115
19632TIP3    H180387   1.258   2.768   4.351 -1.6742  0.1066 -1.0004
19632TIP3    H280388   1.207   2.901   4.403 -0.8053 -0.0483  0.2617
19633TIP3   OH280389   3.731   0.625   3.753 -0.3554 -0.6659 -0.3294
19633TIP3    H180390   3.751   0.633   3.846  1.2177 -1.9886 -0.5233
19633TIP3    H280391   3.703   0.534   3.741  2.1833 -1.3469 -1.5729
19634TIP3   OH280392   0.638   0.594  11.776 -0.2686 -0.1702  0.1114
19634TIP3    H180393   0.584   0.673  11.771  1.2719  0.9163  0.3802
19634TIP3    H280394   0.616   0.555  11.861  1.0049  1.4819  1.2249
19635TIP3   OH280395   6.044   1.010   4.521 -0.1083  0.1338 -0.4098
19635TIP3    H180396   6.032   1.101   4.547 -1.5461 -0.2818  0.4428
19635TIP3    H280397   6.060   1.013   4.427 -2.1174  1.1327 -0.7378
19636TIP3   OH280398   5.866   4.218   4.641 -0.3310 -0.2322 -0.2410
19636TIP3    H180399   5.929   4.174   4.698 -1.0621 -0.4902  0.3844
19636TIP3    H280400   5.909   4.300   4.616  0.8186 -1.0430 -0.9696
19637TIP3   OH280401   0.498   3.577   4.253  0.7368 -0.0461 -0.1586
19637TIP3    H180402   0.435   3.603   4.320  0.0099  0.3654 -1.0000
19637TIP3    H280403   0.473   3.487   4.230 -0.2278  0.4929 -1.2665
19638TIP3   OH280404   1.242   1.747   0.839  0.1995 -0.4833 -0.6217
19638TIP3    H180405   1.201   1.771   0.922 -0.7367 -1.2742 -0.8269
19638TIP3    H280406   1.195   1.799   0.773  1.1087  0.3278 -0.6328
19639TIP3   OH280407   0.417   5.314   2.721  0.4708 -0.2104 -0.1353
19639TIP3    H180408   0.403   5.312   2.627  1.7869 -0.9339 -0.3369
19639TIP3    H280409   0.329   5.309   2.759 -0.2341  2.6341 -1.3065
19640TIP3   OH280410   2.852   5.642  13.673 -0.5363  0.1570  0.0977
19640TIP3    H180411   2.789   5.573  13.695 -0.1190 -0.4902 -0.7076
19640TIP3    H280412   2.872   5.683  13.757  0.9982 -2.2451  0.9609
19641TIP3   OH280413   2.725   1.423  13.330 -0.3104 -0.0431 -0.3003
19641TIP3    H180414   2.728   1.330  13.309  5.6122 -0.2638  0.5106
19641TIP3    H280415   2.696   1.427  13.421 -0.7528 -1.1008 -0.3960
19642TIP3   OH280416   0.692   5.091  16.738  0.0668  0.1611  0.0961
19642TIP3    H180417   0.601   5.106  16.712  0.1498 -0.2563 -0.4384
19642TIP3    H280418   0.685   5.040  16.818 -0.1804  0.9799  0.6061
19643TIP3   OH280419   6.144   6.465   3.045  0.2142 -0.2703 -0.2077
19643TIP3    H180420   6.217   6.526   3.057 -1.4834  1.9079 -0.7831
19643TIP3    H280421   6.069   6.520   3.025 -1.0626 -2.6272 -2.2321
19644TIP3   OH280422   2.862   3.576  16.776 -0.3892 -0.7968 -0.0289
19644TIP3    H180423   2.788   3.516  16.773  0.8700 -2.3379 -1.1295
19644TIP3    H280424   2.906   3.555  16.858 -1.2309  0.2357  0.7101
19645TIP3   OH280425   4.180   1.232   0.774  0.2708  0.0646  0.1876
19645TIP3    H180426   4.197   1.238   0.868 -4.0291  0.6860  1.0262
19645TIP3    H280427   4.205   1.318   0.739 -0.0780  0.5656  1.1531
19646TIP3   OH280428   5.114   0.628  14.410 -0.2288 -0.4357  0.3054
19646TIP3    H180429   5.171   0.630  14.333  1.8368  2.6422  1.8353
19646TIP3    H280430   5.134   0.545  14.453  2.2489  0.0339  0.1336
19647TIP3   OH280431   4.584   0.782  16.717  0.3841 -0.4566  0.1328
19647TIP3    H180432   4.534   0.813  16.792 -1.3527 -0.3292 -1.0384
19647TIP3    H280433   4.666   0.750  16.754 -0.6829 -0.9659  2.1524
19648TIP3   OH280434   4.352   6.465  11.510 -0.1075  0.7464 -0.6029
19648TIP3    H180435   4.373   6.484  11.418 -4.1859  0.0423 -1.7987
19648TIP3    H280436   4.377   6.374  11.522 -2.5271 -0.1827 -2.0849
19649TIP3   OH280437   3.731   0.361  13.554 -0.4861  0.2704  0.6678
19649TIP3    H180438   3.826   0.369  13.545 -0.4347  0.5490  1.4046
19649TIP3    H280439   3.701   0.336  13.467  0.6422 -3.3226  1.2033
19650TIP3   OH280440   1.974   3.917   5.469  0.4408 -0.2450  0.7433
19650TIP3    H180441   1.899   3.905   5.410  0.7515 -2.9648  0.8340
19650TIP3    H280442   2.049   3.928   5.410  0.5413 -1.5207  0.6252
19651TIP3   OH280443   5.269   4.524  17.172 -0.4640 -0.6059 -0.3622
19651TIP3    H180444   5.274   4.435  17.135 -2.1669 -0.6977 -0.4311
19651TIP3    H280445   5.341   4.528  17.234  0.0937 -1.7837 -0.9078
19652TIP3   OH280446   2.257   1.942  15.026 -0.1068  0.4277 -0.7291
19652TIP3    H180447   2.177   1.927  14.975  0.2628  2.0501 -1.8173
19652TIP3    H280448   2.272   2.036  15.020  2.5144 -0.0031 -1.4846
19653TIP3   OH280449   3.840   4.618  12.407 -0.6857  0.4180 -0.2507
19653TIP3    H180450   3.830   4.581  12.495 -0.7354  0.9465 -0.0280
19653TIP3    H280451   3.923   4.583  12.375  0.2119  1.6012  0.7089
19654TIP3   OH280452   4.444   4.409  15.394  0.1168 -0.3592  0.0567
19654TIP3    H180453   4.475   4.413  15.304  0.1075  2.3573  0.1238
19654TIP3    H280454   4.486   4.332  15.431 -0.2261 -1.7588 -2.3837
19655TIP3   OH280455   4.909   5.111  15.095 -0.0968  0.0161  0.2201
19655TIP3    H180456   4.889   5.188  15.147  1.2860  0.2387  0.4531
19655TIP3    H280457   4.976   5.065  15.146  1.5895  0.4625 -1.5260
19656TIP3   OH280458   2.845   1.102  11.691 -0.1382 -0.0660 -0.2455
19656TIP3    H180459   2.823   1.016  11.657 -0.6309 -0.5275  1.2365
19656TIP3    H280460   2.761   1.142  11.714 -0.1110  1.6676 -2.8931
19657TIP3   OH280461   4.770   0.576   0.446 -0.0910  0.0194  0.2238
19657TIP3    H180462   4.759   0.669   0.468 -3.0845 -0.3796  0.6687
19657TIP3    H280463   4.740   0.529   0.524 -2.0029 -1.3224 -1.2734
19658TIP3   OH280464   1.083   1.751  13.999  0.1989  0.5141 -0.1075
19658TIP3    H180465   1.102   1.658  14.008 -0.1203  0.4375 -0.2465
19658TIP3    H280466   1.148   1.783  13.937  0.8468  0.5527  0.5781
19659TIP3   OH280467   3.458   3.514  15.876  0.5490  0.5090  0.6761
19659TIP3    H180468   3.507   3.597  15.883  0.3193  0.6327  0.8030
19659TIP3    H280469   3.391   3.520  15.944  0.1789  0.4568  0.3173
19660TIP3   OH280470   2.358   2.399   2.570  0.2629  0.0124 -0.3632
19660TIP3    H180471   2.291   2.394   2.502  0.2768  1.2260 -0.4644
19660TIP3    H280472   2.420   2.465   2.539  0.7773 -0.1130  0.3774
19661TIP3   OH280473   3.022   1.856   2.745 -0.2380 -0.3451  0.0906
19661TIP3    H180474   3.026   1.944   2.781 -1.4240 -0.3436  0.2400
19661TIP3    H280475   2.943   1.818   2.784 -0.6463 -0.8930 -1.2610
19662TIP3   OH280476   3.443   6.144  12.462 -0.8405  0.0890  0.2142
19662TIP3    H180477   3.491   6.128  12.544  0.7061 -2.0220 -1.0497
19662TIP3    H280478   3.375   6.077  12.461 -1.1870  0.4457  0.0125
19663TIP3   OH280479   4.049   1.826   3.721 -0.3361 -0.2303 -0.2456
19663TIP3    H180480   4.143   1.806   3.720 -0.5390 -1.1705 -1.2161
19663TIP3    H280481   4.010   1.755   3.773 -0.5082  0.1644  0.1659
19664TIP3   OH280482   1.317   6.551  10.915 -0.5107 -0.6157  0.8720
19664TIP3    H180483   1.353   6.574  10.829 -1.3180 -0.9562  0.4315
19664TIP3    H280484   1.392   6.521  10.966  0.1438  0.5487  0.6164
19665TIP3   OH280485   5.347   2.101   4.265  0.2043  0.7948 -0.5817
19665TIP3    H180486   5.276   2.042   4.239  1.1650 -0.4567 -0.3518
19665TIP3    H280487   5.427   2.060   4.232  0.9342  1.6877  0.0486
19666TIP3   OH280488   5.836   4.838   1.858  0.4209 -0.1918  0.1677
19666TIP3    H180489   5.789   4.910   1.900 -2.0662 -1.1556 -0.8491
19666TIP3    H280490   5.913   4.878   1.819 -0.9332  1.9296 -0.3777
19667TIP3   OH280491   0.599   0.140   5.780 -1.0117  0.5201  0.1928
19667TIP3    H180492   0.581   0.217   5.726 -0.7055  0.1185 -0.4884
19667TIP3    H280493   0.526   0.137   5.842 -2.7292 -0.4523 -1.8167
19668TIP3   OH280494   4.820   4.204  14.924  0.1561  0.3624 -0.2306
19668TIP3    H180495   4.771   4.128  14.894  1.8054 -0.1095 -1.8754
19668TIP3    H280496   4.901   4.168  14.960 -0.0666  1.1999  1.1474
19669TIP3   OH280497   4.952   6.723  12.728  0.4176 -0.1468  0.3881
19669TIP3    H180498   5.023   6.768  12.683  0.5567  0.4012  1.1520
19669TIP3    H280499   4.876   6.734  12.670  0.7660 -0.0773 -0.0612
19670TIP3   OH280500   0.146   0.457   3.286 -0.6711 -0.3477  0.2908
19670TIP3    H180501   0.241   0.464   3.299 -0.4752  0.3206 -1.3846
19670TIP3    H280502   0.114   0.547   3.299 -0.5491  0.2325 -2.8788
19671TIP3   OH280503   2.139   0.019  14.870 -0.2529  0.7836  0.2657
19671TIP3    H180504   2.125   0.025  14.965 -0.0499  0.4347  0.3172
19671TIP3    H280505   2.090  -0.058  14.843  2.1486 -0.9242  0.5672
19672TIP3   OH280506   3.424   2.073   0.373 -0.5794 -0.2425  0.1679
19672TIP3    H180507   3.503   2.055   0.322 -2.2376 -0.5376 -2.4260
19672TIP3    H280508   3.371   1.994   0.364 -1.3391  0.1003  1.5349
19673TIP3   OH280509   0.548   2.355   6.189  0.4761  0.4919 -0.7089
19673TIP3    H180510   0.553   2.450   6.200 -0.7262  0.6896 -1.7772
19673TIP3    H280511   0.583   2.319   6.271  0.7124  1.8445 -0.2056
19674TIP3   OH280512   3.030   3.512   5.011  0.1034 -0.4556  0.0994
19674TIP3    H180513   2.979   3.436   5.038 -1.4275  1.3848  2.6448
19674TIP3    H280514   3.077   3.539   5.089 -1.0292  2.4438 -0.1457
19675TIP3   OH280515   6.486   1.250   0.866 -0.7277 -0.1181  0.0634
19675TIP3    H180516   6.574   1.284   0.881 -0.7701  0.1089 -0.1872
19675TIP3    H280517   6.463   1.282   0.779 -0.6055 -1.1503 -0.3489
19676TIP3   OH280518   3.715   1.941   1.663 -0.5875 -0.5499 -0.0920
19676TIP3    H180519   3.758   2.013   1.709 -2.2469  1.0687 -0.9937
19676TIP3    H280520   3.770   1.924   1.587 -1.5695  1.6310 -1.3392
19677TIP3   OH280521   5.194   0.064  11.413 -0.1072  0.1233 -0.2002
19677TIP3    H180522   5.152   0.022  11.488  0.1015 -0.4122 -0.3837
19677TIP3    H280523   5.177   0.157  11.426  1.9272  0.2733  1.7917
19678TIP3   OH280524   5.631   3.346   0.815  0.4794  0.3040 -0.0886
19678TIP3    H180525   5.686   3.291   0.872  0.4656  0.6806  0.2938
19678TIP3    H280526   5.544   3.340   0.854 -0.1135 -1.5857 -1.6205
19679TIP3   OH280527   5.313   2.379   4.365  0.2468  0.0626  0.2597
19679TIP3    H180528   5.318   2.284   4.355 -1.9142  0.0364 -0.9399
19679TIP3    H280529   5.312   2.412   4.275  0.0935  1.1790  0.6674
19680TIP3   OH280530   2.860   1.252   2.728 -0.6829  0.0514 -0.1346
19680TIP3    H180531   2.796   1.278   2.794 -2.4120  0.5211 -1.9250
19680TIP3    H280532   2.938   1.303   2.749 -1.1243 -0.0012  1.6769
19681TIP3   OH280533   3.315   4.112  12.175 -0.0345  0.0562 -0.5085
19681TIP3    H180534   3.262   4.162  12.114 -1.1502  1.0662  1.2441
19681TIP3    H280535   3.254   4.083  12.243  1.5896  1.2387  1.5503
19682TIP3   OH280536   0.197   3.742  13.568  0.7546  0.5072 -0.4941
19682TIP3    H180537   0.260   3.693  13.514 -1.7607 -2.1930 -1.0821
19682TIP3    H280538   0.216   3.714  13.658 -0.9343 -1.9873 -0.8600
19683TIP3   OH280539   2.751   4.640   1.454 -0.5663  0.3431 -0.3606
19683TIP3    H180540   2.776   4.731   1.470 -0.1544  0.1713 -0.0337
19683TIP3    H280541   2.832   4.590   1.464 -1.0565 -0.2283  0.8453
19684TIP3   OH280542   5.506   5.766   0.893 -0.7740  0.5362  0.1180
19684TIP3    H180543   5.557   5.714   0.831  0.4524  0.7893  0.9001
19684TIP3    H280544   5.422   5.781   0.849  0.0655  0.6745 -1.4491
19685TIP3   OH280545   0.157   2.929   0.333  0.3921  0.0460 -1.0952
19685TIP3    H180546   0.235   2.874   0.346  0.2940  0.0340 -0.5369
19685TIP3    H280547   0.145   2.974   0.417  0.2534  0.6384 -1.4353
19686TIP3   OH280548   1.333   3.720   5.413 -0.0796 -0.1373  0.1896
19686TIP3    H180549   1.390   3.791   5.443  0.3146  0.0353 -0.9178
19686TIP3    H280550   1.365   3.700   5.324 -0.0997 -1.7910  0.5332
19687TIP3   OH280551   4.001   2.301   5.562  0.2517  0.7714 -0.6447
19687TIP3    H180552   3.968   2.251   5.637 -1.7320  3.5594  0.4331
19687TIP3    H280553   4.086   2.335   5.591 -0.0943  1.0823  0.0143
19688TIP3   OH280554   1.294   0.379  14.876 -0.0976  0.0817  0.2421
19688TIP3    H180555   1.259   0.296  14.908  0.1807  0.3877  1.3856
19688TIP3    H280556   1.219   0.422  14.834 -0.4838 -0.3310  0.5024
19689TIP3   OH280557   6.581   4.123   4.505  0.1107 -0.1642 -0.6043
19689TIP3    H180558   6.561   4.073   4.584 -0.6015 -0.1261 -0.7596
19689TIP3    H280559   6.561   4.063   4.433  2.4892 -0.8560 -0.7475
19690TIP3   OH280560   0.290   6.122   4.161 -0.6696 -0.2598  0.0559
19690TIP3    H180561   0.202   6.151   4.182  0.3108  2.5016  0.6444
19690TIP3    H280562   0.346   6.171   4.221  1.4268 -0.2391 -1.8331
19691TIP3   OH280563   3.808   0.072  14.849 -0.1782  0.5453  0.1796
19691TIP3    H180564   3.859   0.019  14.910 -0.6931 -0.5772 -0.3610
19691TIP3    H280565   3.721   0.077  14.889  0.1378  1.8796  0.7540
19692TIP3   OH280566   5.273   5.442  10.423  0.2748 -0.1822  0.4112
19692TIP3    H180567   5.247   5.350  10.424  2.0462 -0.7030  1.4282
19692TIP3    H280568   5.356   5.443  10.470  0.2932  1.9395  0.3480
19693TIP3   OH280569   1.168   5.224   3.328  0.3614 -0.4501  0.1027
19693TIP3    H180570   1.139   5.202   3.240  0.2370 -0.0595  0.0467
19693TIP3    H280571   1.258   5.191   3.332  0.3930 -0.4023 -0.1913
19694TIP3   OH280572   4.430   1.093   5.436  0.0938  0.0876  0.4452
19694TIP3    H180573   4.498   1.030   5.410  1.3125  1.2166  0.8184
19694TIP3    H280574   4.362   1.040   5.477  0.3554 -1.1695 -0.6959
19695TIP3   OH280575   1.105   5.603  15.977 -0.4379 -0.0928  0.3573
19695TIP3    H180576   1.152   5.685  15.995 -0.0712  0.4375 -2.8016
19695TIP3    H280577   1.013   5.627  15.985 -0.3545  0.8290 -1.2727
19696TIP3   OH280578   0.718   5.791  11.584 -0.3982  0.0524  0.5430
19696TIP3    H180579   0.738   5.816  11.493 -1.9186 -0.9302 -0.0866
19696TIP3    H280580   0.800   5.753  11.616  0.1882  0.4836 -0.3977
19697TIP3   OH280581   6.741   3.196   3.718  0.0204 -0.3304 -0.0433
19697TIP3    H180582   6.650   3.180   3.744 -0.1260  0.8122  0.1758
19697TIP3    H280583   6.739   3.283   3.679  0.7860 -0.8340 -1.2406
19698TIP3   OH280584   3.422   2.631  15.589  0.0032 -0.3549  0.2427
19698TIP3    H180585   3.432   2.723  15.565  1.0603 -0.5818 -0.1924
19698TIP3    H280586   3.346   2.630  15.648 -1.1788  0.5096 -1.2448
19699TIP3   OH280587   3.876   5.833  16.401  0.5365  0.4598  0.1885
19699TIP3    H180588   3.952   5.786  16.367  0.4553 -0.4685  1.2697
19699TIP3    H280589   3.861   5.795  16.487 -0.8668  0.9637  0.1793
19700TIP3   OH280590   6.529   0.035   1.752  0.2794  0.2057  0.2730
19700TIP3    H180591   6.511   0.105   1.815 -1.2127 -0.0555  0.1470
19700TIP3    H280592   6.590   0.075   1.689 -0.2724  1.2758  0.4153
19701TIP3   OH280593   1.512   3.509  12.552  0.1585 -1.2497  0.3096
19701TIP3    H180594   1.529   3.416  12.570  1.3780 -1.1993 -0.4468
19701TIP3    H280595   1.526   3.517  12.457  0.2667 -0.2512  0.4069
19702TIP3   OH280596   2.784   1.837  13.869  0.3199 -0.3537 -0.6337
19702TIP3    H180597   2.765   1.775  13.799  1.2381 -0.5387 -0.7316
19702TIP3    H280598   2.829   1.786  13.936 -2.6974 -0.7011  1.1954
19703TIP3   OH280599   5.332   3.728   1.290 -0.3273  0.5136  0.0562
19703TIP3    H180600   5.252   3.775   1.312 -0.7326 -0.9140  1.7701
19703TIP3    H280601   5.309   3.635   1.298  1.0712  0.0417 -0.9894
19704TIP3   OH280602   4.372   0.773  13.501 -0.2103 -0.4137  0.6335
19704TIP3    H180603   4.340   0.767  13.590  1.2424 -2.2073  1.0621
19704TIP3    H280604   4.345   0.691  13.459 -1.9296  0.9200 -0.9505
19705TIP3   OH280605   4.951   0.633   2.560 -0.3033  0.2352  0.1109
19705TIP3    H180606   4.887   0.658   2.626 -0.2725 -0.3922  0.3800
19705TIP3    H280607   5.036   0.650   2.602 -0.2736 -0.9206  0.5366
19706TIP3   OH280608   3.693   4.373   2.673 -0.2104 -0.2698  0.2856
19706TIP3    H180609   3.632   4.301   2.688  0.0158 -0.6308 -0.5208
19706TIP3    H280610   3.743   4.380   2.754  0.9942 -2.1882 -0.2699
19707TIP3   OH280611   6.563   4.561  12.758  0.4213 -0.3669  0.9307
19707TIP3    H180612   6.586   4.585  12.848  1.1023 -1.4924  1.0668
19707TIP3    H280613   6.646   4.557  12.712  0.1491 -0.6246  0.4531
19708TIP3   OH280614   4.188   0.341  14.684  0.5393  0.4872 -0.0654
19708TIP3    H180615   4.181   0.261  14.631 -3.0374 -0.3508  1.5189
19708TIP3    H280616   4.194   0.310  14.774  1.3229  1.9615  0.4035
19709TIP3   OH280617   3.993   4.970   2.021 -0.3334  0.0825 -0.3405
19709TIP3    H180618   3.917   4.994   1.969  0.1326  1.5056 -0.4003
19709TIP3    H280619   3.960   4.904   2.083 -1.4854  0.3012 -0.7054
19710TIP3   OH280620   0.199   2.736  16.105 -0.6394 -0.1839 -0.4204
19710TIP3    H180621   0.152   2.667  16.058  0.5724 -1.5005  0.2594
19710TIP3    H280622   0.216   2.698  16.192  1.6541  0.2728 -0.6450
19711TIP3   OH280623   6.229   2.546   3.098  0.1914  0.5821 -0.5103
19711TIP3    H180624   6.239   2.575   3.189  0.5791  1.1964 -0.7459
19711TIP3    H280625   6.316   2.516   3.072  0.0946  0.4602 -0.7021
19712TIP3   OH280626   3.030   2.124   1.602 -0.1733  0.9318  0.1225
19712TIP3    H180627   3.107   2.080   1.638 -0.9078  0.4144  1.0693
19712TIP3    H280628   3.040   2.215   1.628 -0.1726  0.7564  0.7307
19713TIP3   OH280629   0.820   2.526  15.830 -0.2098 -0.0059 -0.1471
19713TIP3    H180630   0.878   2.518  15.754  0.8293  3.6855  0.1711
19713TIP3    H280631   0.831   2.444  15.877  2.4899 -0.5911 -1.6939
19714TIP3   OH280632   0.755   1.096  14.311  0.2150 -0.0866 -0.1028
19714TIP3    H180633   0.828   1.047  14.273  0.9516 -0.0876  1.2816
19714TIP3    H280634   0.790   1.184  14.326 -0.3833  0.2009 -0.3594
19715TIP3   OH280635   5.743   4.879  13.482  0.1476 -0.6039  0.5458
19715TIP3    H180636   5.695   4.946  13.532  0.4877  1.1903 -1.4753
19715TIP3    H280637   5.823   4.865  13.533  1.2340  2.3690 -0.2567
19716TIP3   OH280638   0.875   0.201   6.486 -1.1027 -0.1163  0.5866
19716TIP3    H180639   0.971   0.204   6.483 -1.0270  0.0292  2.2276
19716TIP3    H280640   0.848   0.291   6.466 -0.8590  0.0292  0.9038
19717TIP3   OH280641   5.973   3.509  10.453  0.3649  0.3464 -0.6073
19717TIP3    H180642   5.995   3.478  10.541 -0.9139  1.7977  0.2560
19717TIP3    H280643   5.939   3.597  10.467 -0.9614  0.1530 -2.4280
19718TIP3   OH280644   5.632   3.962  13.124 -0.3234  0.0127  0.4613
19718TIP3    H180645   5.657   3.899  13.056  1.9594  0.9765  0.3363
19718TIP3    H280646   5.554   4.006  13.089  2.0116  1.9637 -2.6085
19719TIP3   OH280647   2.523   4.060  12.813  0.5319  0.3467  0.1503
19719TIP3    H180648   2.536   4.083  12.721 -1.6445  0.6456 -0.1307
19719TIP3    H280649   2.444   4.006  12.813  2.2633 -2.2837  1.5127
19720TIP3   OH280650   4.650   0.443   3.612  0.8921 -0.1687  0.2096
19720TIP3    H180651   4.720   0.478   3.555  1.1911  0.0783  0.7263
19720TIP3    H280652   4.648   0.503   3.687  0.8731 -0.8135  0.7241
19721TIP3   OH280653   0.061   0.916  15.111  0.1905  0.1170 -0.2256
19721TIP3    H180654   0.061   0.865  15.191 -0.0414 -0.6890 -0.7313
19721TIP3    H280655   0.070   1.007  15.140  1.2475 -0.2560  0.6401
19722TIP3   OH280656   6.663   4.126   3.454  0.2936  0.2185 -0.6018
19722TIP3    H180657   6.708   4.193   3.506 -0.4020 -0.5579  1.0465
19722TIP3    H280658   6.715   4.047   3.467 -1.1065 -0.5218  0.7704
19723TIP3   OH280659   3.137   3.760  13.852  0.7381  0.0338  0.5782
19723TIP3    H180660   3.189   3.718  13.783  0.3473 -0.5465  0.6348
19723TIP3    H280661   3.049   3.725  13.840  0.8914 -0.8843  2.0379
19724TIP3   OH280662   3.337   0.163  16.758 -0.6600 -0.0200  0.4616
19724TIP3    H180663   3.279   0.226  16.716  0.0882  0.0912 -0.4295
19724TIP3    H280664   3.282   0.117  16.821 -1.1365  1.7432  1.3441
19725TIP3   OH280665   2.756   1.980   1.275  0.0518  0.5388 -0.2668
19725TIP3    H180666   2.770   1.933   1.358 -1.2439 -3.3958 -2.1617
19725TIP3    H280667   2.685   2.041   1.294  0.3792  0.3608  1.7288
19726TIP3   OH280668   4.272   3.243   5.288  0.2583 -0.0828  0.1345
19726TIP3    H180669   4.254   3.214   5.378 -1.0233 -1.1256 -0.4449
19726TIP3    H280670   4.187   3.264   5.252  0.6764 -0.4966 -1.1139
19727TIP3   OH280671   0.560   3.362  13.126  0.1299 -0.9987 -1.1449
19727TIP3    H180672   0.541   3.403  13.041  1.1569 -1.5943 -1.6844
19727TIP3    H280673   0.508   3.282  13.126 -1.9029  0.2790 -0.0776
19728TIP3   OH280674   2.118   6.573  11.425  0.1995 -0.5942 -0.8787
19728TIP3    H180675   2.139   6.522  11.347 -1.4745  0.1737 -1.8574
19728TIP3    H280676   2.174   6.651  11.420 -1.8467  0.7865 -2.7552
19729TIP3   OH280677   0.340   5.731  13.947 -0.4605 -0.0225  0.3370
19729TIP3    H180678   0.345   5.826  13.940  0.4498 -0.1095 -0.3349
19729TIP3    H280679   0.251   5.710  13.920 -1.1674  0.7581  2.0110
19730TIP3   OH280680   6.434   5.863  11.815  0.5048 -0.2989  0.3903
19730TIP3    H180681   6.445   5.881  11.721  2.7012  1.0428  0.8681
19730TIP3    H280682   6.402   5.945  11.852 -3.5321 -1.7653  0.3649
19731TIP3   OH280683   0.694   5.212  12.208 -0.0454 -0.8095  0.2849
19731TIP3    H180684   0.726   5.300  12.227  0.6217 -0.7818 -0.9225
19731TIP3    H280685   0.609   5.225  12.167  0.1463 -0.7275 -0.0811
19732TIP3   OH280686   1.351   5.906  13.472  0.3015 -0.2469 -0.4012
19732TIP3    H180687   1.274   5.961  13.487  1.9187  1.9779  0.0182
19732TIP3    H280688   1.359   5.900  13.377  0.2950  0.5174 -0.4497
19733TIP3   OH280689   2.533   3.131   0.020  0.4555 -0.2364 -0.4049
19733TIP3    H180690   2.601   3.196  -0.001 -0.8826  1.4200  0.3085
19733TIP3    H280691   2.456   3.161  -0.027  0.7580 -3.3582 -3.0408
19734TIP3   OH280692   3.730   3.885   2.943  0.2758  0.1659  0.1602
19734TIP3    H180693   3.799   3.921   2.999  1.7150 -0.9666 -0.8426
19734TIP3    H280694   3.717   3.796   2.976 -0.7589  0.4052  0.3917
19735TIP3   OH280695   6.638   4.687  10.897 -0.1320  0.4540  0.8730
19735TIP3    H180696   6.568   4.650  10.842 -1.1081 -2.0288  3.6416
19735TIP3    H280697   6.643   4.779  10.870 -1.8572 -0.2078 -2.0098
19736TIP3   OH280698   3.909   4.196  11.407  0.2137 -0.4406 -0.0090
19736TIP3    H180699   3.885   4.209  11.315 -0.6008 -0.7408  0.1546
19736TIP3    H280700   3.904   4.102  11.420  0.7227 -0.4329  0.2381
19737TIP3   OH280701   4.695   4.341   3.529  0.0935 -0.0984 -0.3748
19737TIP3    H180702   4.791   4.347   3.532  0.1836 -1.2930 -0.5495
19737TIP3    H280703   4.669   4.411   3.469  0.8659  0.1465 -0.4381
19738TIP3   OH280704   6.292   2.002  11.085  0.1824  0.1373  0.6387
19738TIP3    H180705   6.328   1.945  11.153  0.1313  0.4702  0.9409
19738TIP3    H280706   6.313   1.956  11.003  1.6023  0.4930  0.7817
19739TIP3   OH280707   6.714   1.470   3.333  0.7138  0.4984 -0.1483
19739TIP3    H180708   6.735   1.512   3.416 -1.8345 -0.2084  0.8932
19739TIP3    H280709   6.668   1.538   3.283 -2.7108 -0.6622  1.2360
19740TIP3   OH280710   3.990   1.547   0.510 -0.7397 -0.2365 -0.3313
19740TIP3    H180711   3.936   1.483   0.465 -0.2940 -1.3795  0.7394
19740TIP3    H280712   3.941   1.568   0.590  1.6616 -3.4304  2.0855
19741TIP3   OH280713   3.742   6.020   1.130  0.6787  0.2479 -0.1998
19741TIP3    H180714   3.788   6.102   1.150  0.0178  0.5595  0.0650
19741TIP3    H280715   3.702   5.994   1.212  1.0002 -0.4226 -0.2529
19742TIP3   OH280716   5.533   3.974   2.897 -0.0722  0.4287 -0.0829
19742TIP3    H180717   5.507   3.973   2.805  0.9191  1.8429 -0.3917
19742TIP3    H280718   5.537   3.881   2.922 -1.2620  0.0623 -1.1866
19743TIP3   OH280719   2.646   0.685   0.688  0.1990  0.2897  0.2648
19743TIP3    H180720   2.570   0.657   0.638 -0.0090  2.8594 -0.9411
19743TIP3    H280721   2.627   0.776   0.712  2.1035  0.3955  1.5111
19744TIP3   OH280722   0.691   1.509  11.748 -0.1428  0.1571 -0.1857
19744TIP3    H180723   0.672   1.583  11.806 -2.6094 -0.9900  0.5522
19744TIP3    H280724   0.695   1.433  11.806 -1.3544 -0.8175 -1.3555
19745TIP3   OH280725   4.608   6.012   2.222  0.1409 -0.1177 -0.3439
19745TIP3    H180726   4.513   6.004   2.227  0.1817 -0.7549 -0.5122
19745TIP3    H280727   4.639   5.999   2.311  0.1677 -1.3246 -0.5298
19746TIP3   OH280728   2.597   1.897   4.791  0.1398 -0.5315  0.3361
19746TIP3    H180729   2.611   1.972   4.850 -0.3761 -0.8439  0.8569
19746TIP3    H280730   2.592   1.822   4.849 -0.7065 -0.8043 -0.0866
19747TIP3   OH280731   3.664   5.387   0.714 -0.7055  0.7247 -0.0035
19747TIP3    H180732   3.733   5.434   0.667  0.2444 -0.1868  0.4382
19747TIP3    H280733   3.665   5.424   0.802  1.5625 -1.5540  1.0123
19748TIP3   OH280734   2.821   1.414   1.573 -0.5741  0.0246 -0.1093
19748TIP3    H180735   2.839   1.474   1.645 -0.1185 -1.5503  1.0821
19748TIP3    H280736   2.788   1.471   1.503  1.4358  1.8878  0.4163
19749TIP3   OH280737   5.153   5.862  15.566 -0.0826 -0.1747 -0.4878
19749TIP3    H180738   5.218   5.822  15.623  0.0307  0.9397  0.1796
19749TIP3    H280739   5.203   5.897  15.493  0.1534  1.1417  0.2797
19750TIP3   OH280740   3.523   0.553  14.115  0.4337  0.1295  0.0637
19750TIP3    H180741   3.609   0.549  14.157  1.0115  2.2151 -0.8759
19750TIP3    H280742   3.537   0.601  14.034 -1.5864  0.3610 -0.1918
19751TIP3   OH280743   3.660   6.709   1.395  0.5379 -0.6001  0.1316
19751TIP3    H180744   3.590   6.744   1.450  0.4409 -1.4151  0.5449
19751TIP3    H280745   3.615   6.652   1.332  0.6191  0.5820 -1.0088
19752TIP3   OH280746   6.219   2.710  13.710  0.5297 -0.5421 -0.3812
19752TIP3    H180747   6.135   2.688  13.668  1.5245 -1.7850 -1.7585
19752TIP3    H280748   6.262   2.768  13.647  0.7797 -0.0411  0.2517
19753TIP3   OH280749   4.887   0.446  15.446 -0.0781 -0.5120 -0.5389
19753TIP3    H180750   4.945   0.516  15.477 -0.4172  0.5168 -2.2114
19753TIP3    H280751   4.819   0.491  15.396 -1.2935 -1.8894 -0.1713
19754TIP3   OH280752   2.492   5.024  13.591 -0.6286 -0.2262  0.0858
19754TIP3    H180753   2.515   5.057  13.678  0.1629  0.3175 -0.3264
19754TIP3    H280754   2.427   5.087  13.558  0.2166  0.4417 -0.3351
19755TIP3   OH280755   1.259   6.295   0.217  0.0195  0.6323  0.8124
19755TIP3    H180756   1.298   6.208   0.209 -0.0082  0.7679 -0.9594
19755TIP3    H280757   1.172   6.279   0.253 -0.1319 -0.1026  0.1098
19756TIP3   OH280758   4.352   5.528  15.837  0.1991  0.4297  0.1653
19756TIP3    H180759   4.305   5.491  15.913 -0.6780  0.7953 -0.1902
19756TIP3    H280760   4.442   5.496  15.847 -0.0296  0.0378  1.0745
19757TIP3   OH280761   2.429   1.455  16.341  0.0684 -0.5459  0.2348
19757TIP3    H180762   2.362   1.406  16.388 -0.4372 -0.5504 -0.4845
19757TIP3    H280763   2.455   1.397  16.269  0.8719 -0.5616  0.5241
19758TIP3   OH280764   2.985   1.026   4.639 -0.2834  0.5244  0.5116
19758TIP3    H180765   3.069   1.035   4.685 -0.4656  2.9111  0.4533
19758TIP3    H280766   3.009   1.030   4.546 -0.1238 -2.2944  0.3987
19759TIP3   OH280767   4.364   0.471   0.672 -0.2917 -0.3019  0.2937
19759TIP3    H180768   4.370   0.475   0.577 -0.5554 -0.9844  0.2504
19759TIP3    H280769   4.407   0.390   0.696 -0.7145 -0.4070  0.7157
19760TIP3   OH280770   4.201   3.516  10.721  0.4234  0.0255 -0.5281
19760TIP3    H180771   4.275   3.482  10.772  0.0429 -0.8770 -0.5606
19760TIP3    H280772   4.233   3.519  10.631 -0.1798 -2.2081 -0.8467
19761TIP3   OH280773   4.392   0.494   0.071  0.2376 -0.7798 -0.1173
19761TIP3    H180774   4.454   0.422   0.081 -0.9884 -1.8025  0.2569
19761TIP3    H280775   4.368   0.494  -0.021  0.7415 -0.4222 -0.2513
19762TIP3   OH280776   2.184   0.467   6.226 -0.0764 -0.0774  0.0348
19762TIP3    H180777   2.124   0.415   6.171  2.7034 -1.6651 -1.6291
19762TIP3    H280778   2.220   0.404   6.288  1.0327  0.4869 -0.0132
19763TIP3   OH280779   4.073   5.069  16.877  0.7512 -0.1558  0.2793
19763TIP3    H180780   4.028   5.129  16.936 -0.7815  2.2078 -3.1334
19763TIP3    H280781   4.128   5.016  16.935 -0.7666  1.8956  3.8057
19764TIP3   OH280782   4.206   0.100  11.887  0.4166  0.1822  0.3134
19764TIP3    H180783   4.239   0.081  11.975 -1.3732 -0.6769  0.8327
19764TIP3    H280784   4.112   0.112  11.899  0.0364 -0.6612 -1.5900
19765TIP3   OH280785   3.987   5.781   3.398  0.4718 -0.1792 -0.2722
19765TIP3    H180786   3.962   5.763   3.308  1.1650  2.2647 -0.9865
19765TIP3    H280787   3.911   5.754   3.450 -0.4562 -0.3415 -1.7019
19766TIP3   OH280788   5.462   5.265  16.826  0.2375  0.5872 -0.6516
19766TIP3    H180789   5.480   5.219  16.744 -0.7456  1.3050 -1.2911
19766TIP3    H280790   5.367   5.280  16.824  0.2443  0.8277  0.5075
19767TIP3   OH280791   2.458   4.828   3.265 -0.8906  0.2084 -0.0217
19767TIP3    H180792   2.458   4.745   3.313 -0.4923  0.3067  0.1503
19767TIP3    H280793   2.453   4.803   3.173 -1.0471 -0.0002  0.0437
19768TIP3   OH280794   6.451   3.871  13.764 -0.0041  0.1673 -0.4540
19768TIP3    H180795   6.512   3.798  13.770 -1.0357 -0.4996  2.6747
19768TIP3    H280796   6.402   3.853  13.683 -0.1609 -2.5653  0.1862
19769TIP3   OH280797   0.477   1.470  12.020 -0.4746  0.0600 -0.1751
19769TIP3    H180798   0.407   1.411  11.993  0.2323 -0.4178 -0.9969
19769TIP3    H280799   0.557   1.429  11.988  0.1271  0.9048  0.2143
19770TIP3   OH280800   3.845   1.228  14.824  0.3098  0.7978  0.0228
19770TIP3    H180801   3.900   1.285  14.877  0.0158  1.2569 -0.1519
19770TIP3    H280802   3.798   1.174  14.887 -0.6719  1.9306  0.2783
19771TIP3   OH280803   6.094   0.464  16.145  0.9198 -0.8272  0.0065
19771TIP3    H180804   6.066   0.428  16.061  2.1204  0.3574 -0.9288
19771TIP3    H280805   6.019   0.515  16.175  0.1025 -2.1195  0.1765
19772TIP3   OH280806   3.975   3.469  16.126 -0.3484 -0.1941  0.1743
19772TIP3    H180807   3.937   3.469  16.039  0.0525  1.9952 -0.0212
19772TIP3    H280808   3.901   3.477  16.186 -0.4803  0.2454 -0.0492
19773TIP3   OH280809   4.370   2.931  16.241 -0.7164 -0.0587  0.5738
19773TIP3    H180810   4.429   2.996  16.280  0.8488 -0.8761 -0.3957
19773TIP3    H280811   4.289   2.980  16.223 -0.3155  1.0949  1.8008
19774TIP3   OH280812   4.308   1.807   5.597  0.5912  0.2758 -0.5888
19774TIP3    H180813   4.372   1.826   5.529  1.5886  0.1818  0.3129
19774TIP3    H280814   4.353   1.828   5.679 -1.0751  1.8006 -0.0157
19775TIP3   OH280815   0.169   6.153   4.879 -0.4481  0.8237  0.0273
19775TIP3    H180816   0.087   6.200   4.890  0.1325  1.8134  0.2477
19775TIP3    H280817   0.203   6.183   4.794  0.6045  1.9037  0.8003
19776TIP3   OH280818   0.412   1.399  16.989  0.3859 -0.8818 -0.5642
19776TIP3    H180819   0.332   1.367  16.949 -0.1830 -2.8893  2.0685
19776TIP3    H280820   0.482   1.349  16.946  0.0413 -0.8546 -1.1581
19777TIP3   OH280821   5.814   3.394   4.649  0.0268 -0.1316  0.1082
19777TIP3    H180822   5.868   3.381   4.728  1.7643  0.3507 -0.9675
19777TIP3    H280823   5.820   3.311   4.602 -0.6257 -0.2566  0.2402
19778TIP3   OH280824   1.317   4.580   5.542  0.2337  0.0690 -0.1326
19778TIP3    H180825   1.379   4.532   5.597 -0.0538 -0.6753 -0.4458
19778TIP3    H280826   1.308   4.526   5.464 -1.1081 -0.0391  0.0803
19779TIP3   OH280827   5.085   2.176   2.306 -0.1648  0.2400 -0.2038
19779TIP3    H180828   5.010   2.125   2.276  0.0919  0.9033 -2.0251
19779TIP3    H280829   5.153   2.111   2.323 -0.4919 -0.2024 -0.5686
19780TIP3   OH280830   2.020   1.992   3.868  0.5177  0.8263 -0.1819
19780TIP3    H180831   2.048   1.900   3.869  0.9502  0.9392 -1.6566
19780TIP3    H280832   1.964   2.000   3.945 -0.9771 -1.1333 -1.0291
19781TIP3   OH280833   2.667   4.836  12.294 -0.2571  0.0585  0.2138
19781TIP3    H180834   2.737   4.786  12.252 -0.5829 -0.1642 -0.0702
19781TIP3    H280835   2.712   4.894  12.355  0.0802 -1.1096  1.0961
19782TIP3   OH280836   6.785   1.341  15.503  0.3320 -0.5117 -0.0331
19782TIP3    H180837   6.728   1.413  15.475  0.3356  0.1640  1.6780
19782TIP3    H280838   6.727   1.265  15.507  0.2224 -0.5126 -1.3677
19783TIP3   OH280839   1.008   6.257  10.709  0.5098 -0.1933 -0.5677
19783TIP3    H180840   1.061   6.243  10.630  0.8924  0.9550 -0.5287
19783TIP3    H280841   0.988   6.351  10.708  1.8360  0.1471  1.5097
19784TIP3   OH280842   5.876   3.463  16.312 -0.0935 -0.3453 -0.1016
19784TIP3    H180843   5.885   3.380  16.265  1.0533  0.2520 -0.9544
19784TIP3    H280844   5.786   3.491  16.294  0.3036 -0.1629 -1.9245
19785TIP3   OH280845   3.132   4.733   4.135  0.1085 -0.1046 -0.3507
19785TIP3    H180846   3.227   4.743   4.132 -0.1738  3.0429 -0.7405
19785TIP3    H280847   3.106   4.723   4.044  0.0679 -1.2329 -0.2233
19786TIP3   OH280848   6.409   1.601  11.557  0.0362 -0.1496  0.6091
19786TIP3    H180849   6.475   1.580  11.491 -0.5470  0.8175 -0.2929
19786TIP3    H280850   6.421   1.694  11.574 -1.2978  0.1108  0.1894
19787TIP3   OH280851   3.081   3.999  11.113  0.4119  0.4924  0.0988
19787TIP3    H180852   3.139   3.998  11.189 -0.1823  1.4566  0.5767
19787TIP3    H280853   3.122   3.940  11.050  1.8212  1.0426  0.4916
19788TIP3   OH280854   2.351   3.424  11.839 -0.3747  0.0509  0.0856
19788TIP3    H180855   2.325   3.389  11.925 -0.8180 -0.9364 -0.4432
19788TIP3    H280856   2.407   3.355  11.802 -1.8856 -0.4664 -1.3013
19789TIP3   OH280857   3.848   6.121  14.437  0.0588 -0.3715  0.0847
19789TIP3    H180858   3.904   6.192  14.470 -1.0891  0.3299  0.5815
19789TIP3    H280859   3.862   6.049  14.499 -0.7795  0.3462  1.1273
19790TIP3   OH280860   2.537   2.503  12.681 -0.3615  0.0423 -0.1847
19790TIP3    H180861   2.613   2.535  12.634 -1.4413  0.8991 -1.3778
19790TIP3    H280862   2.518   2.418  12.640  1.0180 -1.0302  1.3294
19791TIP3   OH280863   5.018   5.534  10.794 -0.4909  0.3031 -0.5538
19791TIP3    H180864   5.047   5.445  10.815 -1.2413 -0.1231 -1.2632
19791TIP3    H280865   5.098   5.581  10.775  0.0737  0.2777  1.6250
19792TIP3   OH280866   6.283   2.586  10.941 -0.4468 -0.0253 -0.0326
19792TIP3    H180867   6.210   2.624  10.990 -0.1558  0.9867 -0.3647
19792TIP3    H280868   6.355   2.648  10.954  0.0523 -0.4941 -0.5467
19793TIP3   OH280869   0.679   5.775   6.585  0.0801 -0.6571 -0.1584
19793TIP3    H180870   0.588   5.793   6.608  0.0200 -0.3437 -0.6449
19793TIP3    H280871   0.674   5.738   6.497  0.5255  0.4585 -0.6490
19794TIP3   OH280872   1.554   3.958   1.097  0.4184  0.1758  0.4331
19794TIP3    H180873   1.631   3.907   1.126 -0.0317 -0.8357 -0.1313
19794TIP3    H280874   1.512   3.984   1.179  2.2193  2.1042  0.7996
19795TIP3   OH280875   3.900   1.438   5.662 -0.5904 -0.6151  0.0088
19795TIP3    H180876   3.807   1.462   5.664 -0.1504  1.2437 -0.8633
19795TIP3    H280877   3.931   1.471   5.578  1.0449 -0.5353  0.6282
19796TIP3   OH280878   5.221   3.346   4.220 -0.1637 -0.1707 -0.0929
19796TIP3    H180879   5.156   3.319   4.155  1.2402 -0.8058 -1.2680
19796TIP3    H280880   5.259   3.264   4.250  0.4273  0.2213  0.2335
19797TIP3   OH280881   6.756   6.087   0.264  0.6265 -0.5491 -0.0329
19797TIP3    H180882   6.707   6.096   0.346 -0.3845  0.2003 -0.7091
19797TIP3    H280883   6.764   5.992   0.252 -0.5493 -0.6861  0.1581
19798TIP3   OH280884   5.086   6.763   4.516  0.4117  0.0679  0.1354
19798TIP3    H180885   5.018   6.697   4.514  0.8871 -0.4859  1.6057
19798TIP3    H280886   5.103   6.778   4.609  1.2376  1.2811 -0.1934
19799TIP3   OH280887   5.189   4.346  16.006  0.4220 -0.0381 -0.2238
19799TIP3    H180888   5.197   4.252  16.023 -1.1296 -0.5260 -2.0133
19799TIP3    H280889   5.177   4.385  16.093 -0.4064 -1.6577  0.4090
19800TIP3   OH280890   0.424   0.106  15.957 -0.7115 -0.2061  0.6154
19800TIP3    H180891   0.467   0.106  16.043  1.3836 -0.0701 -0.3924
19800TIP3    H280892   0.496   0.107  15.895 -2.2122 -0.2334 -1.1624
19801TIP3   OH280893   4.609   0.873   1.376  0.3583 -0.2565  1.1109
19801TIP3    H180894   4.623   0.869   1.281  0.0773 -1.6334  1.1134
19801TIP3    H280895   4.591   0.782   1.401  0.1533  0.1437  2.4417
19802TIP3   OH280896   4.823   0.690   1.776 -0.0323  0.4425  0.2788
19802TIP3    H180897   4.787   0.679   1.864  1.1622  2.8476  1.1181
19802TIP3    H280898   4.917   0.674   1.786  0.5764  3.5757  0.0874
19803TIP3   OH280899   1.013   6.607  14.680 -0.1518 -0.1526 -0.6079
19803TIP3    H180900   1.064   6.528  14.694  1.5332  0.7339 -1.6759
19803TIP3    H280901   1.077   6.673  14.653 -2.1012  0.4882 -3.8746
19804TIP3   OH280902   2.851   3.675   4.515 -0.3448  0.7630 -0.5323
19804TIP3    H180903   2.862   3.714   4.601 -0.0328 -0.2663 -0.1070
19804TIP3    H280904   2.757   3.661   4.507 -0.2124 -0.5387  0.2497
19805TIP3   OH280905   4.376   2.466  12.210 -0.3148  0.2398 -0.2395
19805TIP3    H180906   4.334   2.472  12.295 -0.5478 -0.9837 -0.2448
19805TIP3    H280907   4.323   2.401  12.162  1.8155 -1.7024 -0.0786
19806TIP3   OH280908   3.862   2.166  11.540 -0.0850 -0.4233 -0.3167
19806TIP3    H180909   3.958   2.166  11.544 -0.0950  1.4231  0.2121
19806TIP3    H280910   3.835   2.233  11.602 -1.6116  1.5604 -3.0158
19807TIP3   OH280911   5.236   0.935  11.989  0.0656 -0.1740 -0.4513
19807TIP3    H180912   5.159   0.918  12.043  1.3615 -0.4864  1.3543
19807TIP3    H280913   5.274   1.015  12.024  1.6166 -1.0443 -0.0746
19808TIP3   OH280914   0.826   4.569  15.244  0.4794  0.5351 -0.4401
19808TIP3    H180915   0.824   4.550  15.150 -0.3425  1.0730 -0.5351
19808TIP3    H280916   0.833   4.484  15.286 -4.4074 -0.1816 -0.8068
19809TIP3   OH280917   6.262   2.507   4.395 -0.1073  0.2257  0.0143
19809TIP3    H180918   6.237   2.416   4.378  1.0301 -0.0272 -0.3711
19809TIP3    H280919   6.204   2.559   4.340 -0.6321 -0.2810  0.0881
19810TIP3   OH280920   3.019   5.347  13.259 -0.0330 -0.6334 -0.1315
19810TIP3    H180921   3.002   5.252  13.264  0.0353 -0.8090 -2.4724
19810TIP3    H280922   2.938   5.383  13.225  0.4212 -0.0282 -0.5717
19811TIP3   OH280923   3.591   0.076   2.444 -0.1737  0.0612  0.4799
19811TIP3    H180924   3.655   0.145   2.463 -0.1720  0.3316 -0.5046
19811TIP3    H280925   3.640   0.012   2.393 -1.0835  1.0328 -1.6681
19812TIP3   OH280926   3.911   1.312   1.426 -0.4948  0.1522 -0.1220
19812TIP3    H180927   3.996   1.290   1.388 -1.0128 -0.1220 -1.1355
19812TIP3    H280928   3.932   1.365   1.503  0.6106 -0.3248 -0.0847
19813TIP3   OH280929   4.066   1.539  17.116 -0.9969  0.2026  0.5452
19813TIP3    H180930   4.066   1.463  17.059 -1.0342  2.2169 -2.2780
19813TIP3    H280931   4.158   1.552  17.139 -0.6739  0.7437 -1.0111
19814TIP3   OH280932   2.102   1.699  12.641 -0.2437  0.0181  0.1494
19814TIP3    H180933   2.138   1.650  12.567  0.8233  0.2603  0.5035
19814TIP3    H280934   2.151   1.781  12.643 -1.8952  1.0461 -0.3162
19815TIP3   OH280935   4.647   1.693  10.586  0.4583  0.2895  0.2490
19815TIP3    H180936   4.598   1.613  10.605 -0.1389  0.7426  0.6431
19815TIP3    H280937   4.618   1.755  10.653 -0.9519  1.6301 -1.5281
19816TIP3   OH280938   6.369   0.420   5.970 -0.2531  0.1147 -0.0345
19816TIP3    H180939   6.359   0.365   5.892 -0.5254 -0.4839  0.4146
19816TIP3    H280940   6.284   0.465   5.977  0.2704  1.2592 -0.8953
19817TIP3   OH280941   2.324   3.832  10.518  0.2354 -0.5461 -0.0721
19817TIP3    H180942   2.398   3.885  10.490 -0.3346 -0.4082 -1.3206
19817TIP3    H280943   2.340   3.745  10.481  0.9782 -1.1706  1.6612
19818TIP3   OH280944   0.007   6.079  16.988 -0.2045 -0.3002 -0.3598
19818TIP3    H180945   0.030   5.988  17.004 -0.6847 -0.2968  0.3693
19818TIP3    H280946   0.090   6.121  16.965  0.1317 -0.7811 -0.0356
19819TIP3   OH280947   4.791   0.883   0.166  0.0039 -0.7984  0.3886
19819TIP3    H180948   4.783   0.792   0.135  0.7612 -1.3380  1.7491
19819TIP3    H280949   4.700   0.911   0.180 -0.2603 -1.1460 -0.6086
19820TIP3   OH280950   6.620   3.287   1.928  0.7383  0.3174 -0.3797
19820TIP3    H180951   6.639   3.322   2.015  1.0120 -0.4157 -0.1423
19820TIP3    H280952   6.687   3.325   1.872  0.8005  0.4837 -0.1935
19821TIP3   OH280953   3.463   4.392   0.981 -0.4434 -0.8189  0.2488
19821TIP3    H180954   3.371   4.394   1.009 -0.1579  3.1621  1.2741
19821TIP3    H280955   3.467   4.456   0.909  1.6825 -0.2474  0.8407
19822TIP3   OH280956   2.839   3.122  15.509  0.1908  0.2008  0.1935
19822TIP3    H180957   2.773   3.189  15.494  0.0622  0.2262  0.8605
19822TIP3    H280958   2.792   3.039  15.502  0.1915  0.2043  0.1505
19823TIP3   OH280959   4.219   3.183   5.549  0.4269  0.1102 -0.2749
19823TIP3    H180960   4.222   3.266   5.598  0.1296 -0.3364  0.5128
19823TIP3    H280961   4.150   3.133   5.593 -2.1642  0.9583 -3.1385
19824TIP3   OH280962   0.613   4.814   0.177  0.5128 -0.2937 -0.1554
19824TIP3    H180963   0.662   4.786   0.100 -0.9922 -1.1334 -0.8489
19824TIP3    H280964   0.655   4.769   0.250  0.7333 -1.0478 -0.7430
19825TIP3   OH280965   5.154   2.678  12.740  0.4148  0.2754 -0.4161
19825TIP3    H180966   5.126   2.727  12.663 -1.7350  0.1283  0.2448
19825TIP3    H280967   5.137   2.587  12.718  0.4626  0.1737 -0.0340
19826TIP3   OH280968   5.043   6.755   2.727 -0.3211  0.1468 -0.5899
19826TIP3    H180969   5.003   6.779   2.810  1.3995 -1.2002  0.6603
19826TIP3    H280970   5.076   6.666   2.741  3.2437  1.2511 -1.4987
19827TIP3   OH280971   0.668   0.024  15.854  0.1791 -0.3677  0.0822
19827TIP3    H180972   0.663  -0.036  15.928 -0.2212  0.2702  0.5695
19827TIP3    H280973   0.733   0.090  15.880  0.2121 -0.2742 -0.2285
19828TIP3   OH280974   3.777   2.127   4.261  0.3742 -0.0202  0.4109
19828TIP3    H180975   3.750   2.070   4.188 -1.0751 -0.5442  1.3219
19828TIP3    H280976   3.756   2.216   4.231 -1.0881 -0.3107  0.5416
19829TIP3   OH280977   3.276   5.842  11.139  0.6947 -0.1482  0.1064
19829TIP3    H180978   3.220   5.888  11.201  1.3934 -0.5304  1.0463
19829TIP3    H280979   3.356   5.823  11.189  2.1237  1.3803 -1.5182
19830TIP3   OH280980   2.832   2.656  13.022 -0.4938 -0.5731  0.5849
19830TIP3    H180981   2.903   2.605  12.983 -1.6106 -1.3860 -0.3954
19830TIP3    H280982   2.795   2.705  12.949 -0.1730  0.7690  1.3162
19831TIP3   OH280983   3.561   3.196   4.208  0.2660  0.7257  0.5563
19831TIP3    H180984   3.600   3.251   4.140 -1.9852  0.9680 -0.5763
19831TIP3    H280985   3.603   3.111   4.198  2.2768  1.6529  0.9662
19832TIP3   OH280986   6.538   5.404  11.547 -0.3212 -0.0166 -0.4909
19832TIP3    H180987   6.517   5.460  11.473  1.4237 -1.3528 -2.0398
19832TIP3    H280988   6.471   5.424  11.612 -1.3928  1.7735 -2.1050
19833TIP3   OH280989   6.692   3.418   5.044  0.1759  0.0471  0.5335
19833TIP3    H180990   6.649   3.419   5.130 -1.0910  0.2489 -0.0895
19833TIP3    H280991   6.623   3.392   4.983  1.4531 -1.6269 -0.2380
19834TIP3   OH280992   2.549   1.152  11.255 -0.9640  0.6721 -0.3670
19834TIP3    H180993   2.587   1.111  11.177 -1.1070  0.0182 -0.0916
19834TIP3    H280994   2.587   1.104  11.329  1.4125  3.1346  0.0999
19835TIP3   OH280995   0.227   6.219   1.692 -0.4399 -0.4424 -0.2706
19835TIP3    H180996   0.280   6.168   1.753 -0.7899 -0.7817 -0.2503
19835TIP3    H280997   0.287   6.241   1.621 -0.0882 -0.2326  0.0849
19836TIP3   OH280998   5.919   2.025   0.863 -0.2490 -0.2005 -0.1727
19836TIP3    H180999   5.964   1.941   0.851 -0.5463 -0.3880  0.0269
19836TIP3    H281000   5.901   2.056   0.774  0.5502  0.0222 -0.2624
19837TIP3   OH281001   3.177   6.785   4.074 -0.6141 -0.0694 -0.0164
19837TIP3    H181002   3.133   6.807   3.992 -1.1865  0.5872  0.4634
19837TIP3    H281003   3.107   6.781   4.139 -0.0598  0.2154  0.6023
19838TIP3   OH281004   1.242   3.617  11.227  0.4057  0.1301 -0.5834
19838TIP3    H181005   1.207   3.702  11.200  0.9034  0.2828 -0.7539
19838TIP3    H281006   1.207   3.604  11.315 -0.4127  0.0861 -0.9116
19839TIP3   OH281007   1.762   3.657  14.888 -0.1820  1.1133 -0.2805
19839TIP3    H181008   1.797   3.714  14.956 -0.4902  1.1591 -0.1572
19839TIP3    H281009   1.710   3.592  14.935 -0.3433  1.1062 -0.4671
19840TIP3   OH281010   4.303   1.699   3.785 -0.7263  0.0262 -0.0716
19840TIP3    H181011   4.239   1.686   3.855  0.3113  0.7276  0.9973
19840TIP3    H281012   4.388   1.684   3.826 -0.2215 -1.9821 -1.7359
19841TIP3   OH281013   0.150   6.235  16.629 -0.2936 -0.0283  0.2933
19841TIP3    H181014   0.167   6.329  16.626  0.2602 -0.1893 -2.0338
19841TIP3    H281015   0.055   6.228  16.623 -0.2077  0.3274 -1.8532
19842TIP3   OH281016   0.260   1.101   2.695  0.0503 -0.6616  0.5492
19842TIP3    H181017   0.226   1.190   2.687 -3.0956 -1.9157 -0.7854
19842TIP3    H281018   0.258   1.083   2.789 -0.3185  0.3103  0.7323
19843TIP3   OH281019   4.926   4.137   4.350 -0.0225 -0.1432  0.1621
19843TIP3    H181020   4.910   4.110   4.440 -0.7128  0.2613  0.1667
19843TIP3    H281021   4.850   4.104   4.302  0.7815 -1.1586 -0.4419
19844TIP3   OH281022   1.746   4.276  16.613 -0.8991 -0.0531  0.1910
19844TIP3    H181023   1.801   4.232  16.548  1.9669  2.6594  0.6890
19844TIP3    H281024   1.735   4.212  16.683  0.7715 -1.0047 -0.3915
19845TIP3   OH281025   5.740   1.106   5.977 -0.0941  0.2810  0.3398
19845TIP3    H181026   5.723   1.174   5.911 -1.5380  0.3809  0.8018
19845TIP3    H281027   5.764   1.155   6.056 -1.1081  0.2701  0.6642
19846TIP3   OH281028   1.118   3.230   1.542  0.4670 -0.3654 -0.2480
19846TIP3    H181029   1.123   3.326   1.546 -0.2088 -0.2841 -1.1563
19846TIP3    H281030   1.208   3.201   1.557  1.0249  0.4970 -1.7826
19847TIP3   OH281031   4.001   0.566  15.609  0.1966  0.1372  0.5047
19847TIP3    H181032   3.928   0.538  15.554 -0.1184  1.9648 -0.0140
19847TIP3    H281033   4.053   0.623  15.552 -0.7550  3.0075  2.4391
19848TIP3   OH281034   2.462   6.384   5.288 -0.8207 -0.1929 -0.1870
19848TIP3    H181035   2.393   6.377   5.222  0.6288  0.5117 -1.8084
19848TIP3    H281036   2.472   6.294   5.321 -2.3869 -0.3282 -0.0391
19849TIP3   OH281037   4.464   5.519  10.377 -0.1923 -0.3901 -0.1659
19849TIP3    H181038   4.526   5.458  10.336 -0.5189 -0.6811 -0.2287
19849TIP3    H281039   4.383   5.507  10.328 -0.0420  0.6698 -0.6922
19850TIP3   OH281040   1.908   0.603   1.006  0.0362 -0.0121  0.2398
19850TIP3    H181041   1.986   0.625   0.955 -0.2896  1.4524  0.3530
19850TIP3    H281042   1.844   0.576   0.940  0.0093  0.7084 -0.0405
19851TIP3   OH281043   6.285   5.114   1.345 -0.1651  0.6710 -0.6022
19851TIP3    H181044   6.299   5.047   1.279  0.2076  0.0757  0.0708
19851TIP3    H281045   6.252   5.190   1.296 -0.0091  0.2013 -1.4440
19852TIP3   OH281046   1.449   3.321  16.214  0.2260 -0.0062  0.0668
19852TIP3    H181047   1.415   3.236  16.185 -1.2894  0.0890  1.4633
19852TIP3    H281048   1.452   3.313  16.310 -0.9881  1.8993  0.2827
19853TIP3   OH281049   4.077   3.868   4.052 -0.1541  0.1439  0.0206
19853TIP3    H181050   4.081   3.920   4.133  1.9644 -0.1556  0.1534
19853TIP3    H281051   4.169   3.860   4.025 -0.4433 -3.3812 -0.1029
19854TIP3   OH281052   2.838   2.026  13.087 -0.2352 -0.4882 -0.4840
19854TIP3    H181053   2.825   2.109  13.134 -0.2630 -0.0253 -1.3072
19854TIP3    H281054   2.800   1.960  13.145 -0.4077  0.0978  0.0820
19855TIP3   OH281055   0.068   2.102   5.824  0.2120 -0.2986 -0.5603
19855TIP3    H181056  -0.017   2.076   5.860  0.3705  1.2329  0.9604
19855TIP3    H281057   0.112   2.019   5.805 -1.5036 -1.1179 -1.1226
19856TIP3   OH281058   0.782   0.876   0.068 -0.0774  0.0759  0.2899
19856TIP3    H181059   0.787   0.787   0.103  1.4705 -0.9307 -2.2747
19856TIP3    H281060   0.691   0.888   0.044  0.3352 -2.2797 -2.7589
19857TIP3   OH281061   1.416   1.064  14.405 -0.0536 -0.0748 -0.1196
19857TIP3    H181062   1.427   0.995  14.340 -0.2205 -0.7577  0.5574
19857TIP3    H281063   1.505   1.088  14.430  0.0079 -1.0183  0.6290
19858TIP3   OH281064   1.864   3.454  12.038 -0.4382  0.4052  0.2097
19858TIP3    H181065   1.935   3.485  11.980  0.5135 -1.0382  0.5883
19858TIP3    H281066   1.908   3.432  12.120 -1.4614  0.2754  0.7254
19859TIP3   OH281067   5.050   5.635  15.679 -0.1755 -0.0107  0.0054
19859TIP3    H181068   5.062   5.699  15.608 -0.9197 -1.0805 -1.1207
19859TIP3    H281069   5.118   5.570  15.664  2.0773  1.6605  2.5243
19860TIP3   OH281070   2.319   2.751   6.593  0.1119  0.4971  0.7276
19860TIP3    H181071   2.236   2.707   6.613  1.0063 -2.4024 -1.5686
19860TIP3    H281072   2.293   2.835   6.555 -1.9087 -1.2948 -2.0738
19861TIP3   OH281073   2.511   5.768   0.500  0.1935 -0.0784 -0.1077
19861TIP3    H181074   2.449   5.806   0.562  0.6738  1.6138 -0.6309
19861TIP3    H281075   2.527   5.838   0.436  1.1151 -1.1688 -1.0929
19862TIP3   OH281076   4.681   2.517   2.324 -0.2164  0.3268 -0.1910
19862TIP3    H181077   4.605   2.571   2.300  0.7108  1.7570  0.0337
19862TIP3    H281078   4.746   2.580   2.355  1.1195 -0.8723 -0.5072
19863TIP3   OH281079   0.680   3.102  17.127  0.0999 -0.0597  0.4632
19863TIP3    H181080   0.775   3.113  17.116 -0.3128  2.2730 -0.9958
19863TIP3    H281081   0.665   3.008  17.110  2.3332 -0.8192  2.4414
19864TIP3   OH281082   5.497   0.561  11.134  0.1650  0.2543 -0.3016
19864TIP3    H181083   5.402   0.560  11.144  0.2092 -0.0308  0.0761
19864TIP3    H281084   5.531   0.569  11.223  0.4865  1.0698 -0.4869
19865TIP3   OH281085   1.674   4.916   0.357 -0.5864  0.0443 -0.0525
19865TIP3    H181086   1.621   4.838   0.370  0.6642 -0.6683  0.8496
19865TIP3    H281087   1.678   4.926   0.262 -0.4684 -1.2005 -0.1932
19866TIP3   OH281088   6.359   3.510  13.214  0.8979 -0.9292 -0.3084
19866TIP3    H181089   6.420   3.446  13.178  1.4794 -0.7377  0.3283
19866TIP3    H281090   6.318   3.466  13.288  0.1181 -1.1237 -0.8532
19867TIP3   OH281091   2.351   3.012  10.923 -0.4865 -0.3138 -0.6232
19867TIP3    H181092   2.319   2.932  10.882 -0.3696 -0.4439 -0.4574
19867TIP3    H281093   2.378   3.067  10.849 -0.5847 -0.4186 -0.7387
19868TIP3   OH281094   5.891   2.843  13.019 -0.2616  0.4509 -0.3208
19868TIP3    H181095   5.854   2.754  13.017 -0.6645  0.6179 -0.3753
19868TIP3    H281096   5.875   2.874  13.108  1.7786 -0.3184  0.3545
19869TIP3   OH281097   4.062   3.876  13.679  0.7025 -0.0694 -0.3540
19869TIP3    H181098   4.010   3.924  13.744  1.2855  0.4847 -0.2915
19869TIP3    H281099   4.059   3.785  13.709  0.7312  0.1355  0.2888
19870TIP3   OH281100   6.799   2.679   4.174  0.2562  0.4417  0.2165
19870TIP3    H181101   6.827   2.759   4.129  1.1702  0.0803  0.1313
19870TIP3    H281102   6.876   2.621   4.170 -0.9821 -1.1309 -1.3015
19871TIP3   OH281103   1.345   0.625  11.061 -0.0508  0.0967 -0.3888
19871TIP3    H181104   1.357   0.548  11.117  0.1946  0.3512 -0.0955
19871TIP3    H281105   1.434   0.649  11.033 -0.1488  0.1247 -0.6851
19872TIP3   OH281106   3.020   1.434  12.407  0.3461 -0.0528 -0.8713
19872TIP3    H181107   2.931   1.401  12.396  0.3780  0.0051 -1.2982
19872TIP3    H281108   3.076   1.358  12.389  0.3885 -0.0623 -0.7048
19873TIP3   OH281109   4.746   6.818   1.862 -0.3169 -0.2474 -0.4407
19873TIP3    H181110   4.767   6.726   1.843 -0.8959 -1.3876  3.7279
19873TIP3    H281111   4.684   6.843   1.794 -2.3233 -3.9116 -0.1181
19874TIP3   OH281112   5.626   6.482   1.721  0.1922 -0.7229  0.1186
19874TIP3    H181113   5.709   6.523   1.746  0.5023 -1.0288 -0.4190
19874TIP3    H281114   5.567   6.556   1.705 -0.0195 -0.5098  1.7569
19875TIP3   OH281115   6.303   3.379  12.536  0.2420  0.2788  0.0105
19875TIP3    H181116   6.212   3.364  12.511  0.3378 -1.0569  0.4285
19875TIP3    H281117   6.347   3.400  12.454 -0.0601 -1.0699 -0.5158
19876TIP3   OH281118   2.260   6.143  11.171  0.0967  0.1589 -0.2908
19876TIP3    H181119   2.283   6.102  11.254 -0.8199 -1.2569 -0.7199
19876TIP3    H281120   2.236   6.232  11.194 -2.2424 -0.8448  1.2579
19877TIP3   OH281121   1.875   0.807   4.957 -0.0515  0.0222  0.0050
19877TIP3    H181122   1.804   0.833   5.015 -1.1615 -0.0244 -1.2853
19877TIP3    H281123   1.922   0.888   4.938 -0.2022  0.1790  0.3006
19878TIP3   OH281124   3.086   0.994   6.029 -0.2697 -0.3471  0.0197
19878TIP3    H181125   3.181   0.986   6.042 -0.6022  0.5047  3.5262
19878TIP3    H281126   3.076   1.072   5.974  1.0461 -0.2502 -0.1061
19879TIP3   OH281127   0.452   2.872   2.863 -0.1792  0.5320 -0.2743
19879TIP3    H181128   0.518   2.883   2.794  0.9410  0.6577  0.8114
19879TIP3    H281129   0.446   2.958   2.904  1.1734 -0.2455  1.5885
19880TIP3   OH281130   6.693   3.853  12.706  0.5146 -0.0337 -0.7001
19880TIP3    H181131   6.771   3.856  12.650 -1.3881  1.9257 -3.3866
19880TIP3    H281132   6.683   3.944  12.737 -1.3104 -0.0281 -1.2855
19881TIP3   OH281133   3.423   2.927   2.510 -0.3419  0.3677 -0.1260
19881TIP3    H181134   3.367   2.869   2.458 -1.3765  0.7031  0.5914
19881TIP3    H281135   3.507   2.881   2.515 -0.7938 -0.5219 -0.5387
19882TIP3   OH281136   5.287   1.828   0.720 -0.0676  0.0816 -0.0453
19882TIP3    H181137   5.344   1.904   0.704  0.8341 -0.2566  1.4399
19882TIP3    H281138   5.314   1.763   0.655  1.0990  0.0129  0.4977
19883TIP3   OH281139   1.702   6.196  17.126 -0.0244  0.0506 -0.0937
19883TIP3    H181140   1.694   6.258  17.054 -0.1356 -0.1250 -0.2315
19883TIP3    H281141   1.747   6.245  17.195 -1.3340  0.7312  0.3091
19884TIP3   OH281142   2.144   4.982   1.706  0.4252  0.0891  0.1980
19884TIP3    H181143   2.202   5.057   1.693  1.8365 -0.8615  0.8677
19884TIP3    H281144   2.121   4.986   1.799  1.3245 -0.8723  0.4715
19885TIP3   OH281145   0.957   5.288  15.470 -0.0425 -0.0626 -0.0020
19885TIP3    H181146   1.006   5.358  15.514  0.1267 -0.6676  0.7957
19885TIP3    H281147   0.901   5.252  15.539  2.6861 -3.2730  0.6453
19886TIP3   OH281148   6.561   4.350   2.502 -0.0740 -0.3621 -0.3042
19886TIP3    H181149   6.475   4.348   2.544  0.8311 -0.9718  1.5458
19886TIP3    H281150   6.551   4.414   2.431 -1.6867  0.5458  0.7047
19887TIP3   OH281151   1.365   1.783  16.751 -0.0125  0.3086 -0.2859
19887TIP3    H181152   1.445   1.833  16.766  0.0853 -0.1556  0.8112
19887TIP3    H281153   1.356   1.780  16.656  1.2395  0.4183 -0.4226
19888TIP3   OH281154   3.746   1.052   3.114 -0.2369  0.2502  0.2468
19888TIP3    H181155   3.801   1.118   3.155 -2.7389  2.1843  0.5601
19888TIP3    H281156   3.769   0.970   3.159  2.3592  0.9645  0.3320
19889TIP3   OH281157   1.047   4.802  13.447 -0.0340 -0.3087  0.0885
19889TIP3    H181158   1.006   4.746  13.513  1.6705 -2.0823 -0.3544
19889TIP3    H281159   0.973   4.849  13.407 -1.4429 -1.9889  0.6622
19890TIP3   OH281160   3.360   1.413  16.394  0.0246 -0.0522 -0.3444
19890TIP3    H181161   3.369   1.341  16.331 -1.4700 -1.8704  1.4608
19890TIP3    H281162   3.451   1.438  16.413  0.5739 -1.4732 -0.9646
19891TIP3   OH281163   3.823   1.909   3.023 -0.3722  0.3280  0.4559
19891TIP3    H181164   3.731   1.885   3.029  0.2659 -2.0093  1.3854
19891TIP3    H281165   3.870   1.826   3.025  1.7496  1.4666 -0.4266
19892TIP3   OH281166   2.375   3.129  12.166 -0.5020  0.1029  0.3045
19892TIP3    H181167   2.427   3.059  12.125 -0.0311  1.2358 -1.0518
19892TIP3    H281168   2.315   3.158  12.098 -0.3312  1.3991  0.7059
19893TIP3   OH281169   6.684   4.023  16.180  0.3196 -0.0708 -0.2025
19893TIP3    H181170   6.657   4.115  16.187  3.3693  0.9692 -1.4121
19893TIP3    H281171   6.612   3.974  16.221 -2.8706  2.5826 -2.3541
19894TIP3   OH281172   5.403   5.389  13.690 -0.1173  0.4387  0.1201
19894TIP3    H181173   5.352   5.340  13.626 -1.4282  0.8899  0.7903
19894TIP3    H281174   5.434   5.322  13.752  1.8906 -0.1112 -1.4352
19895TIP3   OH281175   3.401   6.816   1.495 -0.7246 -0.3394  0.0615
19895TIP3    H181176   3.362   6.738   1.534  2.4647 -1.7580  0.5884
19895TIP3    H281177   3.409   6.878   1.568 -1.2254 -0.3394  0.1176
19896TIP3   OH281178   2.939   5.272   2.543  0.2845  0.3010  0.6174
19896TIP3    H181179   2.975   5.272   2.455 -0.9525  0.8358  0.1029
19896TIP3    H281180   2.966   5.357   2.580 -0.5971  0.7843  0.1645
19897TIP3   OH281181   3.303   0.950  16.020 -0.3526 -0.0821  0.0295
19897TIP3    H181182   3.394   0.940  15.994  0.0411  1.7311  0.7033
19897TIP3    H281183   3.274   0.860  16.037  1.3030 -0.6692 -0.1252
19898TIP3   OH281184   3.286   2.114  15.360  0.3545 -0.1641 -0.6046
19898TIP3    H181185   3.256   2.032  15.401 -1.1903  0.2711 -0.8194
19898TIP3    H281186   3.272   2.101  15.267  0.4391  0.2155 -0.6715
19899TIP3   OH281187   6.766   4.183   2.110 -0.5296 -0.3075 -0.0055
19899TIP3    H181188   6.777   4.217   2.199  0.0972 -1.8502  0.5184
19899TIP3    H281189   6.679   4.213   2.084 -0.3247  0.9941  0.7436
19900TIP3   OH281190   1.045   5.013   5.988  0.2046  0.0720 -0.3466
19900TIP3    H181191   1.030   4.949   6.058 -2.1542  1.0257  0.0317
19900TIP3    H281192   1.065   4.959   5.911  0.5904 -1.0421  0.5055
19901TIP3   OH281193   3.783   5.158   6.447  0.3848 -0.4092  0.1202
19901TIP3    H181194   3.826   5.099   6.507  0.7225 -1.5230 -1.1981
19901TIP3    H281195   3.749   5.229   6.502  1.5550 -0.8954  1.4721
19902TIP3   OH281196   6.265   0.841  14.181  0.1355  0.6033  0.3263
19902TIP3    H181197   6.331   0.911  14.187  0.3399  0.3664  0.8421
19902TIP3    H281198   6.309   0.764  14.216  1.6161 -1.0162 -4.7206
19903TIP3   OH281199   6.050   1.723   4.420 -0.1322 -1.0547 -0.6685
19903TIP3    H181200   5.975   1.776   4.448  1.1659  0.4003  0.1054
19903TIP3    H281201   6.046   1.646   4.476 -0.7669 -0.7501 -0.2823
19904TIP3   OH281202   0.171   0.656   2.499 -0.1196  0.2262 -0.0526
19904TIP3    H181203   0.185   0.751   2.502  1.2235  0.0257  0.1046
19904TIP3    H281204   0.147   0.632   2.588 -0.9303  0.4752 -0.1931
19905TIP3   OH281205   3.462   1.158   3.901 -0.5711 -0.6247  0.3789
19905TIP3    H181206   3.466   1.164   3.806  2.1538  0.7226  0.5587
19905TIP3    H281207   3.479   1.247   3.932  0.8146 -1.4967  2.1812
19906TIP3   OH281208   6.063   5.220  14.577 -0.0440  0.3138 -0.3458
19906TIP3    H181209   6.030   5.169  14.651 -1.9710 -0.1934 -1.5288
19906TIP3    H281210   6.131   5.164  14.538  0.6362  0.3746  0.7351
19907TIP3   OH281211   3.184   2.263  13.870 -0.1926  0.2687  0.0153
19907TIP3    H181212   3.189   2.274  13.965  0.0465 -0.3832  0.0745
19907TIP3    H281213   3.265   2.302  13.837  0.7337 -1.4243  0.2417
19908TIP3   OH281214   6.632   3.627  16.610 -0.2200 -0.0418 -0.1925
19908TIP3    H181215   6.598   3.553  16.662 -0.6506  0.0099 -0.3938
19908TIP3    H281216   6.593   3.615  16.523 -1.7464  1.3947  0.2485
19909TIP3   OH281217   4.996   3.521  15.957 -0.0295  0.8367  0.0131
19909TIP3    H181218   4.963   3.433  15.975 -0.7082  1.1806  0.5011
19909TIP3    H281219   4.976   3.536  15.865 -0.6766  0.7974  0.1451
19910TIP3   OH281220   3.783   4.113  11.782  0.1191 -0.1541 -0.2051
19910TIP3    H181221   3.864   4.062  11.786 -0.3824 -0.9468  0.1577
19910TIP3    H281222   3.767   4.126  11.689  0.6451 -0.0233 -0.2777
19911TIP3   OH281223   3.284   5.923   5.697 -0.4961  0.1535 -0.0095
19911TIP3    H181224   3.308   5.892   5.610  0.7132 -2.6090  1.2360
19911TIP3    H281225   3.203   5.973   5.684 -1.3705 -1.8040 -2.4351
19912TIP3   OH281226   4.105   6.268  15.462  0.0343  0.3374  0.3696
19912TIP3    H181227   4.084   6.303  15.548 -1.8518 -1.4246  0.6701
19912TIP3    H281228   4.198   6.244  15.467  0.7136  2.9086  0.9242
19913TIP3   OH281229   4.650   6.037   1.114 -0.1474  0.1223  0.1592
19913TIP3    H181230   4.679   5.954   1.152  2.1279  0.4690 -0.7263
19913TIP3    H281231   4.618   6.088   1.189 -0.1856 -0.9972  0.9152
19914TIP3   OH281232   3.553   0.024   2.722 -0.0484 -0.4320  0.5499
19914TIP3    H181233   3.480  -0.035   2.743  0.0540 -0.7173  0.1050
19914TIP3    H281234   3.536   0.054   2.633  1.4745 -2.1630 -0.3549
19915TIP3   OH281235   4.696   6.361   4.267 -0.6202 -0.7355  0.0946
19915TIP3    H181236   4.705   6.456   4.265  0.5075 -0.8432 -0.2070
19915TIP3    H281237   4.742   6.331   4.189 -0.6329 -1.5516  0.3970
19916TIP3   OH281238   6.765   5.877  13.419 -0.1147  0.2488 -0.4021
19916TIP3    H181239   6.781   5.819  13.494  0.7041  3.4637  2.0314
19916TIP3    H281240   6.813   5.837  13.347 -0.5611 -2.7205  0.8609
19917TIP3   OH281241   2.753   6.218  12.530 -0.4319  0.6656 -0.5528
19917TIP3    H181242   2.753   6.252  12.441  0.7540  1.4052 -0.2890
19917TIP3    H281243   2.800   6.285  12.581  0.8991 -0.8132  0.1927
19918TIP3   OH281244   5.611   5.191  13.550 -0.3837  0.2070  0.1831
19918TIP3    H181245   5.589   5.164  13.640  0.3479  0.6790  0.5093
19918TIP3    H281246   5.533   5.235  13.518 -1.2720 -1.5095 -0.0347
19919TIP3   OH281247   1.380   0.587  13.957 -0.3037 -0.2028  0.5663
19919TIP3    H181248   1.402   0.620  13.870  0.8299 -1.2153  0.4648
19919TIP3    H281249   1.339   0.502  13.941  2.1278 -1.5187  1.1397
19920TIP3   OH281250   1.300   2.756  13.930  0.1073  0.2280 -0.2139
19920TIP3    H181251   1.297   2.779  13.837 -0.1595 -1.6455 -0.7002
19920TIP3    H281252   1.208   2.745  13.954  0.2049  0.1559  0.1209
19921TIP3   OH281253   4.544   5.427   2.118 -0.3664  0.5839  0.7124
19921TIP3    H181254   4.483   5.396   2.052  0.5600  0.1715  0.0418
19921TIP3    H281255   4.629   5.425   2.075  0.1561  0.9268  1.7133
19922TIP3   OH281256   2.070   0.116  11.735 -0.1161  0.4192  0.1361
19922TIP3    H181257   2.101   0.077  11.816 -1.7325 -0.1176  0.4995
19922TIP3    H281258   2.127   0.079  11.667  0.1472 -0.4272  0.8171
19923TIP3   OH281259   5.123   4.469   4.835  0.2598  0.2220  0.0056
19923TIP3    H181260   5.099   4.561   4.848  1.7406  0.4708  1.1350
19923TIP3    H281261   5.182   4.449   4.909 -0.8063 -1.9012  0.3265
19924TIP3   OH281262   0.525   4.254  14.837 -0.1516 -0.0467 -0.0311
19924TIP3    H181263   0.559   4.174  14.877  0.5295  0.3035  0.1010
19924TIP3    H281264   0.455   4.224  14.779  0.2141 -0.7532 -0.1122
19925TIP3   OH281265   5.832   3.951  13.871 -0.1190 -0.4020 -0.2388
19925TIP3    H181266   5.747   3.938  13.829  0.6784 -3.6230 -0.9988
19925TIP3    H281267   5.886   3.879  13.838  2.0392 -0.1061  2.4959
19926TIP3   OH281268   1.536   6.142  12.688  0.4331  0.1578  0.1219
19926TIP3    H181269   1.595   6.092  12.631  1.0306  1.9062 -0.8375
19926TIP3    H281270   1.584   6.151  12.770  1.3804  1.2187 -0.5225
19927TIP3   OH281271   5.808   3.875  15.112 -0.7289 -0.1644 -0.6442
19927TIP3    H181272   5.790   3.788  15.148 -2.7124 -0.0970 -1.3924
19927TIP3    H281273   5.769   3.873  15.025  0.5290  0.9968 -1.2416
19928TIP3   OH281274   4.397   6.452  11.788 -0.7106  0.0665 -0.6006
19928TIP3    H181275   4.489   6.429  11.802  0.0379  2.8566 -0.6244
19928TIP3    H281276   4.390   6.463  11.693 -0.8953  0.5028 -0.5368
19929TIP3   OH281277   4.648   3.591   3.386 -0.6343  0.6106  0.5470
19929TIP3    H181278   4.637   3.496   3.375 -3.0607  1.0591 -1.1961
19929TIP3    H281279   4.636   3.605   3.480 -2.0601 -0.6103  0.5787
19930TIP3   OH281280   0.812   6.291  11.475  0.1310 -0.0076 -0.6420
19930TIP3    H181281   0.851   6.366  11.430  0.7732 -0.7514 -1.3527
19930TIP3    H281282   0.721   6.316  11.488  0.1013  0.5064 -1.7480
19931TIP3   OH281283   0.797   0.049   1.261  0.0971 -0.2031  0.2785
19931TIP3    H181284   0.881   0.080   1.226  0.0489 -1.4739 -1.0503
19931TIP3    H281285   0.733   0.112   1.229  0.4438  0.3465  0.6528
19932TIP3   OH281286   4.043   4.999   1.747  0.3330 -0.2064  0.4623
19932TIP3    H181287   3.952   4.970   1.747 -0.1908  1.3990 -0.2461
19932TIP3    H281288   4.058   5.030   1.658  0.8075  1.8916  1.2562
19933TIP3   OH281289   1.046   1.926   0.300  0.1654  0.1569 -0.0195
19933TIP3    H181290   0.995   1.911   0.221  0.0209  0.2192  0.0622
19933TIP3    H281291   1.018   1.858   0.361 -1.4267  1.5328  0.8059
19934TIP3   OH281292   6.487   1.323   0.602 -0.1439 -0.5551  0.0594
19934TIP3    H181293   6.399   1.341   0.569  0.5958 -0.1129 -1.7366
19934TIP3    H281294   6.525   1.264   0.537  1.2097  0.0044  0.3371
19935TIP3   OH281295   3.076   4.062  14.109 -0.3168 -0.0498 -0.3280
19935TIP3    H181296   3.120   4.061  14.024 -0.6974 -1.2077 -0.5208
19935TIP3    H281297   2.983   4.074  14.088 -0.2970  0.6909 -0.0146
19936TIP3   OH281298   4.858   5.535   4.688 -0.0176  0.0893 -0.2631
19936TIP3    H181299   4.866   5.460   4.630 -0.3611  0.1370 -0.3749
19936TIP3    H281300   4.770   5.527   4.726 -0.2659  0.7288 -0.6923
19937TIP3   OH281301   1.914   3.879  10.899 -0.3218  0.3984  0.3896
19937TIP3    H181302   1.943   3.927  10.976  2.0022 -0.9551  0.3782
19937TIP3    H281303   1.974   3.906  10.829 -2.6858  1.9823 -1.1283
19938TIP3   OH281304   3.623   2.529   3.631 -0.1802  0.5336 -0.0077
19938TIP3    H181305   3.649   2.437   3.625  1.6545  1.1107 -1.3402
19938TIP3    H281306   3.568   2.543   3.554 -1.3440  0.2941  0.7679
19939TIP3   OH281307   5.494   0.252   6.040  0.5106 -0.4581 -0.2153
19939TIP3    H181308   5.536   0.182   6.089  0.8774 -0.4486 -0.5166
19939TIP3    H281309   5.441   0.298   6.105 -2.5594 -3.1602 -0.6757
19940TIP3   OH281310   5.443   2.317   5.666  0.0488 -0.0274 -0.6204
19940TIP3    H181311   5.357   2.289   5.695  0.7068 -0.2679  1.2007
19940TIP3    H281312   5.492   2.235   5.654 -0.1458  0.0764 -2.2757
19941TIP3   OH281313   4.152   0.657  16.364 -0.1646  0.0036  0.1879
19941TIP3    H181314   4.224   0.632  16.306 -0.4783 -2.6668  0.8797
19941TIP3    H281315   4.073   0.629  16.318 -0.6170  0.8235  0.4581
19942TIP3   OH281316   5.090   6.780  11.645 -0.0857  0.1295 -0.4869
19942TIP3    H181317   5.050   6.865  11.661 -1.1764 -0.1655 -1.5239
19942TIP3    H281318   5.041   6.719  11.700  0.5258  0.1283  0.0607
19943TIP3   OH281319   6.090   2.996  13.844 -0.0464 -0.0152  1.0310
19943TIP3    H181320   6.048   2.923  13.890 -0.3217  0.2717  1.2323
19943TIP3    H281321   6.113   2.960  13.758  0.3689 -0.5201  1.3467
19944TIP3   OH281322   2.720   2.970  15.777 -0.9115  0.6192  0.6529
19944TIP3    H181323   2.715   2.894  15.835  0.1202 -0.8483 -1.1107
19944TIP3    H281324   2.810   3.001  15.786 -0.2915 -0.5138 -1.1851
19945TIP3   OH281325   3.895   0.513  12.126 -0.2849 -0.3463 -0.1549
19945TIP3    H181326   3.850   0.437  12.161 -1.4696  0.5954  0.4113
19945TIP3    H281327   3.846   0.535  12.047  0.1882 -0.2984 -0.4363
19946TIP3   OH281328   6.023   4.597  11.656 -0.5228  0.0800 -0.0575
19946TIP3    H181329   6.075   4.568  11.731  0.5083  1.1070 -0.3436
19946TIP3    H281330   6.087   4.608  11.585 -1.3929 -0.3000 -0.9124
19947TIP3   OH281331   1.794   1.677  11.223 -0.0270  0.0416 -0.2893
19947TIP3    H181332   1.886   1.650  11.231  0.9409  2.0140 -3.6449
19947TIP3    H281333   1.759   1.623  11.152 -1.0577  0.3086  0.0072
19948TIP3   OH281334   0.633   2.862   4.732  0.0713  0.4793  0.0931
19948TIP3    H181335   0.539   2.871   4.717  0.1066  1.0122  0.1663
19948TIP3    H281336   0.649   2.910   4.813  0.2239 -0.5810  0.6929
19949TIP3   OH281337   1.241   5.112   1.665 -0.3137 -0.4772 -0.0401
19949TIP3    H181338   1.327   5.069   1.665 -1.2777 -2.5597 -2.9436
19949TIP3    H281339   1.260   5.204   1.648  1.2465 -1.3265 -3.3081
19950TIP3   OH281340   3.475   4.584   4.205 -0.3714 -0.3897  0.2985
19950TIP3    H181341   3.478   4.636   4.125  1.1870 -0.5725  0.2089
19950TIP3    H281342   3.459   4.647   4.274  3.7704  0.6378  0.4722
19951TIP3   OH281343   6.284   4.490  12.659  0.2648 -0.2067 -0.3482
19951TIP3    H181344   6.366   4.516  12.702 -1.8195  4.6633  0.9289
19951TIP3    H281345   6.288   4.532  12.573 -2.2342  2.8900  0.9560
19952TIP3   OH281346   4.969   4.964  10.347 -0.3864  0.6948 -0.9234
19952TIP3    H181347   5.039   5.028  10.339 -1.0519  1.5641  0.0247
19952TIP3    H281348   4.915   4.976  10.269  1.1831 -0.8156 -2.2707
19953TIP3   OH281349   6.517   4.469  14.949 -0.3340 -0.6775 -0.1746
19953TIP3    H181350   6.546   4.446  15.037  0.9916 -1.5571 -0.8355
19953TIP3    H281351   6.471   4.553  14.961  1.5647  0.2312  1.0507
19954TIP3   OH281352   0.121   2.896  15.369  0.1627  0.4118 -0.0845
19954TIP3    H181353   0.047   2.837  15.354 -0.2686  1.2548 -1.4151
19954TIP3    H281354   0.132   2.941  15.285  1.2578  1.3387  0.5517
19955TIP3   OH281355   2.450   5.013   5.095  0.2922 -0.5321  0.7507
19955TIP3    H181356   2.381   5.075   5.116  0.2051 -0.1480 -0.6003
19955TIP3    H281357   2.404   4.941   5.050  0.4975 -1.2156  1.6223
19956TIP3   OH281358   0.989   2.943   4.720 -0.0346  0.0926  0.2025
19956TIP3    H181359   1.068   2.964   4.670  0.9266 -0.5080  1.4435
19956TIP3    H281360   0.947   3.028   4.734 -1.7021  0.0145 -3.8224
19957TIP3   OH281361   4.940   5.116   3.808 -0.1264 -0.0751  0.1768
19957TIP3    H181362   4.957   5.074   3.893 -1.4289 -0.8880  0.0501
19957TIP3    H281363   4.889   5.051   3.760  0.9761  0.1984 -1.4036
19958TIP3   OH281364   3.212   3.615  15.198 -0.4540  0.2575  0.1541
19958TIP3    H181365   3.187   3.559  15.125  1.0691  0.6485 -0.6844
19958TIP3    H281366   3.211   3.556  15.274  1.2476 -0.9657 -0.7428
19959TIP3   OH281367   2.255   4.278   5.991 -0.6404  0.0934 -0.5026
19959TIP3    H181368   2.239   4.228   6.071  3.1239  0.2725  0.4728
19959TIP3    H281369   2.201   4.357   6.001 -0.3349  0.0413  1.8010
19960TIP3   OH281370   2.831   6.757   0.456 -0.8042  0.0688  0.1910
19960TIP3    H181371   2.848   6.668   0.424  2.4428  0.5173  0.5114
19960TIP3    H281372   2.868   6.814   0.389 -1.4724  1.1442  0.7346
19961TIP3   OH281373   5.624   1.803   4.706 -0.4178  0.2510  0.4309
19961TIP3    H181374   5.617   1.898   4.697 -1.0982  0.0673 -1.1175
19961TIP3    H281375   5.562   1.781   4.777 -0.1814  0.9638  0.8574
19962TIP3   OH281376   4.138   5.361  13.504  0.2168 -0.0660 -0.2569
19962TIP3    H181377   4.093   5.350  13.588  0.2296  0.1695 -0.2197
19962TIP3    H281378   4.227   5.385  13.528  0.1139  0.4007 -0.3464
19963TIP3   OH281379   6.380   1.787  13.617 -0.0360 -0.1896 -0.2841
19963TIP3    H181380   6.456   1.751  13.663 -0.7806 -2.0288 -0.4545
19963TIP3    H281381   6.415   1.861  13.567  1.3955 -0.2240  0.6566
19964TIP3   OH281382   1.186   2.305  13.552  0.1182  0.1437 -0.0525
19964TIP3    H181383   1.209   2.354  13.473  0.2458  0.8014  0.3813
19964TIP3    H281384   1.180   2.372  13.620  2.2152 -0.6888  0.9755
19965TIP3   OH281385   3.971   2.836   2.486  0.5106  0.2206  0.0049
19965TIP3    H181386   3.987   2.929   2.469 -0.1322 -0.1498 -2.7019
19965TIP3    H281387   3.936   2.835   2.575  0.2533  2.6028 -0.0213
19966TIP3   OH281388   2.452   3.092   3.184 -0.4478 -0.5881  0.1498
19966TIP3    H181389   2.515   3.090   3.112 -0.5294 -0.8371  0.0842
19966TIP3    H281390   2.442   3.000   3.209 -0.0172 -0.4608  0.8251
19967TIP3   OH281391   1.339   5.779   1.622 -1.4628 -0.0539 -0.4500
19967TIP3    H181392   1.420   5.782   1.673 -1.0530  1.1712 -1.1430
19967TIP3    H281393   1.270   5.765   1.688 -0.9701  1.7762  0.5098
19968TIP3   OH281394   2.097   1.212   0.412  0.6686  0.1741  0.2579
19968TIP3    H181395   2.072   1.247   0.497 -1.0301 -0.5473  0.0638
19968TIP3    H281396   2.090   1.117   0.422  0.5355  0.0837 -0.6661
19969TIP3   OH281397   1.130   5.094  12.344 -0.0461  0.8570 -0.2199
19969TIP3    H181398   1.078   5.052  12.275 -0.3613  0.5242  0.2129
19969TIP3    H281399   1.076   5.167  12.373 -0.3250  0.4513  0.2996
19970TIP3   OH281400   6.522   0.308  10.965 -0.2700 -0.1188 -0.4454
19970TIP3    H181401   6.436   0.343  10.942 -0.7385 -1.3520 -0.5764
19970TIP3    H281402   6.539   0.239  10.901  1.3518  0.8973 -1.1515
19971TIP3   OH281403   3.865   3.360  13.487 -0.2850  0.0769 -0.4518
19971TIP3    H181404   3.948   3.344  13.532  0.0497 -0.5961 -1.2922
19971TIP3    H281405   3.888   3.419  13.415 -0.5443 -0.1079 -0.6850
19972TIP3   OH281406   1.856   5.302  13.328 -0.1339 -0.2653  0.4719
19972TIP3    H181407   1.774   5.328  13.371 -0.1339 -2.9598  2.2672
19972TIP3    H281408   1.836   5.216  13.289  1.3795 -0.1938 -0.4968
19973TIP3   OH281409   6.188   3.585   1.152  0.1907 -0.4887 -0.4121
19973TIP3    H181410   6.253   3.570   1.084  0.7628 -0.2121  0.0740
19973TIP3    H281411   6.213   3.526   1.223 -1.1136 -1.6646 -0.9194
19974TIP3   OH281412   4.204   0.317   2.458  0.6570  0.8032 -0.4222
19974TIP3    H181413   4.125   0.350   2.501  0.5013  1.0461 -0.8834
19974TIP3    H281414   4.199   0.222   2.470  1.2436  0.9581  1.1396
19975TIP3   OH281415   4.732   2.866  16.299  0.1754 -0.7067  0.1915
19975TIP3    H181416   4.824   2.845  16.315  0.0050 -0.3652  1.7503
19975TIP3    H281417   4.685   2.825  16.371 -0.5531  1.6980  1.1651
19976TIP3   OH281418   1.776   2.103  15.939 -0.2953  0.0634  0.3577
19976TIP3    H181419   1.839   2.041  15.977 -1.9266 -1.3868  0.7547
19976TIP3    H281420   1.767   2.075  15.848  0.5158  1.0011 -0.0157
19977TIP3   OH281421   0.231   1.828   1.288  0.0534 -0.5917  0.3339
19977TIP3    H181422   0.285   1.750   1.303  0.4689 -0.5651 -0.9936
19977TIP3    H281423   0.186   1.810   1.205 -0.2197  0.3811  0.2717
19978TIP3   OH281424   2.737   3.670  16.397 -0.1078 -0.2552  0.0957
19978TIP3    H181425   2.735   3.685  16.302 -0.3815 -2.0270 -0.1969
19978TIP3    H281426   2.646   3.678  16.424 -0.1202 -0.4028  0.0981
19979TIP3   OH281427   0.111   2.865  17.010 -0.2590 -0.3710 -0.0415
19979TIP3    H181428   0.192   2.837  16.966  0.1181 -0.3621  0.6432
19979TIP3    H281429   0.095   2.797  17.075 -1.5545 -1.0832 -1.0949
19980TIP3   OH281430   6.547   0.246  13.872 -0.2548 -0.1679  0.1029
19980TIP3    H181431   6.636   0.262  13.903  0.5670 -1.4944 -1.4622
19980TIP3    H281432   6.553   0.166  13.820 -2.4348 -0.4568  0.2187
19981TIP3   OH281433   1.541   1.107  13.617  0.2486  0.1575 -0.1396
19981TIP3    H181434   1.533   1.123  13.711  0.5673  0.9740 -0.2417
19981TIP3    H281435   1.499   1.022  13.603 -0.5009  0.3956  0.6202
19982TIP3   OH281436   2.899   3.635   0.800  0.4100  0.2322  0.4845
19982TIP3    H181437   2.918   3.602   0.888  0.5317 -0.0590  0.3502
19982TIP3    H281438   2.986   3.654   0.763  0.4873 -1.5892 -0.3233
19983TIP3   OH281439   6.321   5.819   1.588  0.1029  0.3870  0.6163
19983TIP3    H181440   6.267   5.895   1.611 -1.2459  0.1155 -1.4332
19983TIP3    H281441   6.286   5.747   1.641 -2.4696 -0.0773 -1.5819
19984TIP3   OH281442   1.521   6.769   5.547  0.1867  0.1529 -0.0337
19984TIP3    H181443   1.560   6.823   5.616  2.4441  0.9025 -1.8525
19984TIP3    H281444   1.505   6.830   5.475 -0.3390 -0.9948 -0.8935
19985TIP3   OH281445   2.004   0.037   1.352 -0.6138  0.0505 -0.3869
19985TIP3    H181446   1.975   0.045   1.443  0.3543  0.8731 -0.1358
19985TIP3    H281447   2.022  -0.056   1.340  1.3761  0.2396  0.9514
19986TIP3   OH281448   1.889   0.206  11.531  0.0024  0.4370 -0.0944
19986TIP3    H181449   1.905   0.204  11.626 -0.2962  0.2663 -0.0476
19986TIP3    H281450   1.835   0.129  11.514 -0.0075  0.5089 -0.3930
19987TIP3   OH281451   0.603   1.240  15.733 -1.3192  0.2005 -0.2150
19987TIP3    H181452   0.665   1.271  15.666 -0.3829  2.8018  1.7841
19987TIP3    H281453   0.619   1.145  15.738  1.4478  0.5826 -0.8201
19988TIP3   OH281454   3.899   1.192   3.711 -0.5393 -0.1754  0.3594
19988TIP3    H181455   3.840   1.144   3.653 -0.2244 -0.7931  0.5441
19988TIP3    H281456   3.867   1.174   3.799 -0.9217  0.6342  0.3858
19989TIP3   OH281457   1.800   6.176   1.170  0.1819  0.5647 -0.7113
19989TIP3    H181458   1.865   6.161   1.102 -0.4200 -3.2116 -0.5279
19989TIP3    H281459   1.718   6.191   1.123  0.0720 -0.5084 -0.8814
19990TIP3   OH281460   0.810   4.793   2.229  0.3266  0.6578 -0.0153
19990TIP3    H181461   0.731   4.832   2.267  1.4932  2.6376  0.3952
19990TIP3    H281462   0.877   4.860   2.237  1.3813  0.0245 -2.8543
19991TIP3   OH281463   0.077   0.369  12.023 -0.3058 -0.2336  0.7039
19991TIP3    H181464  -0.017   0.384  12.019 -0.3690  0.4108  3.6476
19991TIP3    H281465   0.089   0.310  12.098  1.5277 -1.3640 -0.4356
19992TIP3   OH281466   5.312   0.217   1.733  0.1680  0.5753  0.1630
19992TIP3    H181467   5.306   0.263   1.816 -0.0610 -0.2432  0.6057
19992TIP3    H281468   5.399   0.178   1.733 -0.5416 -1.0480  0.8871
19993TIP3   OH281469   0.495   5.448   3.473  0.1523  0.1285 -0.2887
19993TIP3    H181470   0.549   5.392   3.529  0.5629 -0.3347 -1.1371
19993TIP3    H281471   0.556   5.512   3.437 -0.1796  0.6584  0.0765
19994TIP3   OH281472   1.714   1.318  15.892 -0.0415  0.5986  0.7816
19994TIP3    H181473   1.797   1.305  15.847  0.7765  1.1287  2.0994
19994TIP3    H281474   1.685   1.405  15.865  0.3952  0.8738  1.1966
19995TIP3   OH281475   1.122   6.366  14.757 -0.1270 -0.1059 -0.0630
19995TIP3    H181476   1.213   6.346  14.734  0.2526  1.0227  0.3865
19995TIP3    H281477   1.118   6.353  14.852 -0.1203  0.9534  0.0909
19996TIP3   OH281478   2.727   6.368  16.676 -0.2533 -0.0269  0.0886
19996TIP3    H181479   2.645   6.346  16.720  1.9520 -1.5838  3.7055
19996TIP3    H281480   2.741   6.297  16.614 -0.6849 -0.7927  0.8590
19997TIP3   OH281481   6.399   6.054  16.663 -0.5334  0.0519 -0.0960
19997TIP3    H181482   6.383   6.139  16.702 -1.7767 -0.0793 -0.2888
19997TIP3    H281483   6.410   6.072  16.570  1.1473  0.2156  0.1178
19998TIP3   OH281484   2.228   5.172  15.347  0.1631  0.3700  0.2903
19998TIP3    H181485   2.248   5.262  15.375  0.9394 -0.2654  1.8372
19998TIP3    H281486   2.309   5.142  15.305 -0.1674  0.4532 -0.4171
19999TIP3   OH281487   2.842   0.604  16.077 -0.4931 -0.6242 -0.2661
19999TIP3    H181488   2.785   0.666  16.031 -1.3956 -2.0517 -1.0781
19999TIP3    H281489   2.895   0.565  16.009  1.4981  0.6733  0.4844
20000TIP3   OH281490   5.441   2.775   5.829 -0.1645  0.3910 -0.2027
20000TIP3    H181491   5.503   2.729   5.884  0.2528  0.1365 -0.8816
20000TIP3    H281492   5.429   2.860   5.872  1.2756  0.7549 -0.5116
20001TIP3   OH281493   5.068   5.969   2.896  0.1989 -0.7045  0.0270
20001TIP3    H181494   5.124   6.037   2.932 -0.4482  0.1264 -0.5220
20001TIP3    H281495   4.983   5.983   2.938 -0.2751 -0.3766 -1.0223
20002TIP3   OH281496   5.771   4.115  15.225 -0.2409 -0.5767  0.6322
20002TIP3    H181497   5.767   4.030  15.181  0.4126  0.2637 -1.0893
20002TIP3    H281498   5.791   4.093  15.317  0.2811 -2.2508  0.1448
20003TIP3   OH281499   5.767   4.967   2.534 -0.6904 -0.2879  0.3585
20003TIP3    H181500   5.792   4.966   2.626  4.6984  0.6530 -0.9096
20003TIP3    H281501   5.747   5.059   2.516  0.7019 -0.0265  0.0717
20004TIP3   OH281502   3.352   0.170  16.068 -0.2949 -0.2490 -0.2768
20004TIP3    H181503   3.325   0.079  16.082 -1.7770  0.3406  0.8409
20004TIP3    H281504   3.290   0.222  16.119 -0.0425  1.4459 -1.6299
20005TIP3   OH281505   5.481   2.253   0.427  0.3530 -0.3179 -0.3407
20005TIP3    H181506   5.435   2.236   0.345 -1.0001 -1.0264  0.5389
20005TIP3    H281507   5.565   2.291   0.401 -0.3920  0.2172 -2.0139
20006TIP3   OH281508   1.564   5.777  16.413 -0.0041  0.9359 -0.8508
20006TIP3    H181509   1.489   5.829  16.386  0.3116  1.2442 -1.1514
20006TIP3    H281510   1.626   5.842  16.447  0.1399  0.6901 -0.6464
20007TIP3   OH281511   3.780   3.506  10.834  0.0049  0.0445  0.5794
20007TIP3    H181512   3.732   3.539  10.758  0.0861 -0.6149  0.2362
20007TIP3    H281513   3.857   3.562  10.840 -0.0494  0.1608  0.2299
20008TIP3   OH281514   6.634   0.319  12.122  0.3315  0.1239 -0.3796
20008TIP3    H181515   6.542   0.297  12.108  0.6435 -1.7739  0.3499
20008TIP3    H281516   6.643   0.327  12.217  0.9136  0.2429 -0.4413
20009TIP3   OH281517   3.726   1.230  14.099  0.5344  0.0230  0.1504
20009TIP3    H181518   3.692   1.163  14.158 -0.7039 -0.2102 -0.8111
20009TIP3    H281519   3.649   1.280  14.073  0.9494 -0.3488 -1.8415
20010TIP3   OH281520   0.373   1.294   3.794 -0.1973 -0.4537 -0.2186
20010TIP3    H181521   0.424   1.307   3.874  1.1143 -0.9979 -0.9521
20010TIP3    H281522   0.360   1.200   3.789 -4.3873 -0.1038  1.8260
20011TIP3   OH281523   5.137   5.175  16.456 -0.1380 -0.4200  0.1944
20011TIP3    H181524   5.219   5.173  16.406 -0.7100 -2.1239 -0.7253
20011TIP3    H281525   5.105   5.264  16.446  1.2313  0.0591 -0.0615
20012TIP3   OH281526   3.972   4.387   2.843 -0.9628  0.5156  0.1146
20012TIP3    H181527   3.957   4.319   2.909  0.6098 -0.2084 -0.2526
20012TIP3    H281528   4.021   4.455   2.890 -2.4011  1.3271  0.4429
20013TIP3   OH281529   6.595   1.018   1.750 -0.2850 -0.2759 -0.0871
20013TIP3    H181530   6.580   1.057   1.664  2.2178  0.3717 -0.2911
20013TIP3    H281531   6.600   0.924   1.734  2.2338 -0.0222 -1.0422
20014TIP3   OH281532   3.426   5.730  15.379  0.2594  0.0796 -0.7811
20014TIP3    H181533   3.512   5.750  15.343  0.5497 -1.1337 -0.7647
20014TIP3    H281534   3.419   5.635  15.374 -0.6808  0.0947  0.1291
20015TIP3   OH281535   2.495   6.464   0.218 -0.7417 -0.1642 -0.4648
20015TIP3    H181536   2.502   6.432   0.308 -0.1655  0.7332 -0.1825
20015TIP3    H281537   2.578   6.511   0.203 -0.8011 -0.3742 -1.4845
20016TIP3   OH281538   5.718   0.483  15.955  0.2532  0.5704  0.2846
20016TIP3    H181539   5.623   0.474  15.948  0.2772 -1.2073  1.8963
20016TIP3    H281540   5.746   0.511  15.868 -1.5039 -1.1247 -0.8744
20017TIP3   OH281541   5.513   1.380  12.230 -0.4638 -0.6050 -0.8931
20017TIP3    H181542   5.532   1.286  12.236  0.6043 -0.3742 -0.6929
20017TIP3    H281543   5.450   1.396  12.300  1.3994 -0.6505  0.8402
20018TIP3   OH281544   4.376   5.336   3.983 -0.4406 -0.3773  0.3964
20018TIP3    H181545   4.371   5.275   3.910  0.3813 -0.0613  0.0616
20018TIP3    H281546   4.470   5.341   4.003 -0.4475  1.0692  0.1466
20019TIP3   OH281547   4.470   5.335   3.479  0.9549 -0.0948 -0.1468
20019TIP3    H181548   4.551   5.385   3.478  1.4074 -0.6726  2.6511
20019TIP3    H281549   4.473   5.282   3.399  3.3878 -0.1940 -0.0170
20020TIP3   OH281550   0.843   5.008  12.923 -0.6643  0.2357 -0.0771
20020TIP3    H181551   0.777   5.014  12.853 -1.1261  1.7377  0.4462
20020TIP3    H281552   0.792   4.986  13.001 -0.1970 -1.0819 -0.1371
20021TIP3   OH281553   5.286   0.454   5.703  0.1670 -0.4299 -0.8470
20021TIP3    H181554   5.376   0.467   5.732  0.8291 -1.5600 -2.3444
20021TIP3    H281555   5.240   0.533   5.733  1.9101  0.7150 -1.0918
20022TIP3   OH281556   6.795   4.861   2.984  0.2742 -0.0505  0.0843
20022TIP3    H181557   6.818   4.783   3.035 -1.8049 -2.5154 -2.6260
20022TIP3    H281558   6.727   4.832   2.924  1.8632  3.0276 -3.3950
20023TIP3   OH281559   2.697   1.824  13.242 -0.4837 -0.6654 -0.3791
20023TIP3    H181560   2.646   1.865  13.312  1.7897  1.9294 -0.1571
20023TIP3    H281561   2.632   1.778  13.188 -2.6859  0.2540  1.4374
20024TIP3   OH281562   0.620   1.274  17.238  0.3210  0.0813 -0.3048
20024TIP3    H181563   0.571   1.328  17.300  0.3526 -1.4678  1.0907
20024TIP3    H281564   0.593   1.306  17.152 -3.9043 -1.3740  0.3719
20025TIP3   OH281565   3.765   1.459   2.993 -0.8386  0.1777 -0.4276
20025TIP3    H181566   3.714   1.451   2.913  0.7163  0.2972 -1.4662
20025TIP3    H281567   3.834   1.393   2.984  0.0192  0.9567  0.2693
20026TIP3   OH281568   3.920   3.087   2.220  0.4791 -0.4712  0.3429
20026TIP3    H181569   3.839   3.112   2.264  0.7023 -0.7937  0.9400
20026TIP3    H281570   3.989   3.107   2.284  0.6994 -2.2386  0.6699
20027TIP3   OH281571   5.103   5.031  15.256 -0.0129  0.2723  0.3215
20027TIP3    H181572   5.162   4.981  15.200  0.2115 -0.3953  1.1380
20027TIP3    H281573   5.103   4.983  15.339  1.5304  2.5522  1.6913
20028TIP3   OH281574   2.912   1.259  11.331  0.7577 -0.5919 -0.0141
20028TIP3    H181575   2.875   1.347  11.327  1.1503 -0.4783 -1.5020
20028TIP3    H281576   2.984   1.260  11.267  1.0754 -1.8487  0.3041
20029TIP3   OH281577   0.693   0.419   4.356  0.2072 -0.0280 -0.6256
20029TIP3    H181578   0.713   0.388   4.444  0.3115 -0.6846 -0.8794
20029TIP3    H281579   0.599   0.407   4.346  0.2236 -0.1299 -0.6655
20030TIP3   OH281580   2.267   2.636   0.241  0.4343 -0.0362 -0.3488
20030TIP3    H181581   2.294   2.726   0.262  1.4408 -0.3894 -0.0897
20030TIP3    H281582   2.174   2.643   0.224  0.2096  0.8236  1.0879
20031TIP3   OH281583   0.839   5.958  11.352 -0.6696  0.2525 -0.7860
20031TIP3    H181584   0.886   6.002  11.282  0.8841 -0.3965 -0.1769
20031TIP3    H281585   0.819   5.871  11.318  1.7473 -0.7463  0.1826
20032TIP3   OH281586   4.234   0.878   0.939  0.0897  0.0791 -0.6122
20032TIP3    H181587   4.245   0.970   0.964 -2.3962  0.7048 -1.6654
20032TIP3    H281588   4.176   0.841   1.006 -0.0029 -0.3571 -0.9281
20033TIP3   OH281589   3.919   4.814  17.104  0.3925 -0.5824  0.1524
20033TIP3    H181590   3.844   4.766  17.067  0.0920 -0.6001  0.7720
20033TIP3    H281591   3.983   4.746  17.124 -0.0290 -0.7320  1.0194
20034TIP3   OH281592   6.741   0.547   3.027 -0.5625 -0.0259  0.2410
20034TIP3    H181593   6.689   0.530   2.948 -1.3709  1.4393  0.4556
20034TIP3    H281594   6.824   0.502   3.010 -0.9821 -0.3098 -1.1473
20035TIP3   OH281595   1.316   3.593   3.189  0.1292  0.1065  0.4207
20035TIP3    H181596   1.229   3.572   3.223 -0.5168  1.4749 -0.3509
20035TIP3    H281597   1.301   3.613   3.097  1.5581 -1.5269 -0.1858
20036TIP3   OH281598   0.377   4.130   0.994 -0.7034  0.2011  0.4075
20036TIP3    H181599   0.380   4.169   1.082 -0.5765 -1.0330  0.9516
20036TIP3    H281600   0.468   4.110   0.973 -0.5499  1.9105 -0.6568
20037TIP3   OH281601   1.983   4.301  15.729  0.2431 -0.2280 -0.1697
20037TIP3    H181602   1.957   4.392  15.714 -1.0125 -0.3840  1.0122
20037TIP3    H281603   2.068   4.293  15.684 -0.2821  1.1336 -1.4648
20038TIP3   OH281604   1.087   1.833   1.281  0.2390 -0.2880 -0.4699
20038TIP3    H181605   1.091   1.760   1.219  0.7383 -1.3180  0.7631
20038TIP3    H281606   0.998   1.830   1.316  0.1055  0.0016 -0.7827
20039TIP3   OH281607   6.094   1.377  13.806 -0.9556 -0.4494 -0.3117
20039TIP3    H181608   6.019   1.437  13.805  1.7419  3.0507 -0.8507
20039TIP3    H281609   6.127   1.381  13.896  0.5389  0.6304 -0.8872
20040TIP3   OH281610   2.998   5.756   2.747 -0.3070 -0.2249 -0.0439
20040TIP3    H181611   3.075   5.759   2.689  1.0086  1.7162  1.7076
20040TIP3    H281612   3.018   5.686   2.810 -0.0982  0.0773  0.2284
20041TIP3   OH281613   2.544   0.886   3.919 -0.5935 -0.5559  0.1322
20041TIP3    H181614   2.520   0.968   3.961 -0.6430 -0.0960 -0.7924
20041TIP3    H281615   2.500   0.888   3.834 -1.4433 -1.9910  0.5139
20042TIP3   OH281616   4.577   4.221   5.946  0.1596  0.3014 -0.0016
20042TIP3    H181617   4.496   4.172   5.958  1.1559 -1.4656 -0.3663
20042TIP3    H281618   4.624   4.210   6.029  1.9727 -2.4128 -1.3058
20043TIP3   OH281619   1.943   0.375  12.781 -0.1502 -0.4116  0.2924
20043TIP3    H181620   1.938   0.420  12.696 -0.2100 -1.4464 -0.2658
20043TIP3    H281621   1.903   0.289  12.765 -2.1229  0.1681  1.9198
20044TIP3   OH281622   4.922   3.437   1.135 -0.0974 -0.1235 -0.3728
20044TIP3    H181623   4.910   3.405   1.046 -0.2767 -0.4365 -0.2364
20044TIP3    H281624   4.902   3.530   1.130  1.3744  0.1658 -0.9725
20045TIP3   OH281625   3.817   3.025  16.300 -0.2003  0.2936  0.6420
20045TIP3    H181626   3.793   3.021  16.208 -1.5640  2.4599  0.8735
20045TIP3    H281627   3.754   2.967  16.344  0.8647 -1.2494  0.1478
20046TIP3   OH281628   0.561   1.984  16.336  0.2027 -0.5047 -0.1694
20046TIP3    H181629   0.589   1.918  16.272 -1.3700  0.6547 -2.1430
20046TIP3    H281630   0.510   1.935  16.400  1.4344 -1.6296 -0.0140
20047TIP3   OH281631   5.049   0.976   0.951 -0.7273 -0.2069  0.4755
20047TIP3    H181632   4.980   0.948   0.890 -0.9404  1.5096 -0.1015
20047TIP3    H281633   5.091   0.895   0.978 -0.7448 -1.0377 -1.8437
20048TIP3   OH281634   5.981   1.117   0.049 -0.1985 -0.3498 -0.5330
20048TIP3    H181635   5.950   1.193   0.099  1.5897 -0.8537  1.4494
20048TIP3    H281636   5.972   1.143  -0.043 -0.7057  1.8155  0.1048
20049TIP3   OH281637   2.465   3.773  12.584 -0.5974 -0.4131 -0.1743
20049TIP3    H181638   2.394   3.729  12.537 -1.3482  1.5742 -0.9439
20049TIP3    H281639   2.458   3.742  12.674 -1.2598 -1.6700 -0.6549
20050TIP3   OH281640   2.319   3.995   6.444  0.4346  0.3119 -0.3803
20050TIP3    H181641   2.302   4.078   6.489  1.2431  0.5452 -0.4939
20050TIP3    H281642   2.234   3.966   6.413 -0.1113  0.2518  1.1282
20051TIP3   OH281643   0.526   0.836   0.855 -0.0135 -0.9786  0.0202
20051TIP3    H181644   0.592   0.861   0.791 -0.7950  0.0020 -0.4199
20051TIP3    H281645   0.566   0.766   0.906  1.6567  0.1807  0.3135
20052TIP3   OH281646   4.799   5.649  15.773  0.1901  0.9189  0.4598
20052TIP3    H181647   4.804   5.743  15.793  1.2855  1.0209 -0.2114
20052TIP3    H281648   4.889   5.626  15.749  0.0222 -0.4073  1.0699
20053TIP3   OH281649   5.223   1.860   3.833  0.3943 -0.0130 -0.1214
20053TIP3    H181650   5.270   1.783   3.802  0.3370 -0.5548  1.1375
20053TIP3    H281651   5.136   1.852   3.793  0.6507 -0.1553 -0.6649
20054TIP3   OH281652   2.299   5.497   3.971 -0.3999  0.1416  0.6876
20054TIP3    H181653   2.252   5.566   4.017  0.4945  0.8423  0.5592
20054TIP3    H281654   2.376   5.540   3.934 -1.4141 -0.2719 -2.0120
20055TIP3   OH281655   4.494   2.399  14.510  0.5046 -0.1731 -0.1138
20055TIP3    H181656   4.421   2.460  14.518 -0.7798 -1.4620 -1.6625
20055TIP3    H281657   4.537   2.421  14.428  1.1747 -0.1532  0.2348
20056TIP3   OH281658   0.810   2.535   3.438  0.4326 -0.0314 -0.5175
20056TIP3    H181659   0.749   2.526   3.512  0.5038 -0.5882 -0.5187
20056TIP3    H281660   0.822   2.629   3.428  0.2416  0.0560  0.0368
20057TIP3   OH281661   3.281   5.595  16.123  0.1300  0.2728 -0.7706
20057TIP3    H181662   3.336   5.673  16.110 -1.0445  1.1052 -0.7803
20057TIP3    H281663   3.329   5.543  16.187 -0.0277  1.9498  0.7585
20058TIP3   OH281664   4.508   0.093  13.748 -0.2364 -0.1831  0.5678
20058TIP3    H181665   4.519   0.176  13.795 -0.4319  0.8576 -1.1580
20058TIP3    H281666   4.428   0.105  13.697  0.7841 -0.6581 -1.2055
20059TIP3   OH281667   3.419   1.156  14.307  0.8344  0.0154  0.4220
20059TIP3    H181668   3.482   1.204  14.361  0.5998  0.1143  0.6088
20059TIP3    H281669   3.420   1.067  14.342  1.1054 -0.0615  0.2197
20060TIP3   OH281670   5.519   4.928  13.287 -0.8139 -0.0403  0.0813
20060TIP3    H181671   5.529   4.855  13.349  2.5153 -1.0032 -1.4962
20060TIP3    H281672   5.595   4.984  13.304 -1.9468  1.7156 -0.5255
20061TIP3   OH281673   2.185   5.658  13.520 -0.5889 -0.0732  0.4032
20061TIP3    H181674   2.116   5.710  13.561 -1.3582 -0.4641 -0.3925
20061TIP3    H281675   2.202   5.588  13.582 -0.4766  0.3715  0.8791
20062TIP3   OH281676   0.048   0.689  11.429 -0.3764 -0.1463  0.5710
20062TIP3    H181677   0.019   0.780  11.422 -0.6839 -0.3202 -0.4266
20062TIP3    H281678   0.097   0.686  11.512 -1.0309  0.7348  0.9926
20063TIP3   OH281679   1.827   1.581  14.877 -0.5968  0.0404 -0.1321
20063TIP3    H181680   1.794   1.620  14.958  1.5695 -0.2333  0.9012
20063TIP3    H281681   1.755   1.525  14.847 -1.9066  1.1376  0.8929
20064TIP3   OH281682   3.188   0.377   4.560  0.2388 -0.4328 -0.4370
20064TIP3    H181683   3.176   0.323   4.482  0.6139 -0.8920 -0.1777
20064TIP3    H281684   3.149   0.326   4.631 -1.1924  0.5109 -0.5084
20065TIP3   OH281685   6.734   1.058  15.569  0.1598 -0.2823  0.0525
20065TIP3    H181686   6.709   1.111  15.645  0.3659 -0.7987  0.4874
20065TIP3    H281687   6.800   0.998  15.603  1.4533  0.5586 -0.9035
20066TIP3   OH281688   1.776   5.757   3.716 -0.1152  0.3207  0.1393
20066TIP3    H181689   1.809   5.824   3.776  0.6081 -0.1643  0.3010
20066TIP3    H281690   1.824   5.678   3.742 -1.6208 -0.4708  0.5553
20067TIP3   OH281691   3.472   3.290  16.948  0.3212  0.3710 -0.4706
20067TIP3    H181692   3.519   3.228  17.004 -0.8366 -0.1367 -0.0345
20067TIP3    H281693   3.527   3.368  16.948  1.4741 -0.4163 -0.4881
20068TIP3   OH281694   2.243   1.047  12.967  0.1125 -0.3879  0.0371
20068TIP3    H181695   2.315   1.072  12.910 -0.4767  0.0490 -0.5266
20068TIP3    H281696   2.166   1.046  12.910 -1.0065  2.8701  1.3339
20069TIP3   OH281697   4.739   3.776  16.715 -0.2700  0.2430  0.2302
20069TIP3    H181698   4.744   3.838  16.787 -0.6582  0.0138  0.4552
20069TIP3    H281699   4.648   3.782  16.685 -0.2021  0.0820 -0.0105
20070TIP3   OH281700   4.127   2.389  13.933 -0.5159  0.3897  0.1598
20070TIP3    H181701   4.109   2.385  14.027 -0.4396  0.0364  0.1620
20070TIP3    H281702   4.062   2.450  13.899 -1.1306 -0.1730  0.3051
20071TIP3   OH281703   6.201   3.474   4.929 -0.3044  0.5159 -0.4311
20071TIP3    H181704   6.108   3.455   4.921 -0.3377  0.7230 -0.5254
20071TIP3    H281705   6.213   3.559   4.886 -0.0494  0.4270 -0.5383
20072TIP3   OH281706   4.026   4.086  12.845 -0.7299  0.2895 -0.2851
20072TIP3    H181707   4.079   4.166  12.852 -1.5656  0.8462 -0.2988
20072TIP3    H281708   3.995   4.070  12.934 -0.3728 -0.1603 -0.2367
20073TIP3   OH281709   3.513   1.062  17.276 -0.3457 -1.0089  0.4569
20073TIP3    H181710   3.553   1.055  17.189  0.5149  1.7049  0.5820
20073TIP3    H281711   3.583   1.040  17.337 -0.4325 -1.1083  0.5210
20074TIP3   OH281712   6.342   6.172  14.464  0.2742 -0.1152  0.4955
20074TIP3    H181713   6.247   6.169  14.474  0.3964 -0.8272  1.5666
20074TIP3    H281714   6.375   6.138  14.547  1.5125  3.4280  1.5383
20075TIP3   OH281715   0.366   4.226   1.488 -0.6162 -0.1276 -0.2913
20075TIP3    H181716   0.371   4.131   1.494 -0.0201 -0.0711  0.2145
20075TIP3    H281717   0.280   4.248   1.525 -0.8553 -0.4875 -0.6366
20076TIP3   OH281718   3.562   0.808   1.262  0.5771  0.0790 -0.3426
20076TIP3    H181719   3.544   0.895   1.228 -0.1372  0.5521  1.1752
20076TIP3    H281720   3.637   0.777   1.211  1.6832  2.1011 -0.0086
20077TIP3   OH281721   5.964   0.287   5.760 -0.1403  0.0736 -0.1471
20077TIP3    H181722   5.893   0.271   5.822  0.1073  0.8003  0.3350
20077TIP3    H281723   6.035   0.230   5.789  0.4066  1.3050  0.9871
20078TIP3   OH281724   4.310   3.518  17.039 -0.2908  0.3316 -0.2187
20078TIP3    H181725   4.343   3.593  17.088 -1.4529  0.9110 -0.2770
20078TIP3    H281726   4.291   3.451  17.105  1.5798 -0.2462 -0.2529
20079TIP3   OH281727   2.473   2.829   3.234 -0.3177  0.2534  0.5972
20079TIP3    H181728   2.467   2.751   3.289  0.0972  2.0403  3.3071
20079TIP3    H281729   2.556   2.820   3.188 -0.9260 -1.5364 -0.1726
20080TIP3   OH281730   5.824   6.814  11.327 -0.1564 -0.3466  0.0246
20080TIP3    H181731   5.865   6.760  11.395  0.6833  0.6475  0.3248
20080TIP3    H281732   5.801   6.752  11.258  1.4757 -1.0050  0.0379
20081TIP3   OH281733   0.623   3.345  16.341  0.1372 -0.1214 -0.1054
20081TIP3    H181734   0.637   3.430  16.299  0.6029  0.8446  1.9291
20081TIP3    H281735   0.587   3.367  16.427 -0.9223 -2.0520 -0.0380
20082TIP3   OH281736   2.463   5.495   0.464  0.0126  0.1890  0.3996
20082TIP3    H181737   2.385   5.447   0.436  0.1094 -0.3098  0.9839
20082TIP3    H281738   2.430   5.581   0.489 -0.3712 -0.0666  0.7820
20083TIP3   OH281739   4.382   5.819   4.690 -0.0290  0.4445 -0.4144
20083TIP3    H181740   4.476   5.820   4.671 -0.0164  0.5926 -0.3417
20083TIP3    H281741   4.342   5.855   4.611 -0.0147  0.5292 -0.3828
20084TIP3   OH281742   2.769   4.318  11.579 -0.0412  0.0436  0.2353
20084TIP3    H181743   2.709   4.329  11.505 -0.2497  0.2939  0.4394
20084TIP3    H281744   2.713   4.324  11.656 -0.0793 -1.9119  0.3741
20085TIP3   OH281745   2.638   3.243  14.816 -0.0817 -0.4873  0.2303
20085TIP3    H181746   2.655   3.312  14.880  1.1694  0.1781 -0.7996
20085TIP3    H281747   2.721   3.196  14.808 -0.6703 -1.5386  0.2422
20086TIP3   OH281748   5.340   3.161   4.363 -0.4880  0.3352  0.2122
20086TIP3    H181749   5.330   3.067   4.350 -0.0104  0.3693 -0.4117
20086TIP3    H281750   5.294   3.179   4.445 -0.8745 -0.3839  0.1542
20087TIP3   OH281751   5.443   5.802   4.672 -0.0371  0.1545  0.0573
20087TIP3    H181752   5.504   5.871   4.698 -0.8050  0.9915 -0.3465
20087TIP3    H281753   5.418   5.761   4.755 -1.2068  1.7500  0.5186
20088TIP3   OH281754   0.162   3.191  15.388  0.5188 -0.2019 -1.1565
20088TIP3    H181755   0.188   3.167  15.477  0.8382  0.5549 -1.0378
20088TIP3    H281756   0.201   3.124  15.332  2.6302  0.8358 -0.9633
20089TIP3   OH281757   1.431   0.963  17.032  0.3468 -0.0012  0.1602
20089TIP3    H181758   1.376   0.985  17.107 -0.7405  1.1980 -0.9633
20089TIP3    H281759   1.508   0.920  17.070 -0.1170  0.7367  1.9689
20090TIP3   OH281760   3.750   4.838   0.255 -0.4977  0.1121  0.2456
20090TIP3    H181761   3.671   4.830   0.201 -0.5402 -0.6134  0.3996
20090TIP3    H281762   3.720   4.815   0.343 -0.3002  0.6956  0.4647
20091TIP3   OH281763   6.064   5.677  13.262 -0.4019 -0.7120  0.5598
20091TIP3    H181764   6.116   5.600  13.282 -0.8479 -0.4736  2.7115
20091TIP3    H281765   6.123   5.733  13.212  0.2923 -1.9191 -0.0092
20092TIP3   OH281766   3.739   0.006  16.256  0.1245  0.3984 -0.1853
20092TIP3    H181767   3.752   0.027  16.348 -0.5555 -2.4064  0.5795
20092TIP3    H281768   3.646  -0.015  16.248  0.6344 -1.6900 -1.0042
20093TIP3   OH281769   6.059   2.664  15.710  0.1798 -0.1423 -0.1809
20093TIP3    H181770   6.081   2.693  15.799 -0.1607  2.4216 -0.8811
20093TIP3    H281771   6.143   2.659  15.665  0.0735  1.8504 -0.6326
20094TIP3   OH281772   2.447   0.497   0.656  0.5740 -0.0291 -0.4496
20094TIP3    H181773   2.382   0.505   0.725  0.7811 -2.6973  0.1259
20094TIP3    H281774   2.396   0.486   0.575  0.3173 -0.4734 -0.2272
20095TIP3   OH281775   4.914   0.527  14.202 -0.1635  0.2544  0.1883
20095TIP3    H181776   4.820   0.525  14.184  0.2210 -0.2530 -1.8829
20095TIP3    H281777   4.939   0.618  14.187 -0.3184  0.3847  0.7170
20096TIP3   OH281778   4.583   4.679   6.123  0.0551 -0.1998 -0.0858
20096TIP3    H181779   4.581   4.603   6.181 -1.9455  0.1867  0.3779
20096TIP3    H281780   4.565   4.754   6.180  0.4013  0.4490 -0.8108
20097TIP3   OH281781   5.687   5.896   3.899  0.2841  0.7083 -0.0381
20097TIP3    H181782   5.660   5.876   3.989  0.1014  0.3293 -0.1791
20097TIP3    H281783   5.765   5.951   3.910  1.1348 -0.5480  0.3425
20098TIP3   OH281784   1.930   1.534   0.463  0.2009  0.0256  0.1642
20098TIP3    H181785   1.907   1.451   0.505 -2.5976  1.1644  0.9740
20098TIP3    H281786   1.927   1.599   0.533 -0.3457  1.2632 -0.9725
20099TIP3   OH281787   3.660   5.278  16.125 -0.3745  0.0599  0.0497
20099TIP3    H181788   3.743   5.312  16.091  0.0323 -0.8171  0.1555
20099TIP3    H281789   3.675   5.184  16.136 -0.5839  0.2703  2.4017
20100TIP3   OH281790   2.773   3.925   2.590  0.1455  0.0129  0.1839
20100TIP3    H181791   2.794   3.868   2.664 -0.4261 -0.7863 -0.2573
20100TIP3    H281792   2.834   3.998   2.597 -0.0394  0.0403  1.5508
20101TIP3   OH281793   4.380   2.803  14.500 -0.1291  0.1545 -0.2723
20101TIP3    H181794   4.470   2.772  14.491  0.1738  1.2721 -1.2386
20101TIP3    H281795   4.334   2.732  14.545  1.1031 -0.6571 -0.2835
20102TIP3   OH281796   2.434   3.664   1.627 -0.1562  0.0524 -0.4220
20102TIP3    H181797   2.463   3.756   1.632 -1.2236  0.3824 -0.1904
20102TIP3    H281798   2.340   3.669   1.615 -0.5647 -1.0261  1.9046
20103TIP3   OH281799   0.664   3.053  13.856  0.3213 -0.0979  0.1709
20103TIP3    H181800   0.644   3.134  13.902  2.1655  0.9061 -0.7349
20103TIP3    H281801   0.712   3.000  13.920  0.9067  0.3731  0.1280
20104TIP3   OH281802   4.160   4.316  14.273  0.0568  0.2819  0.3520
20104TIP3    H181803   4.099   4.248  14.302  1.8937 -2.0417 -1.0905
20104TIP3    H281804   4.237   4.305  14.328 -0.0256  1.8958  0.8053
20105TIP3   OH281805   4.563   4.061  15.060 -0.0897  0.0309 -0.3548
20105TIP3    H181806   4.653   4.071  15.092 -0.1397  0.7303 -0.4126
20105TIP3    H281807   4.572   4.008  14.981  0.1145 -1.0752  0.3999
20106TIP3   OH281808   5.961   0.419   6.465 -0.9028  0.1239 -0.1137
20106TIP3    H181809   5.956   0.325   6.479 -0.5823 -0.1179 -1.5139
20106TIP3    H281810   6.052   0.442   6.487 -0.9758  0.1021  0.2066
20107TIP3   OH281811   6.660   6.280  13.559 -0.1040 -0.2142 -0.3106
20107TIP3    H181812   6.593   6.217  13.531 -1.2582  0.8577  0.0040
20107TIP3    H281813   6.709   6.234  13.627 -0.9005 -0.8017 -0.1243
20108TIP3   OH281814   2.585   3.063   0.383 -0.3545 -0.3008 -0.0641
20108TIP3    H181815   2.554   3.149   0.411 -0.5182 -0.1877 -0.5899
20108TIP3    H281816   2.681   3.069   0.390 -0.3198  0.1969 -0.8776
20109TIP3   OH281817   2.678   0.013   1.291 -0.9884  0.3426  0.1466
20109TIP3    H181818   2.632   0.069   1.353  0.9569  1.8161  0.3188
20109TIP3    H281819   2.748  -0.028   1.342  0.1492  0.9630 -0.8594
20110TIP3   OH281820   3.935   5.563  12.890  0.1550  0.1750 -0.5112
20110TIP3    H181821   3.905   5.477  12.861 -0.0470  0.0357  0.1202
20110TIP3    H281822   4.029   5.553  12.902  0.2492  0.2465 -1.1640
20111TIP3   OH281823   3.623   2.601  17.166 -0.4268 -0.1731  0.5063
20111TIP3    H181824   3.574   2.528  17.129 -1.0951  0.0533  0.9267
20111TIP3    H281825   3.714   2.585  17.140 -0.2960 -2.0681  2.0783
20112TIP3   OH281826   0.606   0.552   4.838  0.2822 -0.2084  0.2780
20112TIP3    H181827   0.614   0.646   4.850  1.7362  0.0930 -2.7196
20112TIP3    H281828   0.682   0.515   4.882  1.7814  0.3346 -1.8084
20113TIP3   OH281829   1.212   1.899  12.005 -0.4081  0.1766 -0.4306
20113TIP3    H181830   1.297   1.873  11.971 -0.9059 -0.2108 -1.4026
20113TIP3    H281831   1.226   1.910  12.099  0.5528 -0.5681 -0.4802
20114TIP3   OH281832   2.241   6.595  14.699 -0.4383  0.3378 -0.7891
20114TIP3    H181833   2.289   6.513  14.695 -2.4934 -0.8280 -1.6969
20114TIP3    H281834   2.247   6.621  14.791 -1.7393 -2.0086 -0.0193
20115TIP3   OH281835   1.535   0.559  10.316  0.0403 -1.3444 -0.5189
20115TIP3    H181836   1.516   0.646  10.352  1.3153 -1.6381  0.9232
20115TIP3    H281837   1.452   0.512  10.320 -0.4722 -0.4563 -0.5592
20116TIP3   OH281838   5.392   6.433   2.261 -0.0726 -0.1674 -0.1147
20116TIP3    H181839   5.455   6.394   2.321 -1.6667 -0.5054  1.4017
20116TIP3    H281840   5.377   6.521   2.295 -0.5308 -0.1446 -0.3591
20117TIP3   OH281841   5.553   1.703  16.805  0.1310  0.2655  0.4731
20117TIP3    H181842   5.600   1.702  16.889  1.2154  2.9853 -0.0726
20117TIP3    H281843   5.461   1.715  16.830  0.6134  2.5684  1.2367
20118TIP3   OH281844   5.845   2.098  16.358 -0.3181 -0.1782  0.5940
20118TIP3    H181845   5.884   2.178  16.323 -0.7335  0.7601  2.2583
20118TIP3    H281846   5.772   2.080  16.298 -0.3910  0.8408  0.3564
20119TIP3   OH281847   4.745   6.663   0.525  0.2727  0.4409  0.1292
20119TIP3    H181848   4.817   6.676   0.587  1.3957 -1.0019 -0.8474
20119TIP3    H281849   4.693   6.743   0.531  2.5193  1.9335  0.1458
20120TIP3   OH281850   5.511   0.788   1.962  0.0849  0.2194 -0.4525
20120TIP3    H181851   5.442   0.798   1.896 -1.0875  0.1701  0.7534
20120TIP3    H281852   5.534   0.695   1.960 -0.0494  0.1907 -0.6674
20121TIP3   OH281853   0.105   0.749   1.468  0.2897  0.1086 -0.2240
20121TIP3    H181854   0.140   0.704   1.391  0.5612  0.5606 -0.3662
20121TIP3    H281855   0.073   0.678   1.524  2.9956 -0.4580  0.6908
20122TIP3   OH281856   3.505   2.956   1.309  0.1365  0.0689  0.1736
20122TIP3    H181857   3.486   2.962   1.215  0.3925 -0.1331  0.1106
20122TIP3    H281858   3.593   2.920   1.314  0.7631  1.5836  0.4628
20123TIP3   OH281859   4.117   5.002  10.533  0.3714  0.1572  0.1021
20123TIP3    H181860   4.189   5.030  10.590  0.2811  1.1099 -0.2483
20123TIP3    H281861   4.115   4.907  10.542  1.1302  0.2006  0.7679
20124TIP3   OH281862   1.089   0.586  13.419 -0.3164  0.1329 -0.6194
20124TIP3    H181863   1.130   0.507  13.454  0.0950  0.8839  0.6253
20124TIP3    H281864   0.997   0.562  13.408 -1.0014  0.6622  3.4660
20125TIP3   OH281865   6.486   6.479   4.951 -0.1009  0.1261 -0.1741
20125TIP3    H181866   6.405   6.527   4.970 -0.9567 -1.2622 -0.2520
20125TIP3    H281867   6.468   6.390   4.981  0.7719 -0.6162 -1.8203
20126TIP3   OH281868   6.006   5.170  11.981  0.5328 -0.1822 -0.1447
20126TIP3    H181869   6.024   5.085  11.943 -2.4494 -1.8067  1.8909
20126TIP3    H281870   5.990   5.152  12.074 -2.7151  2.1708 -0.1562
20127TIP3   OH281871   0.862   2.868   2.246 -0.0083  0.0492 -0.2350
20127TIP3    H181872   0.823   2.924   2.313  0.9388 -0.2165  0.5526
20127TIP3    H281873   0.918   2.807   2.295  0.8791  0.0009 -1.2833
20128TIP3   OH281874   2.155   3.747  15.961  0.2000  0.1721  0.2086
20128TIP3    H181875   2.183   3.696  15.885  2.2288 -1.2203  1.8386
20128TIP3    H281876   2.079   3.796  15.930 -0.0971 -1.7078 -2.2043
20129TIP3   OH281877   0.849   6.084   1.857 -0.5837 -0.1353  0.2481
20129TIP3    H181878   0.938   6.100   1.890 -0.5244 -0.9387  0.4981
20129TIP3    H281879   0.846   6.129   1.773 -0.5963  1.6095  1.1416
20130TIP3   OH281880   5.502   3.826  16.249 -0.4356  0.2783 -0.3391
20130TIP3    H181881   5.521   3.919  16.237 -0.4356  0.3216 -0.0097
20130TIP3    H281882   5.413   3.825  16.283 -1.1621  0.0598 -2.1864
20131TIP3   OH281883   5.654   5.041   1.146 -0.1105  0.1063  0.3308
20131TIP3    H181884   5.588   5.089   1.095 -0.3372 -0.4658  0.0754
20131TIP3    H281885   5.646   4.951   1.114  1.1053  0.1193 -0.0217
20132TIP3   OH281886   0.341   1.458   0.762 -0.1481  0.2158  0.5568
20132TIP3    H181887   0.434   1.442   0.750 -0.2983 -0.5184  0.3136
20132TIP3    H281888   0.309   1.480   0.674 -0.2799  0.0520  0.5629
20133TIP3   OH281889   3.682   2.333  13.199  0.3076  0.8167  0.3969
20133TIP3    H181890   3.704   2.414  13.152  1.0931  0.3655 -0.0269
20133TIP3    H281891   3.715   2.348  13.288  3.3530 -0.2392 -0.4851
20134TIP3   OH281892   6.768   1.173   5.633  0.1343 -0.0361  0.0469
20134TIP3    H181893   6.695   1.232   5.615 -0.1530 -0.2363  0.5562
20134TIP3    H281894   6.837   1.202   5.573 -1.1466 -1.3502 -2.1133
20135TIP3   OH281895   1.237   3.033  15.758  0.0639 -0.2662 -0.2232
20135TIP3    H181896   1.288   2.976  15.815  0.9248  0.4689 -0.2324
20135TIP3    H281897   1.152   2.991  15.752  0.5122 -1.2636  0.1984
20136TIP3   OH281898   1.985   6.700   6.142  0.1568  0.0249 -0.4428
20136TIP3    H181899   1.904   6.714   6.191  0.9934 -1.1246  1.2995
20136TIP3    H281900   1.958   6.658   6.060 -1.2045  1.5605 -0.7926
20137TIP3   OH281901   2.464   1.258   1.489  0.1495  0.0942  0.0990
20137TIP3    H181902   2.420   1.178   1.461 -0.6017 -0.3412  2.4283
20137TIP3    H281903   2.396   1.325   1.488 -0.2873 -0.2588  2.2539
20138TIP3   OH281904   2.737   5.378  14.822 -0.0410  0.3736 -0.0771
20138TIP3    H181905   2.728   5.471  14.845  1.8854  0.5145  0.1872
20138TIP3    H281906   2.798   5.377  14.749 -3.0443 -0.4186 -2.6869
20139TIP3   OH281907   3.751   1.952  12.197 -0.4212  0.5963  0.0721
20139TIP3    H181908   3.706   1.997  12.126 -0.0605  1.1637  0.1998
20139TIP3    H281909   3.803   2.020  12.240  0.9619 -0.1254 -0.3932
20140TIP3   OH281910   3.993   1.376  11.532 -0.1985 -0.1248 -0.1241
20140TIP3    H181911   4.015   1.455  11.580 -0.0014 -0.6731  0.7040
20140TIP3    H281912   3.898   1.379  11.522 -0.5553 -1.2317  2.5147
20141TIP3   OH281913   2.503   0.953   2.971  0.5296  0.6825 -0.6204
20141TIP3    H181914   2.513   1.048   2.970  0.2113  0.7144 -1.1060
20141TIP3    H281915   2.409   0.938   2.978  0.4060  0.4200 -2.5366
20142TIP3   OH281916   6.121   6.555   6.288 -0.2534  0.0833 -0.2278
20142TIP3    H181917   6.092   6.464   6.292 -0.6149  0.1740 -0.6905
20142TIP3    H281918   6.098   6.592   6.373 -0.8317 -0.0438 -0.3318
20143TIP3   OH281919   4.821   4.054  16.623 -0.2845 -0.0309 -0.2515
20143TIP3    H181920   4.766   4.056  16.701 -0.8909  0.0213 -0.6774
20143TIP3    H281921   4.800   3.971  16.581  1.5848 -1.0272  0.7308
20144TIP3   OH281922   0.884   6.475  15.204 -0.4399  0.3848  0.4956
20144TIP3    H181923   0.939   6.534  15.152  0.2119 -1.5080 -0.9980
20144TIP3    H281924   0.889   6.511  15.293  3.0585  0.3847  0.3673
20145TIP3   OH281925   2.917   5.924  14.247  0.0328 -0.6235 -0.2940
20145TIP3    H181926   2.973   5.971  14.309 -0.5571 -1.0799  0.5892
20145TIP3    H281927   2.901   5.987  14.177  0.9406 -0.1986 -0.1313
20146TIP3   OH281928   5.109   3.352  13.398 -0.2930 -0.4344  0.5159
20146TIP3    H181929   5.047   3.339  13.470  0.1468 -1.0684  0.7885
20146TIP3    H281930   5.125   3.264  13.365 -0.1753 -0.1825 -0.0928
20147TIP3   OH281931   2.808   4.522   3.568 -0.1216 -0.0609 -0.0400
20147TIP3    H181932   2.843   4.434   3.556 -0.2479 -0.3316  1.4423
20147TIP3    H281933   2.868   4.563   3.631 -0.5750  0.6019 -0.0332
20148TIP3   OH281934   3.696   6.305  15.329 -0.7768  0.3155  0.4342
20148TIP3    H181935   3.655   6.305  15.243 -1.9982  3.7653  0.9454
20148TIP3    H281936   3.784   6.339  15.314 -0.7777  0.3407  0.4837
20149TIP3   OH281937   5.019   3.952  13.421  0.3078 -0.1978  0.5601
20149TIP3    H181938   5.000   3.881  13.359  2.0491 -0.7624  0.6370
20149TIP3    H281939   5.010   4.032  13.371  1.5580 -0.6471 -0.4149
20150TIP3   OH281940   0.786   2.955   1.299 -0.6406  0.3564  0.1155
20150TIP3    H181941   0.754   2.940   1.388 -1.2420 -0.3099 -0.2137
20150TIP3    H281942   0.862   3.012   1.311 -0.3522 -0.2208  1.1047
20151TIP3   OH281943   3.916   2.061  16.402  0.1789  0.0234 -0.3426
20151TIP3    H181944   3.872   2.014  16.331  1.6268 -0.8496 -0.6991
20151TIP3    H281945   4.006   2.028  16.399  0.4537  0.5909  1.3733
20152TIP3   OH281946   1.210   1.102  12.949  0.2675  0.0438  0.1040
20152TIP3    H181947   1.191   1.134  12.860 -0.5241  0.5594  0.4548
20152TIP3    H281948   1.306   1.099  12.953  0.3107 -0.0139 -0.7819
20153TIP3   OH281949   4.985   0.951  17.275 -0.6266  0.2530 -0.2644
20153TIP3    H181950   4.931   0.940  17.353  0.8361 -0.5803  0.6786
20153TIP3    H281951   4.998   1.045  17.267 -1.0664  0.3649  0.3137
20154TIP3   OH281952   1.561   4.929  12.004 -0.1987 -0.2336 -0.7027
20154TIP3    H181953   1.568   5.023  12.022  0.2943 -0.5910  1.0456
20154TIP3    H281954   1.470   4.916  11.979 -0.1941  0.7577 -1.2838
20155TIP3   OH281955   4.330   0.813  12.285  0.1001 -0.3508  0.0492
20155TIP3    H181956   4.251   0.783  12.240 -0.2582 -2.8532  2.1819
20155TIP3    H281957   4.395   0.746  12.265  1.3850  1.1303 -0.7926
20156TIP3   OH281958   3.620   2.379  15.993 -0.4595 -0.4896 -0.2861
20156TIP3    H181959   3.705   2.361  15.952 -0.4816 -0.0063 -0.5466
20156TIP3    H281960   3.640   2.442  16.063 -0.6237 -0.2677 -0.4379
20157TIP3   OH281961   3.994   2.019  15.058 -0.5685 -0.0024  0.2266
20157TIP3    H181962   4.052   2.094  15.047 -0.4332 -0.0610  0.5394
20157TIP3    H281963   4.007   1.968  14.978 -0.8035  0.4009 -0.0694
20158TIP3   OH281964   1.083   2.962   6.064  0.5755  0.0845  0.4170
20158TIP3    H181965   1.029   3.035   6.095  0.5717 -0.1240  0.9062
20158TIP3    H281966   1.101   2.911   6.142 -0.9474 -1.4575 -0.2170
20159TIP3   OH281967   2.628   0.477  14.078  0.0360 -0.1104 -0.4667
20159TIP3    H181968   2.666   0.400  14.122 -1.0947 -1.0203 -1.0490
20159TIP3    H281969   2.625   0.544  14.146  2.7124  0.0051 -0.4238
20160TIP3   OH281970   1.482   0.093   5.324 -0.1481 -0.0582  0.5841
20160TIP3    H181971   1.517   0.176   5.290  0.5548 -1.0291 -1.1536
20160TIP3    H281972   1.398   0.116   5.363  0.4304  1.6116  0.8795
20161TIP3   OH281973   2.117   3.342   2.425 -0.3856 -0.2636 -0.1602
20161TIP3    H181974   2.024   3.343   2.402 -0.8354 -0.0243  1.5872
20161TIP3    H281975   2.118   3.331   2.520  1.2652  3.2357  0.3064
20162TIP3   OH281976   3.233   2.660  12.783  0.1577  0.1611 -0.2166
20162TIP3    H181977   3.320   2.673  12.821  0.5606 -0.6048 -0.8555
20162TIP3    H281978   3.181   2.624  12.854  0.3622  0.6092  0.1643
20163TIP3   OH281979   3.255   6.037   5.236  0.3052  0.0496 -0.1115
20163TIP3    H181980   3.245   6.108   5.173  1.2691 -1.1211 -1.6044
20163TIP3    H281981   3.222   6.074   5.318 -2.0211  1.2312 -1.5154
20164TIP3   OH281982   0.630   0.553  14.886 -0.2518 -0.5464 -0.0482
20164TIP3    H181983   0.613   0.482  14.824  0.9159 -0.1649 -0.8342
20164TIP3    H281984   0.619   0.633  14.834 -2.3629 -0.1057  1.0298
20165TIP3   OH281985   4.283   6.530   6.569  0.1538  0.2032  0.3837
20165TIP3    H181986   4.365   6.558   6.527  1.1981 -1.6634  1.1252
20165TIP3    H281987   4.275   6.588   6.645  1.5662 -0.5413  1.1253
20166TIP3   OH281988   6.220   4.064  16.081  0.5838 -0.0387 -0.2053
20166TIP3    H181989   6.276   4.087  16.007  3.1666  2.5533  2.4416
20166TIP3    H281990   6.220   3.968  16.082  1.7333 -0.1068 -2.6114
20167TIP3   OH281991   1.462   3.564   0.312  0.1937 -0.3058  0.6688
20167TIP3    H181992   1.462   3.471   0.335 -0.0641 -0.4624  0.0479
20167TIP3    H281993   1.508   3.569   0.228 -0.7690 -0.0186  0.1499
20168TIP3   OH281994   0.691   1.654   2.203 -0.6097  0.2614 -0.0421
20168TIP3    H181995   0.646   1.737   2.218  0.1484  0.7564 -0.4683
20168TIP3    H281996   0.752   1.646   2.277  0.2246  0.7128 -0.6714
20169TIP3   OH281997   6.602   0.063   0.867 -0.7956  0.4739  0.0441
20169TIP3    H181998   6.658   0.106   0.932 -1.0007 -1.3912  1.5116
20169TIP3    H281999   6.656   0.056   0.789  0.5239  0.0500  0.9717
20170TIP3   OH282000   2.241   3.508   5.303  0.2466 -0.2353  0.1137
20170TIP3    H182001   2.219   3.415   5.297 -0.1052 -0.2674  1.5838
20170TIP3    H282002   2.177   3.552   5.248 -0.0491 -0.8045  0.0025
20171TIP3   OH282003   5.243   0.804   0.082 -0.2689  0.0411  0.6541
20171TIP3    H182004   5.270   0.749   0.155 -0.3926  1.0106  1.4426
20171TIP3    H282005   5.206   0.743   0.018 -0.4319 -0.7843  1.5234
20172TIP3   OH282006   1.529   4.697  14.387 -0.6715 -0.5603 -0.0584
20172TIP3    H182007   1.575   4.655  14.460 -0.8900 -0.5872  0.0639
20172TIP3    H282008   1.440   4.709  14.418 -1.0062 -1.4441 -0.6668
20173TIP3   OH282009   0.993   2.118   4.074 -0.0488 -0.0795  0.1405
20173TIP3    H182010   1.055   2.060   4.032 -1.1113 -0.0880 -1.4502
20173TIP3    H282011   0.930   2.059   4.117 -1.0654 -0.1399 -1.3834
20174TIP3   OH282012   0.720   0.233   2.144 -0.6735  0.5245  0.6437
20174TIP3    H182013   0.670   0.220   2.224 -0.3575  3.0998  1.3050
20174TIP3    H282014   0.810   0.209   2.167 -0.8624 -0.2450  0.5957
20175TIP3   OH282015   6.378   4.584  11.175 -0.2200  0.1158 -0.4508
20175TIP3    H182016   6.437   4.516  11.143 -0.0545 -0.0844  0.2735
20175TIP3    H282017   6.301   4.577  11.119  0.4142  0.3370 -1.3657
20176TIP3   OH282018   0.184   4.301   0.863  0.4578 -0.2980  0.1657
20176TIP3    H182019   0.257   4.258   0.908  0.1337 -1.7820 -0.7054
20176TIP3    H282020   0.151   4.235   0.803 -0.0384  1.1817 -1.2186
20177TIP3   OH282021   3.205   0.068  15.123  0.5718 -0.0078 -0.6393
20177TIP3    H182022   3.203   0.016  15.043 -0.1076 -1.2741  0.1780
20177TIP3    H282023   3.251   0.148  15.099 -1.0001  0.3204 -2.7194
20178TIP3   OH282024   2.094   2.316  16.828  0.0400  0.3686 -0.3241
20178TIP3    H182025   2.008   2.350  16.850  0.6163  2.9451 -1.8611
20178TIP3    H282026   2.089   2.293  16.735  0.1087 -2.4470  0.3297
20179TIP3   OH282027   0.207   2.322   2.801 -0.3773  0.1855  0.4605
20179TIP3    H182028   0.157   2.308   2.881  1.2156  1.4546  1.7178
20179TIP3    H282029   0.167   2.399   2.760  0.1157  0.8113  1.1367
20180TIP3   OH282030   0.841   6.214   0.068 -0.2838 -0.3101  0.5443
20180TIP3    H182031   0.870   6.137   0.018 -2.0500 -0.5645 -0.1325
20180TIP3    H282032   0.755   6.234   0.032  0.5375  2.5913  0.0246
20181TIP3   OH282033   4.051   6.454   1.595 -0.3860 -0.0929  0.3104
20181TIP3    H182034   4.117   6.407   1.545  0.9833  3.3670 -1.3210
20181TIP3    H282035   4.086   6.459   1.684  0.0958 -0.8644  0.1656
20182TIP3   OH282036   2.059   3.424   3.118 -0.1843  0.0798 -0.4776
20182TIP3    H182037   2.069   3.343   3.167 -1.2012 -1.4565 -2.7050
20182TIP3    H282038   1.964   3.435   3.108 -0.0955  1.9646  0.4156
20183TIP3   OH282039   0.956   1.500  14.535  0.0019 -0.2242 -0.2086
20183TIP3    H182040   0.885   1.555  14.500  1.2410  0.6615 -1.3794
20183TIP3    H282041   0.984   1.546  14.614 -1.0447 -0.8359  0.5314
20184TIP3   OH282042   1.933   1.085   5.501  0.0551 -0.3778 -0.0408
20184TIP3    H182043   1.995   1.089   5.428 -1.6702 -0.9355 -1.5902
20184TIP3    H282044   1.913   1.177   5.521 -0.2744 -0.2272 -1.0152
20185TIP3   OH282045   4.090   6.784   1.223 -0.0110 -0.2913  0.5200
20185TIP3    H182046   4.023   6.838   1.265  1.3354  1.0760  0.9726
20185TIP3    H282047   4.061   6.694   1.237 -0.4229  0.1853  2.9719
20186TIP3   OH282048   6.530   3.915  16.625  0.3685  0.2126 -0.3600
20186TIP3    H182049   6.485   3.996  16.601 -0.6089 -0.5408 -1.1438
20186TIP3    H282050   6.460   3.850  16.634  1.0399 -0.3240  1.2563
20187TIP3   OH282051   5.671   6.128  14.001 -0.0863 -0.3034 -0.6055
20187TIP3    H182052   5.579   6.150  13.987  0.2304  1.0542 -0.5619
20187TIP3    H282053   5.717   6.168  13.928  0.4571 -1.1196 -0.7164
20188TIP3   OH282054   4.833   0.261  11.227 -0.3923 -0.0294 -1.1548
20188TIP3    H182055   4.870   0.205  11.295 -0.4240 -0.4506 -1.4783
20188TIP3    H282056   4.769   0.315  11.273 -0.5808 -0.4719 -0.8887
20189TIP3   OH282057   5.068   4.607   1.343  0.3609  0.4478  0.2432
20189TIP3    H182058   5.128   4.649   1.405  0.5843 -1.7656  1.5789
20189TIP3    H282059   5.116   4.609   1.260  2.0755 -0.7605  1.1678
20190TIP3   OH282060   4.877   6.041  13.409  0.3828  0.3106 -0.3127
20190TIP3    H182061   4.819   6.016  13.481  2.5983 -0.9391  1.0757
20190TIP3    H282062   4.934   5.965  13.396  3.6738  2.5504  0.3673
20191TIP3   OH282063   3.128   6.268   4.711  0.3308 -0.0073  0.0035
20191TIP3    H182064   3.192   6.201   4.737  0.6558 -0.1326 -1.0847
20191TIP3    H282065   3.047   6.243   4.756  0.1219 -1.8488 -1.3099
20192TIP3   OH282066   5.047   4.213  13.955 -0.1010 -0.3184 -0.6525
20192TIP3    H182067   5.021   4.170  13.874 -0.1325 -0.7008 -0.4443
20192TIP3    H282068   5.140   4.192  13.965 -0.7921 -2.9240  0.9916
20193TIP3   OH282069   2.442   6.603   3.902 -0.6223 -0.0451 -0.2977
20193TIP3    H182070   2.362   6.551   3.908 -1.2509  0.7379 -1.5850
20193TIP3    H282071   2.428   6.675   3.964 -0.2514 -0.7400  0.6072
20194TIP3   OH282072   4.119   4.533  15.965 -0.2109 -0.0487  0.0982
20194TIP3    H182073   4.108   4.511  15.873 -0.1749  0.6698 -0.0772
20194TIP3    H282074   4.088   4.623  15.973 -0.9248 -0.3558  0.9346
20195TIP3   OH282075   6.379   6.427   3.398  0.3731  0.2217 -0.4337
20195TIP3    H182076   6.421   6.440   3.484 -0.7403 -0.1883  0.1770
20195TIP3    H282077   6.405   6.504   3.347 -0.6416  1.4905  0.9425
20196TIP3   OH282078   1.413   5.404   3.997  0.5625  0.7241  0.1724
20196TIP3    H182079   1.422   5.500   4.000  1.4414  0.6680 -0.5972
20196TIP3    H282080   1.475   5.376   3.931  0.4048 -0.4045  0.4925
20197TIP3   OH282081   5.345   1.589   4.577 -0.1245  0.2251  0.1559
20197TIP3    H182082   5.350   1.644   4.655 -0.7370  0.2607  0.1687
20197TIP3    H282083   5.288   1.516   4.603  0.9664 -0.5984  0.2506
20198TIP3   OH282084   5.950   3.919   5.542 -0.0234  0.2681 -0.1931
20198TIP3    H182085   5.974   3.834   5.578  3.0812  1.4450  0.6303
20198TIP3    H282086   5.890   3.956   5.607  0.3813 -0.3617  0.5511
20199TIP3   OH282087   3.675   4.171  13.445 -0.2065 -0.7349 -0.4877
20199TIP3    H182088   3.621   4.096  13.469 -0.6989 -0.0539  0.5683
20199TIP3    H282089   3.617   4.229  13.397 -0.0105 -0.7057 -0.6904
20200TIP3   OH282090   5.096   3.208  11.930  0.5135  0.1729 -0.7702
20200TIP3    H182091   5.186   3.221  11.962  0.1822  0.9577 -0.1536
20200TIP3    H282092   5.065   3.296  11.908 -0.5261  0.0353  0.1337
20201TIP3   OH282093   2.769   2.010   0.048 -0.7940 -0.3160  0.3316
20201TIP3    H182094   2.748   2.007   0.142 -4.6568 -0.5240 -0.4522
20201TIP3    H282095   2.764   2.102   0.025  2.3173  0.0003  0.7051
20202TIP3   OH282096   3.902   2.091   2.378  0.2112  0.1021  0.0328
20202TIP3    H182097   3.950   2.171   2.397 -0.7477  0.4670  0.9480
20202TIP3    H282098   3.819   2.101   2.425 -0.5379 -0.7540 -1.0901
20203TIP3   OH282099   3.609   2.374  11.318  0.0872  0.2124  0.4015
20203TIP3    H182100   3.597   2.284  11.287 -0.6631  0.2676  0.5133
20203TIP3    H282101   3.687   2.371  11.374  0.4990 -0.2127 -0.2037
20204TIP3   OH282102   6.423   4.532   0.113  0.3368 -0.5223 -0.4637
20204TIP3    H182103   6.510   4.566   0.092  0.1301  0.2112 -0.1613
20204TIP3    H282104   6.390   4.591   0.181  1.3407 -3.3231  2.6159
20205TIP3   OH282105   6.012   5.854  11.056 -0.1319  0.2388 -0.5826
20205TIP3    H182106   5.978   5.797  10.987 -0.2234  2.1921 -2.1872
20205TIP3    H282107   5.935   5.898  11.091 -0.0824 -0.7476  0.7850
20206TIP3   OH282108   6.597   2.841   2.779  0.2096  0.2336 -0.3412
20206TIP3    H182109   6.617   2.750   2.760  0.4396 -0.4257  2.8082
20206TIP3    H282110   6.504   2.841   2.803  0.4890  0.6148  0.7873
20207TIP3   OH282111   5.921   5.167   0.692 -0.0937  0.6549  0.0291
20207TIP3    H182112   5.853   5.188   0.756 -0.5251  1.1049 -0.5704
20207TIP3    H282113   5.998   5.216   0.722  0.7340 -1.7844  2.1114
20208TIP3   OH282114   3.676   4.632   3.927 -0.1992  0.0896 -0.4950
20208TIP3    H182115   3.718   4.680   3.856  0.2940  0.6305  0.1587
20208TIP3    H282116   3.723   4.548   3.931  0.9253  0.7507  0.3331
20209TIP3   OH282117   1.966   1.523   1.605  0.1976 -0.5792 -0.2770
20209TIP3    H182118   1.933   1.589   1.543  0.8725  1.7747  1.7867
20209TIP3    H282119   1.915   1.444   1.586 -0.8573  0.6121 -2.6111
20210TIP3   OH282120   6.213   4.335   5.077  0.2841  0.5005  0.6590
20210TIP3    H182121   6.184   4.426   5.086  0.2034  0.4796  0.6142
20210TIP3    H282122   6.192   4.311   4.987  1.5129  0.8494  0.2715
20211TIP3   OH282123   3.043   3.475  12.275 -0.3117 -0.8583 -0.1450
20211TIP3    H182124   3.014   3.429  12.354  1.1928 -0.3721  0.7082
20211TIP3    H282125   2.965   3.519  12.243 -0.8122 -0.5751  1.4090
20212TIP3   OH282126   2.998   6.130  11.858  0.4120  0.2087 -0.9651
20212TIP3    H182127   3.048   6.185  11.797  0.4429  0.3019 -0.8557
20212TIP3    H282128   3.055   6.054  11.873  1.3883  1.2445  0.7050
20213TIP3   OH282129   3.084   3.565  16.093 -0.4260  0.8041  0.3252
20213TIP3    H182130   3.026   3.597  16.162  0.3978  0.5065  1.1513
20213TIP3    H282131   3.155   3.521  16.139 -0.5394 -0.5335 -0.7420
20214TIP3   OH282132   5.144   0.815  11.269 -0.1906  0.4126  0.5280
20214TIP3    H182133   5.077   0.881  11.251  2.9113  3.2298 -1.2780
20214TIP3    H282134   5.169   0.783  11.183  1.8614  0.5519  1.0459
20215TIP3   OH282135   0.046   2.405   6.149  0.6669 -0.0532 -0.1343
20215TIP3    H182136  -0.020   2.425   6.082 -0.0590 -2.4559 -0.1890
20215TIP3    H282137   0.124   2.381   6.099  0.3044 -1.2693 -0.1272
20216TIP3   OH282138   5.599   4.155   3.807 -0.4348 -0.4112  0.5872
20216TIP3    H182139   5.601   4.062   3.832 -2.0083 -0.9613 -1.1854
20216TIP3    H282140   5.645   4.200   3.878 -1.0184 -2.3675  2.2594
20217TIP3   OH282141   1.954   1.339  13.969 -0.6209  0.6331 -0.5597
20217TIP3    H182142   2.033   1.392  13.958 -0.7246  1.0157  0.5134
20217TIP3    H282143   1.911   1.343  13.883  0.9641 -0.3178 -1.4228
20218TIP3   OH282144   0.203   4.972   5.526 -0.3147  0.1066 -0.0120
20218TIP3    H182145   0.170   4.893   5.568  0.3251  0.2363  0.7411
20218TIP3    H282146   0.244   5.022   5.596  0.1276  0.6683 -0.6563
20219TIP3   OH282147   4.356   0.821  11.080  0.2326 -0.5706 -0.2800
20219TIP3    H182148   4.430   0.761  11.088  0.8038 -0.0419 -1.4587
20219TIP3    H282149   4.333   0.820  10.987  0.5131  1.3371 -0.4021
20220TIP3   OH282150   6.727   5.253  14.945  0.4480  0.6872  0.5000
20220TIP3    H182151   6.763   5.252  14.856  2.5685  0.8525  1.3179
20220TIP3    H282152   6.708   5.346  14.962 -0.5834  0.5720 -0.0188
20221TIP3   OH282153   4.301   1.499   5.229 -0.1232  0.3441 -0.2611
20221TIP3    H182154   4.345   1.445   5.294 -3.4891 -0.4475  1.4957
20221TIP3    H282155   4.321   1.458   5.145  1.4023 -0.7067  0.6085
20222TIP3   OH282156   0.729   2.534   4.933  0.3087 -0.2966  0.1435
20222TIP3    H182157   0.709   2.537   4.839  1.2838 -1.2115 -0.0986
20222TIP3    H282158   0.797   2.600   4.945 -2.4927  2.5973  0.9127
20223TIP3   OH282159   4.782   2.876   5.223 -0.5697  0.2437 -0.3861
20223TIP3    H182160   4.723   2.932   5.273  0.8160 -0.1983  1.7973
20223TIP3    H282161   4.863   2.927   5.214  0.1415 -0.7538  0.2279
20224TIP3   OH282162   0.923   5.017   2.601 -0.5817 -0.1486 -0.5880
20224TIP3    H182163   0.995   4.970   2.560  0.1918 -0.1285  0.7079
20224TIP3    H282164   0.916   5.099   2.552  0.3747 -0.0909 -0.6209
20225TIP3   OH282165   0.729   5.327   2.529 -0.1579  0.0258  0.4631
20225TIP3    H182166   0.819   5.337   2.558 -0.0348 -1.4112  0.5851
20225TIP3    H282167   0.726   5.241   2.488 -1.6205 -0.1937  1.0046
20226TIP3   OH282168   1.908   0.401   4.688  0.7970 -0.2906 -0.2696
20226TIP3    H182169   1.903   0.306   4.681  1.6843 -0.2915 -1.0301
20226TIP3    H282170   1.917   0.418   4.781  0.0649 -0.9149 -0.0777
20227TIP3   OH282171   3.176   4.506  16.014 -0.4642  0.5159 -0.4891
20227TIP3    H182172   3.193   4.461  15.931  1.9081 -1.5286  1.0671
20227TIP3    H282173   3.080   4.505  16.021 -0.6064 -1.7045 -1.9348
20228TIP3   OH282174   2.214   4.835  15.074 -0.1129 -0.0612  0.1314
20228TIP3    H182175   2.136   4.885  15.047  0.0561 -0.0374 -0.3121
20228TIP3    H282176   2.215   4.759  15.016  0.3634  0.0949 -0.0681
20229TIP3   OH282177   3.676   0.071  15.571 -0.1198 -0.0607 -0.7256
20229TIP3    H182178   3.593   0.025  15.562  0.6914 -1.8184  0.6760
20229TIP3    H282179   3.735   0.028  15.509  1.0481 -1.9033  1.6110
20230TIP3   OH282180   3.507   1.644   2.872 -0.0348 -0.2566 -0.3386
20230TIP3    H182181   3.502   1.615   2.963 -1.4745 -0.9089 -0.6244
20230TIP3    H282182   3.478   1.735   2.874  1.4266  0.2102  0.0789
20231TIP3   OH282183   1.611   6.036  14.190 -0.0239  0.2979  0.3507
20231TIP3    H182184   1.545   5.975  14.223  0.8129 -0.1509  1.2130
20231TIP3    H282185   1.573   6.123  14.203  0.0835  0.1094  2.0782
20232TIP3   OH282186   1.637   1.622  15.862  0.6300 -0.9800  0.3003
20232TIP3    H182187   1.645   1.714  15.835 -0.2889 -0.6269  1.1838
20232TIP3    H282188   1.579   1.625  15.938  1.4039 -2.1956  0.9431
20233TIP3   OH282189   3.813   1.149  16.343  0.0890  0.3114  0.1776
20233TIP3    H182190   3.768   1.154  16.259  0.9002  0.7354 -0.2357
20233TIP3    H282191   3.833   1.057  16.355  0.1756  0.2812 -0.2014
20234TIP3   OH282192   2.773   5.059   4.389  0.4516  0.1115 -0.0955
20234TIP3    H182193   2.824   4.981   4.368 -0.5660 -0.5793 -0.0204
20234TIP3    H282194   2.683   5.028   4.395 -0.2627  1.6561 -2.2075
20235TIP3   OH282195   5.741   0.864  17.116 -0.6287  0.3762  0.8135
20235TIP3    H182196   5.696   0.784  17.088  0.9372 -0.4279  0.5701
20235TIP3    H282197   5.784   0.896  17.037  0.8158  0.0852  1.4729
20236TIP3   OH282198   0.912   6.368  16.253 -0.4880  1.0092 -0.8686
20236TIP3    H182199   0.948   6.311  16.321 -0.1549  1.9060 -0.2843
20236TIP3    H282200   0.988   6.396  16.202 -0.5506  1.5411 -0.6778
20237TIP3   OH282201   3.886   3.372  11.636  0.2008  0.5491  0.1588
20237TIP3    H182202   3.943   3.316  11.583  0.7136  1.9572 -0.7854
20237TIP3    H282203   3.945   3.421  11.692 -0.1151  1.6975 -0.5138
20238TIP3   OH282204   2.703   3.899  13.300 -0.1288 -0.6942 -0.0504
20238TIP3    H182205   2.715   3.948  13.382  0.3531 -2.0390  0.6889
20238TIP3    H282206   2.676   3.812  13.327 -2.3508 -0.4688 -1.4157
20239TIP3   OH282207   0.375   4.912   5.942  0.3269  0.0949  0.6626
20239TIP3    H182208   0.388   4.823   5.910  1.0462  1.1700 -2.2207
20239TIP3    H282209   0.303   4.905   6.005  0.1794 -2.4543  0.2478
20240TIP3   OH282210   0.138   1.220  15.706 -0.0445 -0.5282 -0.2812
20240TIP3    H182211   0.078   1.265  15.646 -0.5154 -0.2999  0.3539
20240TIP3    H282212   0.089   1.143  15.736 -0.8910  0.8593  1.9791
20241TIP3   OH282213   2.978   4.519  14.215 -0.1495 -0.3504  0.0097
20241TIP3    H182214   2.885   4.540  14.213 -0.4467 -1.7086 -0.4932
20241TIP3    H282215   3.007   4.528  14.124  0.2413  0.1966  0.1844
20242TIP3   OH282216   0.365   1.883   6.083 -0.4775 -0.0890 -0.1187
20242TIP3    H182217   0.305   1.812   6.060 -0.4282  0.6461 -2.6544
20242TIP3    H282218   0.443   1.868   6.028 -0.0009  1.2617  0.1565
20243TIP3   OH282219   3.775   4.884   0.806 -0.2213  0.3611 -0.3174
20243TIP3    H182220   3.766   4.794   0.837  1.3301  0.7412  1.2714
20243TIP3    H282221   3.867   4.906   0.820 -0.5823  2.2054 -0.6872
20244LIG     O182222   5.290   1.427  16.314 -0.5990 -0.1075 -0.4825
20244LIG     O282223   5.237   1.486  16.562 -0.2411 -0.7680 -0.0164
20244LIG     O382224   5.093   1.212  16.274 -0.4279  0.0160  0.5775
20244LIG     O482225   5.218   1.665  16.707  0.6734  0.0475  0.3509
20244LIG     O582226   4.973   1.501  16.493  0.1999  0.1698  0.7420
20244LIG     O682227   4.809   1.669  16.632 -0.2249  0.1214 -0.9566
20244LIG     O782228   4.945   1.897  16.762  0.2548 -0.5593  0.2127
20244LIG     O882229   5.296   1.750  16.952 -0.3495 -0.4482  0.2432
20244LIG     O982230   5.141   1.916  16.955  0.1821  0.3889 -0.0594
20244LIG      N82231   5.782   1.326  16.266  0.5336 -0.3902  0.0440
20244LIG     C182232   5.520   1.402  16.346  0.1878  0.5552 -0.1980
20244LIG     C282233   5.622   1.372  16.451  0.6359 -0.8590  0.6340
20244LIG     C382234   5.399   1.495  16.375 -0.4322 -0.3062 -0.1671
20244LIG     C482235   5.714   1.262  16.391  0.5924 -0.5006  0.2111
20244LIG     C582236   5.577   1.436  16.205 -0.5613 -0.5847 -0.2614
20244LIG     C682237   5.457   1.266  16.309  0.0876 -0.5080 -0.5294
20244LIG     C782238   5.647   1.118  16.364  0.2411  0.5530  0.1073
20244LIG     C882239   5.700   1.359  16.157  0.0165 -0.0110 -0.2773
20244LIG     C982240   5.376   1.503  16.522  0.8613  1.0371  0.2426
20244LIG    C1082241   5.503   1.141  16.323  0.1048 -0.1307  0.3515
20244LIG    C1182242   5.559   1.357  16.592 -0.1484 -0.4162 -0.4726
20244LIG    C1282243   5.321   1.293  16.299 -0.3446  0.2610  0.0334
20244LIG    C1382244   5.447   1.415  16.623  0.5084 -0.1144 -0.6392
20244LIG    C1482245   5.910   1.265  16.228  0.1960  0.4463 -0.1481
20244LIG    C1582246   5.420   1.033  16.320 -0.1517 -0.3448  0.3312
20244LIG    C1682247   5.236   1.188  16.290 -0.2318 -0.0809  0.2698
20244LIG    C1782248   5.281   1.058  16.299  0.5538 -0.2196  0.3753
20244LIG    C1882249   5.176   1.604  16.585  0.5329  0.4319 -0.3973
20244LIG    C1982250   5.026   1.571  16.606 -0.4678  0.8377  0.2693
20244LIG    C2082251   4.956   1.702  16.628  0.2454 -0.4811 -0.3289
20244LIG    C2182252   5.003   1.767  16.756 -0.2446  0.0601 -0.5490
20244LIG    C2282253   5.149   1.783  16.753  0.2144  0.4358 -0.0347
20244LIG    C2382254   5.192   1.826  16.892  0.0208  0.1325 -0.3488
20244LIG     H182255   5.687   1.461  16.466 -1.7001  0.8848  0.6166
20244LIG     H282256   5.410   1.595  16.327  1.5136 -0.4290 -0.0446
20244LIG     H382257   5.796   1.250  16.466  0.9257  1.1677  0.1332
20244LIG     H482258   5.589   1.545  16.217 -0.5875 -0.2070 -3.2863
20244LIG     H582259   5.502   1.434  16.123 -1.7144  1.4583  0.7142
20244LIG     H682260   5.644   1.060  16.458 -0.7055  0.2851 -0.0822
20244LIG     H782261   5.703   1.072  16.280  1.1196 -0.4658  1.2346
20244LIG     H882262   5.670   1.268  16.099 -1.4588  1.4636 -1.8965
20244LIG     H982263   5.757   1.434  16.098  1.4694  0.7522  2.0616
20244LIG    H1082264   5.415   1.603  16.553  1.5985  0.8825 -0.1703
20244LIG    H1182265   5.618   1.316  16.675  0.4425 -0.7633 -1.0587
20244LIG    H1282266   5.402   1.403  16.723  0.8238 -1.2019 -0.6207
20244LIG    H1382267   5.953   1.185  16.291  1.7355  2.5978  1.6524
20244LIG    H1482268   5.992   1.339  16.213  1.5635 -1.1489 -0.5754
20244LIG    H1582269   5.902   1.222  16.126  0.0980 -0.7096  0.3519
20244LIG    H1682270   5.460   0.932  16.328 -1.9336 -1.2176 -1.4196
20244LIG    H1782271   5.213   0.974  16.293  0.3652  0.0573 -1.4302
20244LIG    H1882272   5.183   1.674  16.499  0.3664 -0.3359 -1.0485
20244LIG    H1982273   5.009   1.508  16.696 -0.2250 -1.2541 -1.1129
20244LIG    H2082274   4.970   1.763  16.537  1.2723 -1.4234 -0.8317
20244LIG    H2182275   5.054   1.127  16.294 -1.1456 -0.5111 -2.6465
20244LIG    H2282276   4.970   1.710  16.845 -2.8776  1.6131 -0.4591
20244LIG    H2382277   5.180   1.861  16.680 -0.0532  0.6489  0.0793
20244LIG    H2482278   4.917   1.438  16.540 -1.3277  1.2689  0.4290
20244LIG    H2582279   4.808   1.627  16.546 -0.4837  2.2601 -2.0283
20244LIG    H2682280   4.851   1.882  16.777  0.1978  0.1846  0.6484
20244LIG    H2782281   5.319   1.793  17.035  3.8713  0.3367 -1.2089
   6.82013   6.82013  17.29240
